ACE
 10015
  30.8829517  19.7476157  15.7336378  30.2142866  20.5724187  15.9799848
  29.4039509  20.6137066  15.2521457  30.7696954  21.5100452  15.9581568
  29.6103803  20.3942434  17.3744205  29.8991868  19.4151326  18.0587982
  28.7713443  21.3464549  17.7885905  28.5647856  22.1329925  17.1895985
  28.1342304  21.2930065  19.0889102  27.5310970  20.3879990  19.1616480
  29.1703564  21.2793402  20.2077848  29.8125168  20.4054089  20.0983618
  29.7762311  22.1838231  20.1536865  28.6001778  21.2242435  21.6049112
  29.4132945  21.2057702  22.7321195  28.6340420  21.1567589  23.7964336
  29.0739868  21.1347217  24.7934602  27.3828202  21.1432895  23.4086679
  26.5850369  21.1077752  24.0270371  27.3161608  21.1841675  22.0509178
  26.3468111  21.1798950  21.5524760  27.2307422  22.4983763  19.3063427
  27.1169723  23.3578503  18.4352508  26.5867492  22.5597973  20.4741292
  26.7125422  21.8284632  21.1592758  25.6978520  23.6562544  20.8016135
  26.2532600  24.5938815  20.7797830  24.5480652  23.7476044  19.8039814
  24.9471289  23.9098713  18.8027237  23.7496320  22.4485508  19.8282343
  23.3498348  22.2858275  20.8291261  22.9276530  22.5133147  19.1153131
  24.3999140  21.6166823  19.5576244  23.6377130  24.9109852  20.1827008
  24.2079724  25.8397540  20.1655319  22.8156878  24.9767271  19.4699230
  23.2378763  24.7491906  21.1837273  25.0971050  23.4790117  22.1887588
  25.3859145  22.4999017  22.8731366  24.2580680  24.4312225  22.6029283
  24.0515076  25.2177590  22.0039354  23.6209554  24.3777750  23.9032487
  23.0178235  23.4727667  23.9759883  24.6570825  24.3641118  25.0221224
  25.2992440  23.4901813  24.9126999  25.2629558  25.2685956  24.9680223
  23.9478752  24.3076808  26.3709978  23.3058347  25.1815846  26.4813469
  23.1006180  23.0419923  26.4472528  23.7420709  22.1675907  26.3374398
  22.5934647  23.0011638  27.4112182  22.3598766  23.0512794  25.6476802
  24.9840018  24.2940195  27.4898722  25.5898731  25.1985043  27.4357722
  24.4775969  24.2536859  28.4542521  25.6261650  23.4200904  27.3804497
  22.7174656  25.5831438  24.1206804  22.6036937  26.4426164  23.2495874
  22.0734736  25.6445655  25.2884675  22.1992684  24.9132325  25.9736149
  21.1845752  26.7410217  25.6159511  21.7399818  27.6786496  25.5941187
  20.0347873  26.8323687  24.6183199  19.4637543  25.9040721  24.6352574
  19.3837726  27.6637816  24.8885654  20.4338498  26.9946348  23.6170616
  20.5838298  26.5637800  27.0030972  20.8726413  25.5846714  27.6874761
  19.7447917  27.5159902  27.4172662  19.5382296  28.3025256  26.8182724
  19.1076804  27.4625436  28.7175872  18.5045499  26.5575345  28.7903286
  20.1438086  27.4488835  29.8364599  20.7859713  26.5749537  29.7270381
  20.7496805  28.3533680  29.7823580  19.4346027  27.3924532  31.1853361
  18.7925610  28.2663563  31.2956846  18.8288535  26.4879414  31.2403670
  20.4365197  27.3772650  32.3309434  21.6439788  27.4089644  32.1040571
  19.9317769  27.3285496  33.5658867  20.5531881  27.3164688  34.3620046
  18.9308105  27.3039993  33.6984196  18.2041891  28.6679113  28.9350181
  18.0904150  29.5273826  28.0639240  17.5601981  28.7293337  30.1028057
  17.6859946  27.9980018  30.7879541  16.6712983  29.8257890  30.4302886
  16.6395723  30.5293754  29.5983870  15.6694795  29.4388093  30.6165851
  17.0352251  30.3351576  31.3225896  14.5536880  16.2497938  41.7491057
  14.2188248  16.9274860  41.3135279  15.0663750  15.8603249  41.1607928
  14.5802461  16.2922516  41.5977848  14.7268931  13.3875650  40.5944003
  15.1420079  13.0560674  39.9028499  13.8960860  13.1544553  40.4664140
  14.6656940  13.3046906  40.4734850  17.4202321   9.6386210  39.7805205
  17.3382484   9.7088397  40.6460192  18.0582041  10.2015954  39.5888945
  17.5022158   9.7325181  39.8795154  20.6152885  12.2942761  42.3140841
  20.2359693  11.5079899  42.3070130  19.9519130  12.8429618  42.1712485
  20.4611359  12.2587585  42.2921638  15.9618453  12.8768464  38.1329616
  16.7291438  12.9368589  37.7235468  15.5149762  12.3048906  37.6485935
  16.0091881  12.8005040  38.0007327  18.8612983  14.5388252  42.6492526
  18.9432821  15.3455239  42.3253977  19.3462726  14.5584212  43.3733300
  18.9450141  14.6608915  42.7079425  16.3561755  13.1124057  42.9830070
  17.0795954  13.5782170  42.8394644  15.9162346  13.1797667  42.2327667
  16.3977447  13.1907894  42.8514852  16.6165605  17.1744762  43.1428131
  15.8994915  17.0005624  42.6775369  17.2672342  16.9397334  42.6103617
  16.6067455  17.1140555  42.9957349  22.9985904  12.1448573  43.7084987
  23.3819509  12.8939929  43.9383084  22.2030017  12.3914392  43.4496976
  22.9379686  12.2918267  43.7042560  32.4903679  22.7219508  45.8015348
  32.4597683  23.5764144  45.9733617  33.0885028  22.4214800  46.3601491
  32.5740837  22.8036004  45.9090150  25.6903364  21.8095159  50.5568278
  24.8341259  21.9703657  50.6077395  25.7371018  20.9387223  50.5773339
  25.5702475  21.7045961  50.5674344  20.0744504  31.3457877  46.3205510
  19.3227403  30.9673415  46.0921555  20.5230515  31.3776310  45.5724320
  20.0294170  31.2943484  46.1763012  25.5269463  31.7683246  41.7491057
  25.1920832  32.4460168  41.3135279  26.0396334  31.3788557  41.1607928
  25.5535045  31.8107824  41.5977848  21.6529260  31.3576269  48.5868282
  21.7539623  30.5476623  48.8965410  21.0571005  31.2633215  47.9567961
  21.5801798  31.2241297  48.5394520  30.3120254  25.2971810  44.0733657
  30.1959780  26.0479496  44.5025795  31.1076140  25.0395763  44.3229744
  30.4124843  25.3706657  44.1737749  14.8494304  27.3796555  48.2120616
  14.6144489  26.5464208  48.1052884  14.9879945  27.6601221  47.3981817
  14.8349967  27.2980059  48.0762971  22.1950579  29.2865833  45.3603000
  22.5166420  29.8271040  44.7564308  22.8422676  28.7162604  45.4925290
  22.3376634  29.2825008  45.2910035  24.2452287  21.2881828  45.4437387
  24.9432452  21.4669955  45.9358850  24.5604620  20.7652167  44.8207776
  24.3947624  21.2375600  45.4239397  24.4340223  27.6752273  45.4317178
  24.8733858  27.0669373  45.8771951  24.2844885  27.2959646  44.6602643
  24.4761688  27.5290744  45.3836345  28.0349559  26.0279454  42.3847947
  27.9500854  26.8840421  42.5297516  28.5233942  25.7523778  43.0530106
  28.0938456  26.1136775  42.5050029  29.6255559  12.6459747  47.7708272
  29.3109000  13.3363226  48.2028694  29.1082500  12.5904529  47.0693772
  29.5020029  12.7394636  47.7305221  28.9667992  22.6464248  43.8845682
  28.4379464  22.8623882  44.5442989  29.4893012  23.3400387  43.8046652
  28.9656445  22.7807385  43.9701282  20.8567600  26.5427465  42.6853150
  20.2724815  27.0477496  43.0919014  20.4537695  26.3169852  41.9449742
  20.7106904  26.5835713  42.6358176  16.4111629  32.2582226  49.4876822
  15.9279207  32.9832716  49.4636405  17.2234947  32.5558356  49.5986980
  16.4602376  32.4084580  49.5004101  25.3144815  22.7893117  41.1622071
  25.5540818  22.9971101  40.3497414  25.6360656  21.9850626  41.2711015
  25.3981972  22.7007218  41.0582624  20.6235105  14.7186513  45.0081609
  21.3781073  15.0864830  44.7698659  20.4462639  15.0926067  45.7760788
  20.7089583  14.8284701  45.0866497  18.9792169  17.1256832  41.7059722
  18.7967743  17.3428713  40.8800715  19.8417782  17.2395844  41.7618336
  19.0796759  17.1746730  41.5914209  18.5906601  28.9644754  49.1482710
  19.4295501  29.1967687  49.1956471  18.6218371  28.0949065  49.0789745
  18.7188319  28.8701700  49.1447354  24.6591889  14.1283242  44.7408746
  25.3878049  13.9499197  44.2946902  24.7486782  14.9701322  44.9515924
  24.7798551  14.2267121  44.7062263  28.6400189  25.0636630  48.6441040
  29.3957704  25.4968144  48.6829948  28.7462514  24.4141400  49.2175676
  28.7670360  25.0314114  48.7339065  18.5254196  20.4031004  40.2182195
  17.8112374  20.1169184  40.6304627  19.0098165  20.7427630  40.8588582
  18.4913560  20.4112654  40.3737830  25.7001514  28.9060958  40.5944003
  26.1152663  28.5745982  39.9028499  24.8693444  28.6729861  40.4664140
  25.6389523  28.8232214  40.4734850  15.0289863  26.3904699  50.8842181
  14.8465436  26.3651585  50.0314473  15.7639532  26.8603637  50.9231090
  15.1103927  26.4566062  50.7640100  32.9279994  25.4657875  45.8644672
  33.2588211  25.9985515  45.2584767  33.5013082  25.5196763  46.5206623
  33.0613673  25.5527444  45.8722454  28.1411883  23.3122778  46.5468253
  28.2358738  24.0512072  47.0007878  27.5170727  22.8840253  46.9802817
  28.0620913  23.3584099  46.6776400  28.3934905  25.1571518  39.7805205
  28.3115067  25.2273705  40.6460192  29.0314625  25.7201262  39.5888945
  28.4754742  25.2510489  39.8795154  21.7528076  24.9232256  49.2479731
  21.4947320  24.0903991  49.2211030  21.8076559  25.1489869  48.4072231
  21.7227854  24.8330027  49.1199868  26.8329126  17.0260706  49.3483823
  26.1285453  16.5369892  49.5067743  26.8814100  17.0383181  48.4772268
  26.7359177  16.9550354  49.2423163  20.7262788  22.4770018  49.7344626
  20.1512379  22.6362187  50.3708587  20.3498464  21.8405427  49.2713076
  20.5865600  22.4067831  49.7599184  34.0359346  20.7068372  47.3684834
  33.7795910  19.8948314  47.1782717  34.8788660  20.7145939  47.1415021
  34.1225371  20.5880370  47.3069651  25.4975015  25.1791972  42.7913811
  26.3115654  25.4706865  42.6796582  25.4334156  24.5251834  42.2172104
  25.6077754  25.1257167  42.6902648  21.3682923  28.6513489  47.9186123
  22.0056870  28.4125237  48.4637916  21.7937995  28.8550648  47.1839284
  21.5259089  28.6464500  47.8903280  22.0085738  23.8715779  42.2561012
  22.3930891  23.6523486  43.0077558  21.7597358  24.6978725  42.3862089
  22.0287811  23.9613926  42.3862089  17.5110152  29.4743775  46.6274353
  16.6848269  29.7205512  46.5008632  17.5722143  29.3955856  47.4936411
  17.3984319  29.4988724  46.7363297  22.2908981  32.0920655  44.3293383
  22.5807279  31.7009637  43.6052609  23.0212462  32.2737360  44.7698658
  22.4415865  32.0614469  44.2876190  20.2314896  34.0688038  47.3953532
  20.0115192  33.7785392  48.1880199  20.0109418  33.4102993  46.8671445
  20.1662490  33.9287746  47.4342441  19.1431843  26.1561354  49.6609234
  18.8545092  25.5298825  50.1954961  20.0115192  26.0981642  49.7273915
  19.2292095  26.0548898  49.7500189  29.9309741  21.2996137  49.9791216
  29.5874507  20.5786473  50.3298466  30.0302784  21.0909989  49.1369574
  29.8951784  21.1620341  49.9062896  22.3982852  35.4417428  46.1784225
  23.0506910  34.9093870  46.4075251  21.7008461  35.0886080  46.5652099
  22.3913570  35.3106951  46.2696393  19.3464117  27.7956605  45.5851599
  20.1010085  28.1769644  45.7987062  18.7534730  28.2467749  46.0398296
  19.3700830  27.9185433  45.6834478  30.3922770  27.7621842  45.5215204
  30.9580803  28.4215051  45.4373747  29.7450674  28.1071540  45.9931606
  30.3801527  27.9103783  45.5787961  20.6662343  28.9665167  50.9591715
  20.1443097  29.1065458  51.6443579  21.0536364  28.2075831  51.1493832
  20.6466044  28.8750690  51.0892791  17.6553527  19.0170975  45.0286669
  17.3678323  18.6472246  44.2918617  18.3423996  19.4865831  44.7670374
  17.7142425  19.0317945  44.8801745  26.8629348  30.7060626  44.9452283
  26.6216024  29.9728486  44.5379348  27.0430681  31.2547483  44.2918617
  26.8536972  30.6783017  44.7882506  22.0928669  25.9969186  46.3573206
  21.8971452  26.6043920  45.7633509  22.3163015  25.3037130  45.8764880
  22.0963310  25.9846711  46.1989286  20.4907199  22.8823923  46.4754074
  21.2129851  23.0465082  46.0157880  20.0115192  23.6033588  46.3693414
  20.5270930  23.0122153  46.3919688  28.4500707  19.2187722  51.8550759
  27.6111807  19.2449001  51.6189022  28.5205074  19.8658458  52.4356106
  28.3369100  19.3183848  51.9059876  26.8969985  16.1173099  46.5878375
  27.5996338  15.9180848  46.1098333  26.6314174  15.3449042  46.8947218
  26.9616617  15.9736065  46.5623816  15.2281722  19.7952188  45.8771950
  15.3297859  20.5978349  46.2052926  16.0237609  19.5939524  45.5795031
  15.3609628  19.8838086  45.8807306  26.1984047  21.7466456  47.7637560
  25.9518761  21.6662207  48.5974349  26.5269170  20.9619924  47.5700088
  26.2105290  21.6192721  47.8585083  31.5885468  27.8128069  42.3140841
  31.2092277  27.0265207  42.3070130  30.9251714  28.3614926  42.1712485
  31.4343943  27.7772893  42.2921638  24.4132376  31.3641588  46.1529667
  25.1782267  31.0951232  45.8312331  24.3110466  30.8791599  46.8699730
  24.5113872  31.2531153  46.2109494  26.9351037  28.3953772  38.1329616
  27.7024022  28.4553897  37.7235468  26.4882346  27.8234213  37.6485935
  26.9824464  28.3190348  38.0007327  29.8345567  30.0573560  42.6492526
  29.9165404  30.8640546  42.3253977  30.3195309  30.0769519  43.3733300
  29.9182725  30.1794223  42.7079425  23.6442070  24.7358396  51.3162604
  23.2204319  24.9362895  50.5801623  23.4686925  23.8887244  51.4286904
  23.5552951  24.6407178  51.2236295  18.9324515  25.2310448  46.7490577
  19.0889134  25.1657250  47.6046569  19.2725108  26.0059000  46.5369257
  19.0057750  25.3359646  46.8445171  25.4703660  24.6068331  45.6183940
  26.0119205  24.1038712  46.0822561  25.7850219  24.5533526  44.8073425
  25.5968057  24.5247752  45.5667752  23.6390110  29.9985683  42.9023968
  23.7082930  29.1400221  43.0416969  24.4178565  30.2157564  42.5742993
  23.7642960  29.9038547  42.8741125  15.5058777  22.4145398  47.0651344
  15.8857742  22.8329943  46.4011611  14.9314142  22.9958854  47.3720187
  15.4770102  22.5623257  47.0128085  28.1937272  28.9873373  47.0566492
  27.8351927  29.1588016  47.8330524  27.7075983  29.4486579  46.4994491
  28.0695969  29.0812344  47.0891761  22.9825637  24.6672538  39.5966726
  23.2718162  25.4437421  39.8710301  23.0697436  24.1561270  40.2981226
  23.0379894  24.7064457  39.7409224  22.0172340  19.2187722  45.5109138
  22.2932075  18.5006634  45.0986705  22.6171010  19.8172642  45.3030244
  22.1465605  19.2008093  45.4189899  31.5163780  15.1338398  48.6858234
  30.9038093  15.6208800  49.0711965  31.6127955  14.4581889  49.2295885
  31.4401677  15.1056707  48.8237092  25.5182861  16.8901239  43.7855733
  25.9726607  17.0611800  44.5103577  25.9922907  16.2769350  43.3853509
  25.6551181  16.8252124  43.8329494  22.8595881  23.5943774  44.8900740
  23.6037926  23.9818050  45.1283690  23.0056577  22.7501199  45.0541228
  22.9906466  23.5274246  44.9494710  27.7757256  20.0605801  43.8520413
  27.2480275  20.1434545  43.1626122  28.2352964  20.8023673  43.8485058
  27.7659107  20.1826464  43.7495108  34.1115674  21.0073080  50.1530699
  33.8725444  20.9668914  49.3151484  34.2749575  21.8544232  50.2796420
  34.1005978  21.1265165  50.0484181  19.7690321  18.3308321  38.8761308
  19.4203126  18.9828046  39.3392858  19.2886767  18.3165434  38.1485180
  19.6460565  18.4251375  38.8372400  27.3294339  28.6309365  42.9830070
  28.0528538  29.0967478  42.8394644  26.8894930  28.6982975  42.2327667
  27.3710031  28.7093202  42.8514852  20.1414230  20.9566851  44.3887353
  20.2817191  21.4539316  45.0915994  20.6396763  20.2553146  44.5301567
  20.2355311  20.9268830  44.5138932  20.1714453  21.8233963  41.7179930
  20.8059532  22.4194388  41.6529392  20.2540063  21.5237420  42.5325800
  20.2771004  21.8674871  41.8283016  21.7493435  17.7547938  41.6925372
  22.0709276  17.2751020  41.0384634  22.0120379  18.5647584  41.5016183
  21.8359461  17.8037836  41.5680864  16.6767440  24.0201803  44.9869476
  17.1859670  24.6166311  45.3680781  17.1501713  23.7527777  44.3045895
  16.8210816  24.0687619  44.9423999  27.5898188  32.6930070  43.1428131
  26.8727498  32.5190932  42.6775369  28.2404926  32.4582642  42.6103617
  27.5800039  32.6325862  42.9957349  30.1746160  21.5694658  46.8869436
  29.5037350  22.1124361  46.7582502  30.8685910  22.0389514  46.6451131
  30.1775027  21.7192930  46.8324964  30.3374287  18.0250542  49.7959810
  30.6901897  17.5980265  50.4705608  29.4789089  17.9401386  49.9260886
  30.2623732  17.9495283  49.9154820  19.0357972  20.6558062  47.8542656
  18.3169961  21.0722194  48.1215520  19.4070334  21.2212301  47.3034294
  18.9849904  20.8007343  47.8125463  24.8104547  19.6956062  43.1916036
  24.2169386  20.0173058  42.6400603  24.8479824  18.8497157  42.9837142
  24.7278936  19.6180390  43.0798807  27.6862363  19.6535566  46.6217786
  27.4576056  19.6768268  45.7796144  27.9460439  18.8293033  46.7412796
  27.6908551  19.5351646  46.5142984  20.7407126  18.1912113  47.9171982
  21.2164492  18.5529192  47.2822163  20.2395725  18.8468580  48.1972124
  20.7372485  18.3406301  47.8648723  33.9718487  27.6633881  43.7084987
  34.3552093  28.4125237  43.9383084  33.1762600  27.9099700  43.4496976
  33.9112269  27.8103574  43.7042560  22.7833779  20.3353312  41.2845366
  23.1632744  20.3532941  40.4996480  22.0426375  20.7807301  41.1636213
  22.7302617  20.4035087  41.1508934  30.4119069  18.6435504  46.8720944
  30.4113296  18.4884160  47.7305221  30.2075249  19.4898491  46.8162330
  30.3818847  18.7456124  46.9908884  28.1359921  23.3233005  50.5257151
  28.6313587  22.6056000  50.4861171  27.3259697  23.0203803  50.4111638
  28.0903815  23.1730652  50.5030877  23.5818533  27.1730819  42.6754156
  22.7729856  26.8497492  42.6287465  24.0893442  26.4664041  42.6082404
  23.5368200  27.0212135  42.6584450  14.2108810  24.6003012  48.4001520
  13.3454330  24.5888702  48.2884291  14.3107626  24.4133235  49.2472659
  14.0982977  24.5709073  48.5090464  22.7752949  16.5614840  43.9672997
  23.5968644  16.7313153  43.7254692  22.3122600  16.7162101  43.2439295
  22.8284112  16.6096573  43.8244641  17.1778840  28.3174019  51.6210234
  17.7823698  28.2769853  50.9924055  16.9706153  29.1645171  51.6514290
  17.2367737  28.4362021  51.5326350  31.5967688  30.2371821  45.0081609
  32.3513656  30.6050138  44.7698659  31.4195223  30.6111375  45.7760788
  31.6822167  30.3470009  45.0866497  29.9524753  32.6442140  41.7059722
  29.7700326  32.8614020  40.8800715  30.8150366  32.7581152  41.7618336
  30.0529343  32.6932038  41.5914209  29.4986780  35.9216312  40.2182195
  28.7844957  35.6354492  40.6304627  29.9830749  36.2612938  40.8588582
  29.4646143  35.9297962  40.3737830  30.7422905  33.8493629  38.8761308
  30.3935709  34.5013354  39.3392858  30.2619351  33.8350742  38.1485180
  30.6193149  33.9436683  38.8372400  31.1447036  37.3419270  41.7179930
  31.7792116  37.9379695  41.6529392  31.2272647  37.0422728  42.5325800
  31.2503587  37.3860179  41.8283016  32.7226019  33.2733246  41.6925372
  33.0441860  32.7936328  41.0384634  32.9852963  34.0832892  41.5016183
  32.8092044  33.3223144  41.5680864  33.7566362  35.8538620  41.2845366
  34.1365327  35.8718249  40.4996480  33.0158958  36.2992609  41.1636213
  33.7035200  35.9220395  41.1508934  33.7485533  32.0800148  43.9672997
  34.5701227  32.2498461  43.7254692  33.2855184  32.2347409  43.2439295
  33.8016695  32.1281881  43.8244641  19.7695328   8.2836008  33.2545556
  19.0178227   7.9051546  33.0261601  20.2181339   8.3154441  32.5064367
  19.7244994   8.2321615  33.1103059  25.2220287   8.7061377  28.6831103
  24.8871656   9.3838299  28.2475326  25.7347158   8.3166689  28.0947975
  25.2485869   8.7485955  28.5317895  24.7624579  10.6575646  34.6242215
  25.1463958  11.2262545  34.0846990  24.6983720   9.9325156  34.1448031
  24.8098006  10.6351109  34.4736078  28.2306009   0.8065334  40.1339976
  28.7761969   1.4850420  40.1933946  28.1722885   0.6652795  39.2741558
  28.3021923   0.8857335  40.0152037  21.3480084   8.2954400  35.5208329
  21.4490447   7.4854754  35.8305457  20.7521829   8.2011346  34.8908007
  21.2752622   8.1619428  35.4734567  30.0071078   2.2349941  31.0073704
  29.8910603   2.9857627  31.4365842  30.8026964   1.9773894  31.2569791
  30.1075667   2.3084788  31.1077796  21.1880823  13.2131989  36.9223185
  21.8318279  13.6545153  37.3119343  21.5137079  12.4085415  36.8353444
  21.3312652  13.1597184  36.9668662  14.5445128   4.3174686  35.1460663
  14.3095312   3.4842339  35.0392931  14.6830769   4.5979352  34.3321863
  14.5300790   4.2358190  35.0103017  21.8901403   6.2243964  32.2943047
  22.2117244   6.7649171  31.6904355  22.5373500   5.6540735  32.4265336
  22.0327458   6.2203139  32.2250082  24.1291046   4.6130404  32.3657225
  24.5684682   4.0047504  32.8111998  23.9795709   4.2337777  31.5942690
  24.1712512   4.4668875  32.3176392  24.1348781   6.0529322  39.2182943
  24.4172024   5.2580727  38.9969699  24.8634941   6.5309909  39.2388004
  24.2838345   6.0063918  39.1885958  27.7300383   2.9657585  29.3187994
  27.6451678   3.8218552  29.4637563  28.2184766   2.6901909  29.9870153
  27.7889280   3.0514907  29.4390076  34.1166869   5.1588684  36.1918774
  33.2864572   5.3699327  36.3552190  34.0676121   4.3325738  35.9161057
  33.9873605   5.0678290  36.1756139  20.5518424   3.4805596  29.6193197
  19.9675639   3.9855628  30.0259061  20.1488519   3.2547983  28.8789789
  20.4057728   3.5213844  29.5698222  16.1062453   9.1960357  36.4216869
  15.6230031   9.9210847  36.3976452  16.9185771   9.4936487  36.5327026
  16.1553200   9.3462711  36.4344148  22.1776607   7.9892538  39.0266683
  21.6603548   7.6299953  38.4227991  22.8750998   7.4654712  39.0372749
  22.2042188   7.8590226  38.9396942  18.9606650   9.7116533  36.5737148
  19.6627229   9.1968522  36.6309905  18.8804133  10.0390685  37.3784024
  19.0530410   9.6830759  36.7009941  18.2857425   5.9022885  36.0822757
  19.1246325   6.1345818  36.1296518  18.3169195   5.0327197  36.0129792
  18.4139143   5.8079832  36.0787401  28.3351013   2.0014761  35.5781086
  29.0908528   2.4346275  35.6169995  28.4413338   1.3519531  36.1515722
  28.4621184   1.9692245  35.6679112  31.3731184   5.8288038  36.3283489
  30.9366416   5.8324781  37.0842461  31.0394100   6.5093537  35.8963067
  31.2593804   5.9300494  36.3764322  18.2205020  -2.6590864  27.1522242
  17.5063198  -2.9452685  27.5644674  18.7048989  -2.3194239  27.7928629
  18.1864384  -2.6509215  27.3077877  26.1030651   9.7806473  41.2993095
  25.3045897   9.5405973  41.5566964  26.5516663   9.8320866  42.0460143
  26.0505263   9.7528864  41.4478020  25.3952338   5.8439090  27.5284050
  25.8103487   5.5124113  26.8368546  24.5644268   5.6107992  27.4004187
  25.3340347   5.7610345  27.4074897  30.7940361   3.5634341  34.9615115
  31.0295950   3.7079539  34.1341966  30.9429925   4.3276749  35.3546629
  30.8506165   3.6973395  34.8978719  32.6230818   2.4036006  32.7984719
  32.9539035   2.9363647  32.1924814  33.1963906   2.4574894  33.4546670
  32.7564497   2.4905575  32.8062501  28.0885728   2.0949649  26.7145251
  28.0065891   2.1651836  27.5800238  28.7265449   2.6579393  26.5228992
  28.1705566   2.1888620  26.8135201  21.4478900   1.8610387  36.1819778
  21.1898144   1.0282122  36.1551077  21.5027382   2.0868000  35.3412278
  21.4178677   1.7708158  36.0539914  20.4213612  -0.5851851  36.6684672
  19.8463203  -0.4259682  37.3048633  20.0449288  -1.2216442  36.2053123
  20.2816424  -0.6554038  36.6939231  25.1925839   2.1170103  29.7253858
  26.0066478   2.4084996  29.6136629  25.1284980   1.4629966  29.1512151
  25.3028578   2.0635298  29.6242695  31.4135329   4.7996099  44.1383433
  31.1773966   3.9684164  44.0195494  32.0578558   4.7481707  44.7238278
  31.4730000   4.6693787  44.2069327  21.0633747   5.5891621  34.8526170
  21.7007694   5.3503368  35.3977963  21.4888819   5.7928780  34.1179330
  21.2209913   5.5842631  34.8243327  15.7546389   7.8279957  38.7360474
  15.7950535   8.0994808  37.9080253  16.3140913   8.3521865  39.1518262
  15.8429735   7.9455712  38.6752362  21.7036562   0.8093910  29.1901059
  22.0881715   0.5901617  29.9417604  21.4548182   1.6356856  29.3202136
  21.7238635   0.8992057  29.3202136  32.4371749   4.5840548  40.2011728
  32.1317567   5.3168605  40.5625044  31.7177965   4.1778478  39.9204514
  32.2859092   4.6322281  40.2124865  23.4455219   6.0664043  36.5319956
  23.5194227   5.9039215  37.3861806  24.2624725   6.2554233  36.2880438
  23.5771578   6.0700786  36.6217982  17.2060976   6.4121906  33.5614400
  16.3799093   6.6583643  33.4348678  17.2672967   6.3333987  34.4276458
  17.0935143   6.4366855  33.6703344  21.9859805   9.0298786  31.2633430
  22.2758103   8.6387768  30.5392656  22.7163285   9.2115491  31.7038705
  22.1366689   8.9992600  31.2216237  19.9265720  11.0066169  34.3293579
  19.7066016  10.7163523  35.1220246  19.7060242  10.3481124  33.8011492
  19.8613314  10.8665877  34.3682488  18.8382667   3.0939485  36.5949281
  18.5495916   2.4676957  37.1295008  19.7066015   3.0359773  36.6613961
  18.9242919   2.9927030  36.6840236  22.0933676  12.3795559  33.1124272
  22.7457734  11.8472001  33.3415298  21.3959285  12.0264211  33.4992146
  22.0864394  12.2485082  33.2036439  19.0414941   4.7334736  32.5191646
  19.7960909   5.1147775  32.7327109  18.4485553   5.1845880  32.9738343
  19.0651654   4.8563564  32.6174524  30.0873594   4.6999973  32.4555251
  30.6531627   5.3593183  32.3713794  29.4401498   5.0449671  32.9271653
  30.0752351   4.8481914  32.5128007  20.3613167   5.9043298  37.8931761
  19.8393921   6.0443589  38.5783626  20.7487188   5.1453962  38.0833879
  20.3416868   5.8128822  38.0232838  26.5580172   7.6438757  31.8792330
  26.3166848   6.9106618  31.4719395  26.7381505   8.1925614  31.2258663
  26.5487796   7.6161148  31.7222553  21.7879493   2.9347317  33.2913252
  21.5922276   3.5422051  32.6973555  22.0113839   2.2415261  32.8104926
  21.7914134   2.9224842  33.1329333  20.1858023  -0.1797945  33.4094121
  20.9080675  -0.0156787  32.9497927  19.7066016   0.5411719  33.3033461
  20.2221754  -0.0499716  33.3259735  29.7882919   5.3927947  38.4864388
  29.6497279   6.0908992  38.9913131  29.0082917   5.2376603  38.1300570
  29.6526146   5.4728113  38.5090662  20.9259653   9.6104078  40.9761617
  21.0749216   9.0506994  40.3235021  21.7059655   9.6896079  41.3594136
  21.0633746   9.5389643  40.9358566  31.2836292   4.7506200  29.2480887
  30.9043101   3.9643338  29.2410177  30.6202538   5.2993057  29.1052532
  31.1294767   4.7151024  29.2261684  23.4512953   9.7818721  42.2546108
  23.3756624   9.1127531  42.8096896  23.3802813  10.4836509  42.7686774
  23.4293560   9.7863628  42.4122956  24.1083200   8.3019719  33.0869714
  24.8733091   8.0329363  32.7652378  24.0061290   7.8169730  33.8039776
  24.2064696   8.1909284  33.1449541  26.6301861   5.3331903  25.0669663
  27.3974846   5.3932028  24.6575515  26.1833170   4.7612345  24.5825982
  26.6775288   5.2568479  24.9347373  27.5279656   4.1386559  37.3522395
  26.8524658   3.9071791  37.8535782  27.5372032   3.5307742  36.7264500
  27.4298161   4.0145484  37.3338548  29.5296391   6.9951691  29.5832573
  29.6116228   7.8018678  29.2594024  30.0146133   7.0147651  30.3073347
  29.6133549   7.1172354  29.6419472  23.3392894   1.6736527  38.2502651
  22.9155143   1.8741026  37.5141670  23.1637749   0.8265375  38.3626951
  23.2503775   1.5785309  38.1576341  22.8404588  13.1887040  40.7124109
  23.3300518  12.4897830  40.5299773  22.2688820  12.8910910  41.3000166
  22.8289118  13.0413264  40.7725149  18.6275339   2.1688579  33.6830624
  18.7839958   2.1035382  34.5386616  18.9675932   2.9437131  33.4709303
  18.7008574   2.2737777  33.7785218  25.1654484   1.5446462  32.5523987
  25.7070029   1.0416843  33.0162608  25.4801043   1.4911657  31.7413472
  25.2918881   1.4625883  32.5007799  23.3340934   6.9363814  29.8364015
  23.4033754   6.0778352  29.9757015  24.1129389   7.1535695  29.5083040
  23.4593784   6.8416678  29.8081172  27.7248421   9.3601515  34.0500508
  27.3328213   9.0568230  33.3323374  27.8801493  10.1970605  33.8605462
  27.6902011   9.4385352  33.9157005  15.2009601  -0.6476471  33.9991391
  15.5808566  -0.2291926  33.3351658  14.6264965  -0.0663015  34.3060234
  15.1720926  -0.4998612  33.9468132  27.8888096   5.9251504  33.9906539
  27.5302751   6.0966147  34.7670571  27.4026807   6.3864710  33.4334537
  27.7646793   6.0190475  34.0231808  22.6776461   1.6050669  26.5306773
  22.9668986   2.3815552  26.8050348  22.7648260   1.0939401  27.2321273
  22.7330718   1.6442588  26.6749271  29.0492835   6.8155400  44.9373740
  29.6872556   6.3215596  44.6036196  28.4066927   6.7432800  44.3525967
  29.0487062   6.7314409  44.8016095  29.1047092   7.5075208  41.5779096
  29.8939470   7.1564273  41.6981178  29.2790690   8.3211597  41.3155730
  29.2467373   7.5761065  41.5566964  34.8539632   3.1433466  41.0475796
  34.9122755   3.5920115  41.7935773  34.2206099   3.5532279  40.6105876
  34.7690927   3.2707201  41.0928345  28.4938726   8.7637008  37.4830543
  28.2958415   9.2527822  36.7886754  27.8726437   8.9678249  38.0614676
  28.3726291   8.8653546  37.4653766  22.5546705   0.5321905  31.8240787
  23.2988750   0.9196181  32.0623737  22.7007401  -0.3120670  31.9881275
  22.6857290   0.4652378  31.8834757  30.4112528   2.3301160  43.0175791
  31.1346727   1.8773687  42.8386811  30.1462491   2.6105826  42.2348119
  30.4793802   2.3052129  42.8754506  27.0245163   5.5687496  29.9170117
  27.7479362   6.0345609  29.7734690  26.5845754   5.6361106  29.1667714
  27.0660855   5.6471333  29.7854899  25.4327615   3.4989308  38.9015105
  25.0055223   2.8739027  38.4680540  25.4252559   3.2164230  39.7274112
  25.3686756   3.3642089  38.9594932  19.8665276  -1.2387906  28.6519977
  20.5010356  -0.6427481  28.5869438  19.9490887  -1.5384449  29.4665847
  19.9721827  -1.1946998  28.7623063  24.6741232   5.7144943  42.1464235
  24.1666323   6.2680790  42.5904865  24.3767878   5.7753233  41.3283009
  24.5546117   5.8051255  42.0912691  16.3718264   0.9579934  31.9209523
  16.8810494   1.5544442  32.3020828  16.8452537   0.6905908  31.2385942
  16.5161640   1.0065750  31.8764045  27.2849012   9.6308201  30.0768178
  26.5678322   9.4569063  29.6115416  27.9355750   9.3960773  29.5443664
  27.2750863   9.5703994  29.9297396  23.9183717  10.6469502  39.0521242
  23.6949372   9.8888331  39.4205268  23.4293561  10.6767523  38.3301681
  23.8127166  10.5391726  38.9997983  18.7308796  -2.4063807  34.7882703
  18.0120785  -1.9899674  35.0555567  19.1021158  -1.8409568  34.2374341
  18.6800728  -2.2614526  34.7465510  22.5662174  10.8669960  36.5058326
  22.1522573  10.2044090  36.1162168  23.2509549  11.0147819  35.9854020
  22.6060546  10.7910618  36.3714823  25.9327468  10.0260045  37.2581943
  25.5343752  10.1362315  36.4902763  25.3178688  10.2342111  37.8408503
  25.7826358  10.0733613  37.2313242  33.6669311   4.6012012  30.6425033
  34.0502917   5.3503368  30.8723130  32.8713424   4.8477831  30.3837022
  33.6063093   4.7481706  30.6382607  23.2769357   4.1108950  29.6094202
  22.4680680   3.7875623  29.5627512  23.7844266   3.4042172  29.5422451
  23.2319024   3.9590266  29.5924497  29.8962564   3.0114824  40.1474327
  30.3217636   2.4889246  39.5944752  29.5319484   3.6095661  39.6262950
  29.9049167   3.0225051  39.9883336  19.5316644  11.3079041  38.9071672
  19.8463203  12.1215430  38.9149454  19.9410057  10.9229260  39.5753831
  19.6384742  11.3707744  39.0075764  26.4841164   6.7249088  36.4775484
  26.9552342   7.4389351  36.6465469  26.8201342   6.1247838  37.0135354
  26.6036279   6.7420553  36.5807860  27.1215110   6.5167022  43.2403177
  26.5736056   5.8924906  42.9723242  27.5828139   6.7061294  42.5247256
  27.1082319   6.4526073  43.0953608  16.8729664   5.2552150  38.5550281
  17.4774521   5.2147984  37.9264101  16.6656977   6.1023302  38.5854336
  16.9318561   5.3740152  38.4666397  26.6873436   7.5218095  39.7712518
  27.5071810   7.3781061  40.0328813  26.4067514   8.1464294  40.3128956
  26.7670180   7.5928447  39.8900457  43.1587087  15.1782947  32.7355394
  43.1281091  16.0327583  32.9073664  43.7568435  14.8778239  33.2941538
  43.2424244  15.2599443  32.8430197  36.3586771  14.2658598  37.4908325
  35.5024667  14.4267096  37.5417442  36.4054425  13.3950662  37.5113386
  36.2385883  14.1609400  37.5014391  30.7427911  23.8021316  33.2545556
  29.9910811  23.4236854  33.0261601  31.1913923  23.8339749  32.5064367
  30.6977578  23.7506923  33.1103059  39.6680488  20.5345123  47.0968781
  40.3747255  20.0397154  47.2255715  39.8568423  20.9754205  46.3671439
  39.8008394  20.5263474  47.0077826  36.1952871  24.2246685  28.6831103
  35.8604239  24.9023607  28.2475326  36.7079741  23.8351996  28.0947975
  36.2218452  24.2671263  28.5317895  35.7357162  26.1760954  34.6242215
  36.1196542  26.7447852  34.0846990  35.6716304  25.4510464  34.1448031
  35.7830590  26.1536417  34.4736078  39.2038592  16.3250642  40.1339976
  39.7494552  17.0035728  40.1933946  39.1455469  16.1838103  39.2741558
  39.2754507  16.4042643  40.0152037  32.3212667  23.8139708  35.5208329
  32.4223030  23.0040062  35.8305457  31.7254413  23.7196654  34.8908007
  32.2485206  23.6804736  35.4734567  40.9803661  17.7535249  31.0073704
  40.8643187  18.5042935  31.4365842  41.7759548  17.4959202  31.2569791
  41.0808251  17.8270096  31.1077796  32.1613407  28.7317297  36.9223185
  32.8050862  29.1730461  37.3119343  32.4869662  27.9270723  36.8353444
  32.3045236  28.6782492  36.9668662  25.5177712  19.8359994  35.1460663
  25.2827896  19.0027647  35.0392931  25.6563352  20.1164660  34.3321863
  25.5033374  19.7543498  35.0103017  27.8167799  12.0045725  38.0444970
  27.1972831  11.4138372  37.8754985  27.7151663  12.5957160  37.4109293
  27.7105475  12.0049807  37.9249960  32.8633987  21.7429272  32.2943047
  33.1849828  22.2834479  31.6904355  33.5106083  21.1726043  32.4265336
  33.0060042  21.7388447  32.2250082  34.9135695  13.7445267  32.3777433
  35.6115859  13.9233394  32.8698897  35.2288027  13.2215606  31.7547823
  35.0631032  13.6939039  32.3579443  27.5436932  15.5498007  40.2888539
  27.4195629  16.1360452  40.9238358  28.1955217  15.0558202  40.5900814
  27.6210581  15.5636811  40.4274468  35.1023630  20.1315712  32.3657225
  35.5417266  19.5232812  32.8111998  34.9528293  19.7523085  31.5942690
  35.1445096  19.9854183  32.3176392  32.5695273  18.7259724  39.5676050
  33.2144276  18.2332167  39.2486999  32.8097050  18.8684510  40.3942129
  32.7005858  18.6737166  39.6425583  35.1081364  21.5714629  39.2182943
  35.3904607  20.7766035  38.9969699  35.8367525  22.0495217  39.2388004
  35.2570928  21.5249226  39.1885958  33.0862558   9.1137663  36.4598708
  32.7565888   9.5648807  35.7902407  32.4107560   9.0353827  37.0071714
  32.9372995   9.1688799  36.4421931  38.7032967  18.4842893  29.3187994
  38.6184262  19.3403860  29.4637563  39.1917350  18.2087217  29.9870153
  38.7621864  18.5700215  29.4390076  40.2938966   5.1023186  34.7048319
  39.9792407   5.7926665  35.1368741  39.7765908   5.0467969  34.0033819
  40.1703436   5.1958075  34.6645268  39.6351400  15.1027687  30.8185729
  39.1062871  15.3187321  31.4783035  40.1576420  15.7963826  30.7386698
  39.6339853  15.2370824  30.9041328  45.0899453  20.6773992  36.1918774
  44.2597156  20.8884635  36.3552190  45.0408705  19.8511046  35.9161057
  44.9606188  20.5863598  36.1756139  31.5251008  18.9990904  29.6193197
  30.9408223  19.5040935  30.0259061  31.1221103  18.7733291  28.8789789
  31.3790311  19.0399152  29.5698222  27.0795036  24.7145665  36.4216869
  26.5962615  25.4396155  36.3976452  27.8918355  25.0121795  36.5327026
  27.1285784  24.8648019  36.4344148  33.1509190  23.5077846  39.0266683
  32.6336132  23.1485261  38.4227991  33.8483582  22.9840020  39.0372749
  33.1774771  23.3775534  38.9396942  36.8072782  23.9572660  44.9882856
  36.8956128  23.7698800  45.8361067  37.2362495  23.3110089  44.5887703
  36.8834885  23.8335668  45.0554608  34.3743242  23.2403820  43.9700518
  33.8114077  22.8276430  44.4940180  35.1364266  23.1656726  44.3893662
  34.4037691  23.1681220  44.1093519  35.9828222  15.2456556  28.0962118
  36.2224226  15.4534540  27.2837461  36.3044063  14.4414065  28.2051062
  36.0665380  15.1570657  27.9922671  31.2918512   7.1749952  31.9421656
  32.0464480   7.5428269  31.7038706  31.1146047   7.5489506  32.7100835
  31.3772991   7.2848140  32.0206544  29.9339234  25.2301841  36.5737148
  30.6359813  24.7153830  36.6309905  29.8536717  25.5575992  37.3784024
  30.0262994  25.2016067  36.7009941  30.9818140  15.4677428  45.7017564
  31.1538644  15.3583323  46.5502845  31.5187498  16.1131833  45.4648756
  31.0863144  15.5469430  45.7922660  29.6475577   9.5820271  28.6399769
  29.4651150   9.7992152  27.8140761  30.5101190   9.6959284  28.6958383
  29.7480166   9.6310169  28.5254256  29.2590009  21.4208193  36.0822757
  30.0978908  21.6531126  36.1296518  29.2901778  20.5512504  36.0129792
  29.3871727  21.3265140  36.0787401  29.8842712  21.8409068  40.3836062
  30.4240937  21.6980199  41.0539434  29.2012658  22.2405819  40.7520088
  29.8634866  21.8788739  40.5370484  35.3275296   6.5846682  31.6748792
  36.0561457   6.4062636  31.2286949  35.4170189   7.4264761  31.8855971
  35.4481958   6.6830560  31.6402310  39.3083597  17.5200069  35.5781086
  40.0641112  17.9531583  35.6169995  39.4145921  16.8704839  36.1515722
  39.4353767  17.4877553  35.6679112  42.3463768  21.3473346  36.3283489
  41.9099000  21.3510089  37.0842461  42.0126683  22.0278845  35.8963067
  42.2326388  21.4485802  36.3764322  25.2879857  18.0609359  40.5370484
  25.0218272  17.2448476  40.6961474  25.3018421  18.1062515  39.6665999
  25.2504579  17.9466264  40.4323966  29.1937604  12.8594443  27.1522242
  28.4795781  12.5732623  27.5644674  29.6781573  13.1991069  27.7928629
  29.1596967  12.8676093  27.3077877  30.0378463  11.5987737  43.1837491
  29.3450260  11.1284717  43.4298223  30.6538791  11.3726042  43.7579198
  30.0262993  11.4954869  43.3046644  37.0763235  25.2991781  41.2993095
  36.2778481  25.0591281  41.5566964  37.5249246  25.3506174  42.0460143
  37.0237846  25.2714172  41.4478020  45.4808114  18.0654266  35.2203127
  46.1424548  17.5044935  35.1199035  44.8399526  17.5706297  35.5455818
  45.4836982  17.9090675  35.2535467  36.3684922  21.3624397  27.5284050
  36.7836070  21.0309421  26.8368546  35.5376852  21.1293300  27.4004187
  36.3072931  21.2795653  27.4074897  25.6973271  18.8468138  37.8182228
  25.5148844  18.8215024  36.9654520  26.4322940  19.3167076  37.8571137
  25.7787335  18.9129501  37.6980146  41.7672945  19.0819648  34.9615115
  42.0028534  19.2264847  34.1341966  41.9162509  19.8462056  35.3546629
  41.8238748  19.2158703  34.8978719  28.7619022  15.5653141  44.3264337
  29.4858995  15.5506172  44.8129231  28.8635159  16.2748497  43.8286305
  28.8837231  15.6677845  44.3243123  43.5963402  17.9221314  32.7984719
  43.9271619  18.4548955  32.1924814  44.1696490  17.9760202  33.4546670
  43.7297081  18.0090883  32.8062501  36.1363972  19.0452226  49.1913284
  35.3436953  19.3595738  49.3765903  36.2512899  19.2603694  48.3534068
  36.0359382  19.1236063  49.0951618  38.8095291  15.7686217  33.4808299
  38.9042145  16.5075511  33.9347925  38.1854134  15.3403693  33.9142864
  38.7304321  15.8147538  33.6116447  37.0647765  18.9472430  44.1298580
  37.6386626  18.3099674  44.2847144  36.9862568  18.9476512  43.2608238
  37.1380999  18.8537541  44.0244991  25.6644181  15.7261639  37.9681294
  26.2417684  15.5898090  38.6073540  24.9658243  15.2697423  38.2226879
  25.6465202  15.6383905  38.1003584  39.0618312  17.6134957  26.7145251
  38.9798475  17.6837144  27.5800238  39.6998033  18.1764701  26.5228992
  39.1438149  17.7073928  26.8135201  32.4211483  17.3795695  36.1819778
  32.1630728  16.5467430  36.1551077  32.4759966  17.6053308  35.3412278
  32.3911261  17.2893466  36.0539914  37.5012533   9.4824146  36.2823870
  36.7968860   8.9933331  36.4407789  37.5497508   9.4946620  35.4112315
  37.4042585   9.4113793  36.1763210  31.3946195  14.9333457  36.6684672
  30.8195787  15.0925626  37.3048633  31.0181872  14.2968866  36.2053123
  31.2549008  14.8631270  36.6939231  35.0619484  13.4056807  41.5277051
  34.6733917  12.9811024  40.8729242  34.3974182  13.6538956  42.0354077
  34.9066412  13.3795528  41.5064919  44.7042753  13.1631811  34.3024881
  44.4479318  12.3511753  34.1122764  45.5472067  13.1709378  34.0755068
  44.7908779  13.0443809  34.2409698  21.1403014  14.5773532  34.6829113
  21.2263266  14.2005400  35.4642643  21.7678812  14.2033978  34.2049071
  21.2459565  14.4659014  34.7274590  38.8845846   7.1031435  39.0401035
  39.2656357   6.4209606  39.4268909  38.0809130   6.8141037  38.8576700
  38.8222307   6.9598484  39.0705091  36.1658422  17.6355411  29.7253858
  36.9799061  17.9270304  29.6136629  36.1017564  16.9815274  29.1512151
  36.2761161  17.5820606  29.6242695  42.3867912  20.3181407  44.1383433
  42.1506550  19.4869472  44.0195494  43.0311141  20.2667014  44.7238278
  42.4462583  20.1879095  44.2069327  32.0366331  21.1076929  34.8526170
  32.6740277  20.8688676  35.3977963  32.4621402  21.3114088  34.1179330
  32.1942497  21.1027939  34.8243327  26.7278973  23.3465265  38.7360474
  26.7683118  23.6180116  37.9080253  27.2873497  23.8707173  39.1518262
  26.8162319  23.4641020  38.6752362  32.6769146  16.3279218  29.1901059
  33.0614298  16.1086925  29.9417604  32.4280766  17.1542164  29.3202136
  32.6971218  16.4177365  29.3202136  43.4104333  20.1025856  40.2011728
  43.1050150  20.8353913  40.5625044  42.6910549  19.6963786  39.9204514
  43.2591675  20.1507589  40.2124865  34.4187802  21.5849351  36.5319956
  34.4926811  21.4224523  37.3861806  35.2357309  21.7739541  36.2880438
  34.5504161  21.5886094  36.6217982  28.1793559  21.9307214  33.5614400
  27.3531677  22.1768951  33.4348678  28.2405550  21.8519295  34.4276458
  28.0667726  21.9552163  33.6703344  30.3969583   7.9976155  34.5209840
  29.5292008   8.0698755  34.5867449  30.6844787   8.7998234  34.7097815
  30.3109331   8.1270302  34.5584606  32.9592388  24.5484094  31.2633430
  33.2490687  24.1573076  30.5392656  33.6895869  24.7300799  31.7038705
  33.1099272  24.5177908  31.2216237  46.8964743  15.5163243  37.8026667
  47.4472664  14.8831312  38.0423759  46.8808858  16.0478636  38.4942171
  46.9749939  15.5012191  37.9405525  33.5487133  19.3501840  42.3486560
  33.0498827  20.0617608  42.4271448  34.3587358  19.6702507  42.3104722
  33.5943240  19.5028689  42.3543129  30.8998304  26.5251477  34.3293579
  30.6798599  26.2348831  35.1220246  30.6792826  25.8666432  33.8011492
  30.8345898  26.3851185  34.3682488  29.8115251  18.6124793  36.5949281
  29.5228500  17.9862264  37.1295008  30.6798599  18.5545081  36.6613961
  29.8975503  18.5112337  36.6840236  40.5993149  13.7559577  36.9131263
  40.2557915  13.0349912  37.2638512  40.6986191  13.5473428  36.0709621
  40.5635192  13.6183780  36.8402943  33.0666260  27.8980867  33.1124272
  33.7190318  27.3657309  33.3415298  32.3691868  27.5449519  33.4992146
  33.0596977  27.7670390  33.2036439  30.0147524  20.2520044  32.5191646
  30.7693492  20.6333083  32.7327109  29.4218137  20.7031188  32.9738343
  30.0384238  20.3748872  32.6174524  41.0606178  20.2185281  32.4555251
  41.6264210  20.8778491  32.3713794  40.4134081  20.5634979  32.9271653
  41.0484934  20.3667222  32.5128007  32.4754191  12.2082885  47.6448858
  31.6653967  12.5140664  47.5338701  32.9528878  12.9288467  47.7601442
  32.4257670  12.3597486  47.6455929  31.3345751  21.4228606  37.8931761
  30.8126504  21.5628897  38.5783626  31.7219771  20.6639270  38.0833879
  31.3149452  21.3314129  38.0232838  28.3236935  11.4734414  31.9626716
  28.0361731  11.1035685  31.2258663  29.0107403  11.9429270  31.7010421
  28.3825832  11.4881384  31.8141792  37.5312756  23.1624065  31.8792330
  37.2899432  22.4291926  31.4719395  37.7114089  23.7110922  31.2258663
  37.5220380  23.1346456  31.7222553  32.7612077  18.4532625  33.2913252
  32.5654859  19.0607359  32.6973555  32.9846422  17.7600569  32.8104926
  32.7646718  18.4410150  33.1329333  31.1590607  15.3387363  33.4094121
  31.8813258  15.5028521  32.9497927  30.6798599  16.0597027  33.3033461
  31.1954337  15.4685592  33.3259735  39.1184114  11.6751161  38.7890806
  38.2795215  11.7012440  38.5529069  39.1888481  12.3221897  39.3696152
  39.0052508  11.7747287  38.8399923  28.8098223  17.7445435  42.5148261
  29.3219320  18.0229688  41.8657020  28.5234566  18.4834729  42.8811074
  28.8433086  17.8947789  42.4738139  37.5653392   8.5736538  33.5218422
  38.2679745   8.3744287  33.0438380  37.2997581   7.8012481  33.8287265
  37.6300025   8.4299504  33.4963863  42.9941638  16.8819148  36.0752047
  42.9075613  17.0374574  36.9286826  42.5392118  17.5257224  35.7011453
  42.9144895  16.9994903  36.1459154  25.8965130  12.2515627  32.8111997
  25.9981266  13.0541788  33.1392973  26.6921016  12.0502963  32.5135078
  26.0293035  12.3401526  32.8147352  32.3281949   9.8371824  42.5749302
  32.1365146   9.8526958  43.4248726  33.1780545  10.0335498  42.5515957
  32.4257671   9.8686175  42.6972597  26.7128862  12.3662805  40.5533119
  26.5714354  11.5146746  40.6777627  26.9969425  12.4091466  39.7295325
  26.7336708  12.2462555  40.4500743  36.8667454  14.2029895  34.6977607
  36.6202168  14.1225646  35.5314396  37.1952577  13.4183363  34.5040134
  36.8788698  14.0756161  34.7925130  40.7615503  20.9113255  38.4864388
  40.6229862  21.6094300  38.9913131  39.9815501  20.7561911  38.1300570
  40.6258730  20.9913421  38.5090662  39.0993588  17.2109630  44.7386770
  39.0941627  16.3389446  44.7429196  39.8054582  17.4097799  44.2656226
  39.2038592  17.1113504  44.6693805  32.8264481  16.9386614  44.1100590
  32.9707857  17.5187822  43.4743700  33.1740130  17.3162911  44.8150445
  32.8991943  17.0807318  44.1199585  34.9984399  16.1376782  41.8925722
  34.2507713  16.3307797  41.4874000  35.1525924  15.3122002  41.6549843
  34.9106826  16.0441894  41.7971127  31.8992236  25.1289386  40.9761617
  32.0481800  24.5692302  40.3235021  32.6792238  25.2081387  41.3594136
  32.0366330  25.0574951  40.9358566  42.2568876  20.2691508  29.2480887
  41.8775684  19.4828646  29.2410177  41.5935121  20.8178365  29.1052532
  42.1027351  20.2336332  29.2261684  34.4245537  25.3004029  42.2546108
  34.3489208  24.6312839  42.8096896  34.3535396  26.0021817  42.7686774
  34.4026144  25.3048936  42.4122956  35.2386176  10.0327333  42.7821125
  35.6958790  10.7651307  42.9093918  35.3142504   9.6093798  43.5408381
  35.3177146  10.0784571  42.9122202  27.4819167  10.2793153  43.8710569
  26.9461356   9.6673511  44.1871336  27.5436932  10.8541289  44.5244236
  27.4114800  10.2740080  44.0145996  35.0815784  23.8205027  33.0869714
  35.8465675  23.5514671  32.7652378  34.9793874  23.3355038  33.8039776
  35.1797279  23.7094592  33.1449541  33.1168554  12.0229437  39.6262949
  32.3264628  11.8420897  39.9480285  33.5129176  11.2456389  39.6093244
  33.0585430  11.8816898  39.6715498  37.6034444  20.8517211  25.0669663
  38.3707430  20.9117336  24.6575515  37.1565753  20.2797653  24.5825982
  37.6507872  20.7753787  24.9347373  38.5012240  19.6571867  37.3522395
  37.8257242  19.4257099  37.8535782  38.5104616  19.0493050  36.7264500
  38.4030744  19.5330792  37.3338548  35.6306384  14.4989696  44.1086448
  35.5665525  15.3599652  43.9806585  35.7703572  14.1821689  43.3082000
  35.6421854  14.5789863  43.9714661  40.5028975  22.5136999  29.5832573
  40.5848812  23.3203986  29.2594024  40.9878717  22.5332959  30.3073347
  40.5866132  22.6357662  29.6419472  34.3125478  17.1921835  38.2502651
  33.8887727  17.3926334  37.5141670  34.1370333  16.3450683  38.3626951
  34.2236358  17.0970617  38.1576341  33.8137171  28.7072348  40.7124109
  34.3033102  28.0083138  40.5299773  33.2421404  28.4096218  41.3000166
  33.8021701  28.5598572  40.7725149  29.6007923  17.6873887  33.6830624
  29.7572542  17.6220690  34.5386616  29.9408516  18.4622439  33.4709303
  29.6741158  17.7923085  33.7785218  36.1387067  17.0631770  32.5523987
  36.6802613  16.5602151  33.0162608  36.4533626  17.0096965  31.7413472
  36.2651464  16.9811191  32.5007799  34.3073517  22.4549122  29.8364015
  34.3766337  21.5963660  29.9757015  35.0861972  22.6721003  29.5083040
  34.4326367  22.3601986  29.8081172  37.2876337  11.9568075  42.6046287
  37.5018306  11.3178989  42.0509641  36.6710236  12.4013899  42.1754149
  37.2281666  11.9278219  42.4596719  38.6981005  24.8786823  34.0500508
  38.3060796  24.5753538  33.3323374  38.8534077  25.7155913  33.8605462
  38.6634595  24.9570660  33.9157005  26.1742184  14.8708837  33.9991391
  26.5541149  15.2893382  33.3351658  25.5997549  15.4522293  34.3060234
  26.1453509  15.0186696  33.9468132  38.8620679  21.4436812  33.9906539
  38.5035334  21.6151455  34.7670571  38.3759390  21.9050018  33.4334537
  38.7379376  21.5375783  34.0231808  36.6791065   5.0668010  37.5933630
  35.8084623   5.0406732  37.5466940  36.9331407   4.8945203  36.7759476
  36.5884626   5.0378154  37.4653767  33.6509045  17.1235977  26.5306773
  33.9401570  17.9000860  26.8050348  33.7380844  16.6124709  27.2321273
  33.7063301  17.1627896  26.6749271  33.7040206   7.0774239  39.0507101
  33.1878694   6.3854430  39.1758680  33.1434135   7.7445016  38.9969699
  33.5446719   7.0737497  39.0613167  35.7732439   7.6167199  40.8799953
  35.3864193   7.6416230  41.6613483  35.2865377   7.0508878  40.4274470
  35.6444948   7.5362950  40.9287857  40.0225419  22.3340708  44.9373740
  40.6605139  21.8400904  44.6036196  39.3799510  22.2618108  44.3525967
  40.0219645  22.2499716  44.8016095  41.7482419  14.1829854  39.5039655
  41.3210027  14.0956202  38.7487755  41.1108472  14.2907629  40.0894499
  41.5912026  14.1862514  39.4785097  40.0779675  23.0260516  41.5779096
  40.8672054  22.6749581  41.6981178  40.2523273  23.8396905  41.3155730
  40.2199957  23.0946373  41.5566964  29.8172986  16.4369242  38.6306885
  28.9760992  16.3373116  38.8385779  30.0262994  17.2064722  38.9821206
  29.7237678  16.5361285  38.7134200  27.2948553  14.0588779  36.4591636
  26.9005251  14.1331791  35.6841746  26.7388670  14.4446725  37.0099998
  27.1551365  14.1270554  36.4259296  38.9313500   7.0370073  36.1395515
  39.1363093   6.9692381  36.9852512  38.6039924   7.8428894  36.0716692
  38.9128747   7.1456013  36.2555170  33.6289651  14.3650641  37.8804483
  33.3252788  13.8106629  38.4814891  32.9269071  14.5442851  37.3932517
  33.4805860  14.3095423  37.8974188  32.6855748  11.6751161  32.4449185
  32.9615482  10.9570073  32.0326752  33.2854417  12.2736081  32.2370291
  32.8149012  11.6571532  32.3529946  31.6908002  21.5800362  42.5876581
  31.5828357  21.5902424  43.4538639  31.9003783  22.4055142  42.3981534
  31.7058113  21.7041437  42.6880672  42.1847187   7.5901837  35.6198280
  41.5721501   8.0772239  36.0052012  42.2811362   6.9145328  36.1635932
  42.1085085   7.5620146  35.7577139  36.1866268   9.3464678  30.7195780
  36.6410015   9.5175239  31.4443624  36.6606314   8.7332789  30.3193555
  36.3234588   9.2815564  30.7669541  29.7081794  18.8313004  40.0498518
  29.1169727  19.4722502  40.0201533  30.4702817  19.2550622  40.0229818
  29.7330054  18.9888843  40.0413665  30.1042416   9.9915002  40.7166536
  30.5643898  10.0653931  41.4541660  30.1498523  10.7896256  40.3666357
  30.1792972  10.1209149  40.7739292  31.7525766  10.6581697  45.2838563
  31.3611331  10.0115044  45.7194341  31.9211629  11.2493132  45.9032818
  31.7196677  10.6495965  45.4401269  45.8272215  18.6618774  41.0475796
  45.8855339  19.1105423  41.7935773  45.1938683  19.0717587  40.6105876
  45.7423510  18.7892509  41.0928345  39.4671310  24.2822316  37.4830543
  39.2690999  24.7713130  36.7886754  38.8459021  24.4863557  38.0614676
  39.3458874  24.3838854  37.4653766  33.5279288  16.0507213  31.8240787
  34.2721333  16.4381489  32.0623737  33.6739984  15.2064638  31.9881275
  33.6589873  15.9837685  31.8834757  35.4458864   7.8457472  36.8572648
  34.5994909   8.0180279  36.7313998  35.4429996   7.0406815  37.1938477
  35.3206014   7.7518501  36.8883775  36.5157164  11.6232686  37.7234706
  36.0417118  11.0974448  38.2340017  36.8875300  11.0762159  37.1549568
  36.5007053  11.4648683  37.7149853  26.8930194  13.6204193  43.0918252
  27.7555807  13.5199902  43.0055582  26.5621977  13.0398902  42.5303824
  26.9715391  13.5195819  42.9963658  42.7793895  16.6835062  39.1341487
  42.5392118  15.8441477  39.1383913  43.2585902  16.7635228  39.8582260
  42.8146078  16.5716461  39.2416289  38.4440664  12.5169241  30.7860460
  37.9163682  12.5997985  30.0966169  38.9036372  13.2587112  30.7825105
  38.4342514  12.6389903  30.6835155  44.7799082  13.4636519  37.0870746
  44.5408852  13.4232353  36.2491531  44.9432983  14.3107671  37.2136467
  44.7689385  13.5828604  36.9824228  41.3845112  17.8486468  43.0175791
  42.1079311  17.3958995  42.8386811  41.1195074  18.1291134  42.2348119
  41.4526385  17.8237437  42.8754506  30.2531980  12.4446642  39.7528670
  29.6285050  12.4565034  39.1454623  29.9177575  12.9206817  40.4019910
  30.1117472  12.5165159  39.7585239  30.4373729  10.7871760  25.8101355
  30.0886533  11.4391485  26.2732905  29.9570175  10.7728873  25.0825226
  30.3143973  10.8814814  25.7712447  26.9657656  20.5047102  41.1932435
  26.4357580  19.8139541  41.2427409  27.2382749  20.4957287  40.3645143
  26.9282378  20.4014234  41.0779850  37.9977746  21.0872804  29.9170117
  38.7211945  21.5530917  29.7734690  37.5578337  21.1546414  29.1667714
  38.0393439  21.1656641  29.7854899  37.1663901  17.9470346  41.1670806
  36.5520894  17.4028397  41.4619441  37.6831186  17.4334583  40.6876622
  37.1519564  17.7906755  41.1395035  36.4060199  19.0174616  38.9015105
  35.9787807  18.3924335  38.4680540  36.3985143  18.7349538  39.7274112
  36.3419340  18.8827397  38.9594932  29.5222726  14.0539789  41.9703539
  29.6816212  13.2983114  42.3755261  29.3415619  14.6030729  42.6244276
  29.5188085  14.0233603  42.1266245  34.7345908   9.8943371  39.1157639
  34.7588395   9.3603483  38.4270419  34.9857382   9.3860680  39.7783229
  34.7755827   9.7404275  39.1122283  22.2453498  17.1774866  38.5500783
  22.1396947  17.1321710  37.6852867  21.4953718  17.5228646  38.8315068
  22.1189101  17.2215774  38.4638113  31.0147230   8.6214189  38.4963383
  31.0545602   9.1223396  39.2098090  30.1896895   8.7124583  38.2269306
  30.8986756   8.7096006  38.5613921  33.1976843  18.1874929  46.5983678
  32.3472474  18.3246643  46.7341323  33.3604971  17.4538707  47.0431379
  33.0960707  18.0989030  46.6839277  32.4361594  15.1374699  40.7937282
  31.6053523  15.3048517  40.5872530  32.3813111  14.7610650  41.5786167
  32.3051009  15.1064430  40.8785810  30.2445377   8.6283592  46.4293693
  30.8698080   8.0845725  46.7023125  29.7895857   8.1478510  45.8601483
  30.2693638   8.4773073  46.3855287  30.8097638  13.4130291  31.3227400
  30.9500599  13.9102755  32.0256041  31.3080170  12.7116585  31.4641613
  30.9038719  13.3832269  31.4478979  30.8397860  14.2797402  28.6519977
  31.4742940  14.8757827  28.5869438  30.9223471  13.9800859  29.4665847
  30.9454411  14.3238310  28.7623063  43.8180426  16.8112879  41.5206341
  44.4098266  17.4510130  41.5524539  44.2539420  16.1135916  41.8098408
  43.9698857  16.8031229  41.5687173  32.4176843  10.2111377  28.6265419
  32.7392684   9.7314460  27.9724681  32.6803787  11.0211023  28.4356230
  32.5042868  10.2601275  28.5020911  35.6473816  21.2330251  42.1464235
  35.1398907  21.7866098  42.5904865  35.3500462  21.2938541  41.3283009
  35.5278701  21.3236563  42.0912691  37.8135998   9.5983571  40.9888898
  38.2391069   9.1456097  40.3772424  37.1992991   9.0443642  41.2653685
  37.7864643   9.4497547  40.9393923  27.3450848  16.4765242  31.9209523
  27.8543077  17.0729750  32.3020828  27.8185120  16.2091216  31.2385942
  27.4894224  16.5251058  31.8764045  38.2581596  25.1493509  30.0768178
  37.5410906  24.9754371  29.6115416  38.9088334  24.9146081  29.5443664
  38.2483446  25.0889302  29.9297396  36.2530221   6.0698671  34.3979475
  35.6098539   5.9196317  34.9664613  35.9129628   5.8241016  33.6328579
  36.1075298   6.0110793  34.3682490  40.8429567  14.0258098  33.8209483
  40.1720757  14.5687800  33.6922549  41.5369317  14.4952953  33.5791178
  40.8458435  14.1756369  33.7665011  34.8916301  26.1654810  39.0521242
  34.6681955  25.4073639  39.4205268  34.4026144  26.1952831  38.3301681
  34.7859750  26.0577034  38.9997983  41.0057695  10.4813981  36.7299856
  41.3585305  10.0543704  37.4045655  40.1472496  10.3964825  36.8600933
  40.9307139  10.4058722  36.8494867  29.7041380  13.1121501  34.7882703
  28.9853369  13.5285633  35.0555567  30.0753742  13.6775740  34.2374341
  29.6533311  13.2570782  34.7465510  39.0040960  13.7449350  40.6784699
  38.9838888  13.5632645  41.5319478  39.0520161  14.6161368  40.6544282
  39.0075601  13.8465888  40.8007993  36.9487290  20.3336542  46.6033175
  36.9083145  19.6886219  46.0178331  37.7610609  20.2773159  46.9158587
  37.0630444  20.2295509  46.5630124  33.5394758  26.3855268  36.5058326
  33.1255156  25.7229398  36.1162168  34.2242132  26.5333126  35.9854020
  33.5793130  26.3095926  36.3714823  36.9060052  25.5445353  37.2581943
  36.5076335  25.6547623  36.4902763  36.2911272  25.7527419  37.8408503
  36.7558941  25.5918921  37.2313242  35.4787954  12.1519501  30.1256083
  34.8852793  12.4736497  29.5740650  35.5163232  11.3060596  29.9177189
  35.3962343  12.0743829  30.0138854  38.3545771  12.1099005  33.5557833
  38.1259464  12.1331707  32.7136191  38.6143847  11.2856472  33.6752843
  38.3591959  11.9915085  33.4483030  32.6364999  13.9633478  43.1582933
  32.1243902  13.3554661  43.5167964  32.4644495  14.6790071  43.6256909
  32.5354636  13.9796778  43.2799157  27.4830714  12.4071054  45.8085295
  27.3133304  13.0672428  45.2633501  27.0396664  12.6177615  46.5297784
  27.3930047  12.5357036  45.8346924  31.4090533  10.6475552  34.8512028
  31.8847899  11.0092631  34.2162210  30.9079133  11.3032019  35.1312171
  31.4055892  10.7969740  34.7988769  44.6401895  20.1197320  30.6425033
  45.0235500  20.8688676  30.8723130  43.8446008  20.3663139  30.3837022
  44.5795677  20.2667014  30.6382607  36.5134069  11.8857723  45.5985188
  37.0705500  11.6571533  44.9663654  36.1895134  12.6463389  45.3220401
  36.5480480  11.9641560  45.4641686  24.3832778  15.3117919  41.0673785
  23.8359498  14.6418565  41.1854653  25.1725156  14.9447767  41.1317252
  24.4184962  15.1582906  41.0942485  34.2317187  14.9725376  46.5637196
  34.9828514  15.2877053  46.8776750  34.4239763  14.7704547  45.7371117
  34.3708601  14.9892758  46.4880591  33.4517186  12.7916751  28.2185412
  33.8316151  12.8096381  27.4336527  32.7109782  13.2370740  28.0976260
  33.3986024  12.8598526  28.0848981  41.0802477  11.0998943  33.8060991
  41.0796703  10.9447599  34.6645267  40.8758657  11.9461930  33.7502377
  41.0502255  11.2019563  33.9248930  23.1419748  14.5238727  38.2219808
  22.9641509  14.0715336  38.9474723  22.8538770  15.3264888  38.4058285
  23.0732701  14.5761285  38.3563310  38.8043329  15.7796444  37.4597198
  39.2996994  15.0619439  37.4201218  37.9943105  15.4767242  37.3451685
  38.7587222  15.6294091  37.4370924  34.2501940  19.6294258  29.6094202
  33.4413263  19.3060931  29.5627512  34.7576849  18.9227480  29.5422451
  34.2051607  19.4775574  29.5924497  24.8792218  17.0566451  35.3341567
  24.0137737  17.0452141  35.2224338  24.9791034  16.8696674  36.1812706
  24.7666385  17.0272512  35.4430511  40.8695148  18.5300132  40.1474327
  41.2950219  18.0074554  39.5944752  40.5052068  19.1280969  39.6262950
  40.8781750  18.5410359  39.9883336  30.5049228  26.8264349  38.9071672
  30.8195786  27.6400738  38.9149454  30.9142641  26.4414568  39.5753831
  30.6117325  26.8893052  39.0075764  37.4573747  22.2434396  36.4775484
  37.9284925  22.9574659  36.6465469  37.7933926  21.6433146  37.0135354
  37.5768862  22.2605860  36.5807860  34.3743242   7.0161867  43.4333579
  34.5071148   6.2192860  43.7614554  34.7588395   7.5428270  44.0131855
  34.4499571   6.9761783  43.5677082  38.0947693  22.0352330  43.2403177
  37.5468639  21.4110214  42.9723242  38.5560722  22.2246602  42.5247256
  38.0814903  21.9711380  43.0953608  37.4475597   3.9392193  40.0314672
  36.6421561   3.8289923  40.3482511  37.3182333   4.0404649  39.1744538
  37.3095730   3.9375863  39.9522713  40.9041558  10.1037685  40.6254369
  40.3204547  10.6046891  40.2131936  41.2245852   9.5967241  39.9918692
  40.8654733  10.1029520  40.4712876  33.4436357   9.0178280  30.9013044
  34.2652051   9.1876592  30.6594739  32.9806008   9.1725541  30.1779341
  33.4967519   9.0660013  30.7584688  32.0331689   7.0121042  41.6811473
  32.5776102   6.6712169  42.2715814  32.0868625   7.8706503  41.8232757
  32.1220808   7.0876301  41.7893346  27.8462248  20.7737458  38.5550281
  28.4507105  20.7333292  37.9264101  27.6389560  21.6208610  38.5854336
  27.9051145  20.8925460  38.4666397  37.6606020  23.0403403  39.7712518
  38.4804394  22.8966369  40.0328813  37.3800097  23.6649602  40.3128956
  37.7402763  23.1113755  39.8900457  23.0813530  19.7572075  38.4249204
  22.9837808  18.9468347  38.7339260  23.8642400  19.7363869  38.0395472
  23.1829666  19.6339166  38.4136067  47.3319355  29.7843906  37.4908325
  46.4757251  29.9452404  37.5417442  47.3787009  28.9135970  37.5113386
  47.2118466  29.6794708  37.5014391  41.7160495  39.3206624  33.2545556
  40.9643394  38.9422162  33.0261601  42.1646506  39.3525057  32.5064367
  41.6710162  39.2692231  33.1103059  47.1685455  39.7431993  28.6831103
  46.8336823  40.4208915  28.2475326  47.6812325  39.3537304  28.0947975
  47.1951036  39.7856571  28.5317895  43.2945251  39.3325016  35.5208329
  43.3955614  38.5225370  35.8305457  42.6986996  39.2381962  34.8908007
  43.2217790  39.1990044  35.4734567  36.4910295  35.3545302  35.1460663
  36.2560480  34.5212955  35.0392931  36.6295936  35.6349968  34.3321863
  36.4765958  35.2728806  35.0103017  38.7900383  27.5231033  38.0444970
  38.1705414  26.9323680  37.8754985  38.6884246  28.1142468  37.4109293
  38.6838058  27.5235115  37.9249960  43.8366570  37.2614580  32.2943047
  44.1582411  37.8019787  31.6904355  44.4838667  36.6911351  32.4265336
  43.9792625  37.2573755  32.2250082  45.8868278  29.2630575  32.3777433
  46.5848443  29.4418702  32.8698897  46.2020611  28.7400914  31.7547823
  46.0363615  29.2124347  32.3579443  38.5169516  31.0683315  40.2888539
  38.3928213  31.6545760  40.9238358  39.1687800  30.5743510  40.5900814
  38.5943165  31.0822119  40.4274468  46.0756214  35.6501020  32.3657225
  46.5149849  35.0418120  32.8111998  45.9260877  35.2708393  31.5942690
  46.1177679  35.5039491  32.3176392  44.0595142  24.6322971  36.4598708
  43.7298472  25.0834115  35.7902407  43.3840144  24.5539135  37.0071714
  43.9105578  24.6874107  36.4421931  42.4983591  34.5176212  29.6193197
  41.9140806  35.0226243  30.0259061  42.0953686  34.2918599  28.8789789
  42.3522895  34.5584460  29.5698222  38.0527620  40.2330973  36.4216869
  37.5695198  40.9581463  36.3976452  38.8650938  40.5307103  36.5327026
  38.1018368  40.3833327  36.4344148  46.9560806  30.7641864  28.0962118
  47.1956809  30.9719848  27.2837461  47.2776647  29.9599373  28.2051062
  47.0397964  30.6755965  27.9922671  42.2651096  22.6935260  31.9421656
  43.0197064  23.0613577  31.7038706  42.0878631  23.0674814  32.7100835
  42.3505574  22.8033448  32.0206544  40.6208161  25.1005579  28.6399769
  40.4383734  25.3177460  27.8140761  41.4833774  25.2144591  28.6958383
  40.7212750  25.1495477  28.5254256  40.2322593  36.9393501  36.0822757
  41.0711492  37.1716434  36.1296518  40.2634362  36.0697812  36.0129792
  40.3604310  36.8450447  36.0787401  46.3007880  22.1031989  31.6748792
  47.0294040  21.9247944  31.2286949  46.3902773  22.9450069  31.8855971
  46.4214542  22.2015868  31.6402310  36.2612441  33.5794667  40.5370484
  35.9950856  32.7633784  40.6961474  36.2751005  33.6247823  39.6665999
  36.2237163  33.4651572  40.4323966  40.1670188  28.3779751  27.1522242
  39.4528365  28.0917931  27.5644674  40.6514156  28.7176377  27.7928629
  40.1329551  28.3861401  27.3077877  41.0111047  27.1173045  43.1837491
  40.3182844  26.6470025  43.4298223  41.6271374  26.8911350  43.7579198
  40.9995577  27.0140177  43.3046644  47.3417506  36.8809705  27.5284050
  47.7568654  36.5494729  26.8368546  46.5109435  36.6478608  27.4004187
  47.2805514  36.7980961  27.4074897  36.6705854  34.3653446  37.8182228
  36.4881428  34.3400332  36.9654520  37.4055523  34.8352384  37.8571137
  36.7519918  34.4314809  37.6980146  36.6376765  31.2446947  37.9681294
  37.2150267  31.1083398  38.6073540  35.9390826  30.7882731  38.2226879
  36.6197786  31.1569213  38.1003584  43.3944067  32.8981003  36.1819778
  43.1363311  32.0652738  36.1551077  43.4492550  33.1238616  35.3412278
  43.3643845  32.8078774  36.0539914  42.3678779  30.4518765  36.6684672
  41.7928370  30.6110934  37.3048633  41.9914455  29.8154174  36.2053123
  42.2281591  30.3816578  36.6939231  32.1135598  30.0958840  34.6829113
  32.1995850  29.7190708  35.4642643  32.7411395  29.7219286  34.2049071
  32.2192149  29.9844322  34.7274590  43.0098914  36.6262237  34.8526170
  43.6472861  36.3873984  35.3977963  43.4353986  36.8299395  34.1179330
  43.1675080  36.6213247  34.8243327  43.6501729  31.8464526  29.1901059
  44.0346882  31.6272233  29.9417604  43.4013349  32.6727472  29.3202136
  43.6703802  31.9362673  29.3202136  39.1526143  37.4492522  33.5614400
  38.3264260  37.6954259  33.4348678  39.2138134  37.3704603  34.4276458
  39.0400310  37.4737471  33.6703344  41.3702166  23.5161463  34.5209840
  40.5024592  23.5884062  34.5867449  41.6577371  24.3183542  34.7097815
  41.2841915  23.6455610  34.5584606  43.9324972  40.0669402  31.2633430
  44.2223270  39.6758384  30.5392656  44.6628453  40.2486107  31.7038705
  44.0831856  40.0363216  31.2216237  41.8730887  42.0436785  34.3293579
  41.6531183  41.7534139  35.1220246  41.6525409  41.3851740  33.8011492
  41.8078482  41.9036493  34.3682488  40.7847835  34.1310101  36.5949281
  40.4961083  33.5047572  37.1295008  41.6531183  34.0730389  36.6613961
  40.8708086  34.0297645  36.6840236  44.0398843  43.4166175  33.1124272
  44.6922901  42.8842617  33.3415298  43.3424452  43.0634827  33.4992146
  44.0329561  43.2855698  33.2036439  40.9880108  35.7705352  32.5191646
  41.7426076  36.1518391  32.7327109  40.3950721  36.2216496  32.9738343
  41.0116822  35.8934180  32.6174524  39.2969519  26.9919722  31.9626716
  39.0094314  26.6220993  31.2258663  39.9839987  27.4614578  31.7010421
  39.3558416  27.0066692  31.8141792  43.7344660  33.9717933  33.2913252
  43.5387443  34.5792667  32.6973555  43.9579006  33.2785877  32.8104926
  43.7379301  33.9595458  33.1329333  42.1323190  30.8572671  33.4094121
  42.8545842  31.0213829  32.9497927  41.6531183  31.5782335  33.3033461
  42.1686921  30.9870900  33.3259735  36.8697713  27.7700935  32.8111997
  36.9713850  28.5727096  33.1392973  37.6653600  27.5688271  32.5135078
  37.0025619  27.8586834  32.8147352  43.3014532  25.3557131  42.5749302
  43.1097729  25.3712266  43.4248726  44.1513128  25.5520806  42.5515957
  43.3990254  25.3871483  42.6972597  37.6861445  27.8848113  40.5533119
  37.5446937  27.0332054  40.6777627  37.9702009  27.9276774  39.7295325
  37.7069291  27.7647863  40.4500743  38.4551751  25.7978461  43.8710569
  37.9193940  25.1858819  44.1871336  38.5169515  26.3726597  44.5244236
  38.3847383  25.7925388  44.0145996  46.0548367  39.3390335  33.0869714
  46.8198259  39.0699979  32.7652378  45.9526457  38.8540346  33.8039776
  46.1529863  39.2279900  33.1449541  44.0901137  27.5414745  39.6262949
  43.2997212  27.3606205  39.9480285  44.4861760  26.7641697  39.6093244
  44.0318013  27.4002206  39.6715498  45.2858061  32.7107143  38.2502651
  44.8620310  32.9111642  37.5141670  45.1102917  31.8635991  38.3626951
  45.1968942  32.6155925  38.1576341  40.5740506  33.2059195  33.6830624
  40.7305126  33.1405997  34.5386616  40.9141099  33.9807747  33.4709303
  40.6473741  33.3108393  33.7785218  47.1119651  32.5817078  32.5523987
  47.6535196  32.0787459  33.0162608  47.4266210  32.5282273  31.7413472
  47.2384048  32.4996499  32.5007799  45.2806101  37.9734430  29.8364015
  45.3498921  37.1148968  29.9757015  46.0594556  38.1906311  29.5083040
  45.4058951  37.8787294  29.8081172  37.1474768  30.3894145  33.9991391
  37.5273733  30.8078690  33.3351658  36.5730133  30.9707601  34.3060234
  37.1186093  30.5372004  33.9468132  44.6241628  32.6421285  26.5306773
  44.9134153  33.4186168  26.8050348  44.7113427  32.1310017  27.2321273
  44.6795885  32.6813204  26.6749271  44.6772789  22.5959547  39.0507101
  44.1611278  21.9039738  39.1758680  44.1166718  23.2630324  38.9969699
  44.5179303  22.5922804  39.0613167  46.7465023  23.1352507  40.8799953
  46.3596776  23.1601538  41.6613483  46.2597960  22.5694186  40.4274470
  46.6177532  23.0548258  40.9287857  40.7905569  31.9554550  38.6306885
  39.9493576  31.8558424  38.8385779  40.9995577  32.7250030  38.9821206
  40.6970262  32.0546593  38.7134200  38.2681136  29.5774087  36.4591636
  37.8737834  29.6517099  35.6841746  37.7121253  29.9632033  37.0099998
  38.1283949  29.6455861  36.4259296  44.6022234  29.8835949  37.8804483
  44.2985372  29.3291937  38.4814891  43.9001655  30.0628159  37.3932517
  44.4538444  29.8280731  37.8974188  43.6588331  27.1936469  32.4449185
  43.9348066  26.4755381  32.0326752  44.2587001  27.7921389  32.2370291
  43.7881596  27.1756840  32.3529946  47.1598852  24.8649986  30.7195780
  47.6142598  25.0360547  31.4443624  47.6338898  24.2518097  30.3193555
  47.2967172  24.8000871  30.7669541  41.0775000  25.5100310  40.7166536
  41.5376482  25.5839239  41.4541660  41.1231107  26.3081564  40.3666357
  41.1525555  25.6394457  40.7739292  44.5011872  31.5692521  31.8240787
  45.2453917  31.9566797  32.0623737  44.6472568  30.7249946  31.9881275
  44.6322457  31.5022993  31.8834757  46.4191447  23.3642780  36.8572648
  45.5727492  23.5365587  36.7313998  46.4162580  22.5592123  37.1938477
  46.2938597  23.2703808  36.8883775  37.8662778  29.1389501  43.0918252
  38.7288391  29.0385210  43.0055582  37.5354561  28.5584210  42.5303824
  37.9447974  29.0381127  42.9963658  41.2264564  27.9631950  39.7528670
  40.6017634  27.9750342  39.1454623  40.8910159  28.4392125  40.4019910
  41.0850056  28.0350467  39.7585239  41.4106313  26.3057068  25.8101355
  41.0619117  26.9576793  26.2732905  40.9302758  26.2914181  25.0825226
  41.2876556  26.4000122  25.7712447  40.4955309  29.5725097  41.9703539
  40.6548796  28.8168422  42.3755261  40.3148203  30.1216037  42.6244276
  40.4920668  29.5418911  42.1266245  45.7078492  25.4128679  39.1157639
  45.7320979  24.8788791  38.4270419  45.9589965  24.9045988  39.7783229
  45.7488410  25.2589583  39.1122283  33.2186082  32.6960174  38.5500783
  33.1129531  32.6507018  37.6852867  32.4686302  33.0413954  38.8315068
  33.0921685  32.7401082  38.4638113  41.9879814  24.1399497  38.4963383
  42.0278186  24.6408704  39.2098090  41.1629479  24.2309891  38.2269306
  41.8719340  24.2281313  38.5613921  43.4094177  30.6560007  40.7937282
  42.5786107  30.8233825  40.5872530  43.3545695  30.2795958  41.5786167
  43.2783592  30.6249738  40.8785810  41.7830221  28.9315599  31.3227400
  41.9233182  29.4288063  32.0256041  42.2812754  28.2301893  31.4641613
  41.8771302  28.9017577  31.4478979  41.8130444  29.7982710  28.6519977
  42.4475523  30.3943135  28.5869438  41.8956054  29.4986167  29.4665847
  41.9186995  29.8423618  28.7623063  43.3909426  25.7296685  28.6265419
  43.7125268  25.2499767  27.9724681  43.6536370  26.5396331  28.4356230
  43.4775452  25.7786583  28.5020911  38.3183432  31.9950550  31.9209523
  38.8275661  32.5915058  32.3020828  38.7917704  31.7276524  31.2385942
  38.4626807  32.0436366  31.8764045  47.2262804  21.5883979  34.3979475
  46.5831122  21.4381625  34.9664613  46.8862211  21.3426324  33.6328579
  47.0807882  21.5296101  34.3682490  40.6773963  28.6306809  34.7882703
  39.9585952  29.0470941  35.0555567  41.0486326  29.1961048  34.2374341
  40.6265895  28.7756090  34.7465510  46.4520538  27.6704809  30.1256083
  45.8585377  27.9921805  29.5740650  46.4895815  26.8245904  29.9177189
  46.3694927  27.5929137  30.0138854  42.3823117  26.1660860  34.8512028
  42.8580483  26.5277939  34.2162210  41.8811716  26.8217327  35.1312171
  42.3788476  26.3155048  34.7988769  35.3565362  30.8303227  41.0673785
  34.8092081  30.1603873  41.1854653  36.1457740  30.4633075  41.1317252
  35.3917546  30.6768214  41.0942485  44.4249770  28.3102059  28.2185412
  44.8048735  28.3281689  27.4336527  43.6842366  28.7556048  28.0976260
  44.3718608  28.3783834  28.0848981  34.1152331  30.0424035  38.2219808
  33.9374092  29.5900644  38.9474723  33.8271353  30.8450196  38.4058285
  34.0465284  30.0946593  38.3563310  45.2234524  35.1479566  29.6094202
  44.4145847  34.8246239  29.5627512  45.7309433  34.4412788  29.5422451
  45.1784191  34.9960882  29.5924497  35.8524801  32.5751759  35.3341567
  34.9870321  32.5637449  35.2224338  35.9523617  32.3881982  36.1812706
  35.7398968  32.5457820  35.4430511  45.3475826  22.5347175  43.4333579
  45.4803731  21.7378168  43.7614554  45.7320978  23.0613578  44.0131855
  45.4232155  22.4947091  43.5677082  44.4168941  24.5363588  30.9013044
  45.2384635  24.7061900  30.6594739  43.9538591  24.6910848  30.1779341
  44.4700103  24.5845320  30.7584688  43.0064272  22.5306350  41.6811473
  43.5508685  22.1897477  42.2715814  43.0601208  23.3891811  41.8232757
  43.0953392  22.6061609  41.7893346  38.8194831  36.2922766  38.5550281
  39.4239689  36.2518600  37.9264101  38.6122144  37.1393918  38.5854336
  38.8783729  36.4110768  38.4666397  34.0546114  35.2757383  38.4249204
  33.9570392  34.4653655  38.7339260  34.8374983  35.2549177  38.0395472
  34.1562250  35.1524473  38.4136067  31.8564231   5.6695428  23.8563232
  32.5001686   6.1108592  24.2459390  32.1820486   4.8648854  23.7693490
  31.9996060   5.6160623  23.9008709  26.7745860   1.6523796  23.3556915
  26.2913438   2.3774286  23.3316499  27.5869178   1.9499926  23.4667073
  26.8236608   1.8026150  23.3684195  29.6290058   2.1679972  23.5077195
  30.3310637   1.6531961  23.5649952  29.5487541   2.4954124  24.3124070
  29.7213818   2.1394198  23.6349988  26.4229797   0.2843396  25.6700520
  26.4633942   0.5558247  24.8420300  26.9824321   0.8085304  26.0858308
  26.5113143   0.4019151  25.6092409  30.5949128   3.4629608  21.2633626
  30.3749423   3.1726963  22.0560293  30.3743650   2.8044563  20.7351538
  30.5296722   3.3229316  21.3022535  32.7617083   4.8358998  20.0464318
  33.4141141   4.3035440  20.2755345  32.0642692   4.4827650  20.4332193
  32.7547801   4.7048521  20.1376486  33.5087995   5.6450479  27.6464155
  33.9983926   4.9461269  27.4639820  32.9372227   5.3474349  28.2340213
  33.4972525   5.4976703  27.7065196  33.2345582   3.3233399  23.4398373
  32.8205980   2.6607529  23.0502215  33.9192956   3.4711258  22.9194067
  33.2743954   3.2474057  23.3054870  30.2000051   3.7642481  25.8411719
  30.5146610   4.5778869  25.8489501  30.6093465   3.3792699  26.5093878
  30.3068149   3.8271183  25.9415811  41.4111319  16.2584755  20.1885603
  40.6594218  15.8800293  19.9601648  41.8597330  16.2903188  19.4404413
  41.3660985  16.2070362  20.0443105  46.8636279  16.6810124  15.6171150
  46.5287647  17.3587046  15.1815372  47.3763149  16.2915436  15.0288022
  46.8901860  16.7234702  15.4657942  46.4040570  18.6324393  21.5582262
  46.7879949  19.2011292  21.0187037  46.3399711  17.9073903  21.0788078
  46.4513997  18.6099856  21.4076124  42.9896075  16.2703147  22.4548376
  43.0906438  15.4603501  22.7645503  42.3937820  16.1760093  21.8248054
  42.9168613  16.1368175  22.4074614  42.8296814  21.1880736  23.8563232
  43.4734270  21.6293900  24.2459390  43.1553070  20.3834162  23.7693490
  42.9728643  21.1345931  23.9008709  36.1861119  12.2923433  22.0800709
  35.9511304  11.4591086  21.9732978  36.3246760  12.5728099  21.2661910
  36.1716782  12.2106937  21.9443064  38.4851207   4.4609164  24.9785017
  37.8656238   3.8701811  24.8095032  38.3835070   5.0520599  24.3449340
  38.3788882   4.4613247  24.8590007  43.5317394  14.1992711  19.2283093
  43.8533235  14.7397918  18.6244401  44.1789491  13.6289482  19.3605383
  43.6743449  14.1951886  19.1590129  38.2120340   8.0061446  27.2228586
  38.0879036   8.5923891  27.8578405  38.8638624   7.5121642  27.5240861
  38.2893989   8.0200250  27.3614515  45.7707038  12.5879151  19.2997272
  46.2100673  11.9796251  19.7452044  45.6211700  12.2086524  18.5282737
  45.8128503  12.4417622  19.2516439  43.2378681  11.1823163  26.5016097
  43.8827683  10.6895606  26.1827046  43.4780458  11.3247949  27.3282175
  43.3689266  11.1300605  26.5765630  45.7764772  14.0278069  26.1522990
  46.0588015  13.2329474  25.9309745  46.5050932  14.5058656  26.1728051
  45.9254336  13.9812666  26.1226005  42.1934415  11.4554343  16.5533244
  41.6091630  11.9604375  16.9599108  41.7904510  11.2296730  15.8129836
  42.0473719  11.4962591  16.5038269  37.7478444  17.1709104  23.3556915
  37.2646022  17.8959594  23.3316499  38.5601762  17.4685234  23.4667073
  37.7969192  17.3211458  23.3684195  43.8192598  15.9641285  25.9606730
  43.3019539  15.6048700  25.3568038  44.5166989  15.4403459  25.9712796
  43.8458179  15.8338973  25.8736989  45.0426650  15.6967259  30.9040565
  44.4797484  15.2839869  31.4280226  45.8047673  15.6220165  31.3233708
  45.0721098  15.6244660  31.0433566  40.6022641  17.6865280  23.5077195
  41.3043220  17.1717269  23.5649952  40.5220124  18.0139432  24.3124070
  40.6946402  17.6579506  23.6349988  41.6501548   7.9240867  32.6357610
  41.8222051   7.8146762  33.4842892  42.1870905   8.5695273  32.3988803
  41.7546552   8.0032869  32.7262707  39.9273416  13.8771632  23.0162803
  40.7662316  14.1094565  23.0636565  39.9585186  13.0075944  22.9469839
  40.0555134  13.7828579  23.0127448  40.5526119  14.2972507  27.3176109
  41.0924344  14.1543638  27.9879481  39.8696066  14.6969258  27.6860135
  40.5318273  14.3352178  27.4710531  35.9563265  10.5172798  27.4710530
  35.6901680   9.7011915  27.6301521  35.9701829  10.5625954  26.6006046
  35.9187987  10.4029703  27.3664012  39.8621012   5.3157883  14.0862289
  39.1479189   5.0296062  14.4984721  40.3464980   5.6554508  14.7268676
  39.8280375   5.3239532  14.2417923  47.0368329  13.8187837  14.4624097
  47.4519478  13.4872860  13.7708592  46.2060259  13.5856739  14.3344233
  46.9756338  13.7359093  14.3414944  36.3656678  11.3031578  24.7522275
  36.1832251  11.2778464  23.8994567  37.1006347  11.7730515  24.7911183
  36.4470742  11.3692940  24.6320193  39.4302430   8.0216580  31.2604383
  40.1542402   8.0069611  31.7469278  39.5318566   8.7311936  30.7626352
  39.5520639   8.1241284  31.2583170  46.8047379  11.5015665  36.1253330
  46.0120360  11.8159177  36.3105950  46.9196306  11.7167133  35.2874115
  46.7042790  11.5799502  36.0291665  36.3327589   8.1825078  24.9021341
  36.9101091   8.0461529  25.5413587  35.6341650   7.7260862  25.1566926
  36.3148610   8.0947344  25.0343631  43.0894891   9.8359134  23.1159824
  42.8314135   9.0030869  23.0891124  43.1443374  10.0616747  22.2752325
  43.0594669   9.7456905  22.9879961  42.0629603   7.3896896  23.6024719
  41.4879194   7.5489065  24.2388680  41.6865279   6.7532305  23.1393170
  41.9232415   7.3194709  23.6279278  31.8086422   7.0336971  21.6169160
  31.8946674   6.6568839  22.3982690  32.4362219   6.6597417  21.1389118
  31.9142973   6.9222453  21.6614637  46.8341830  10.0918850  16.6593905
  47.6482469  10.3833743  16.5476676  46.7700971   9.4378713  16.0852198
  46.9444569  10.0384045  16.5582742  42.7049738  13.5640368  21.7866217
  43.3423685  13.3252115  22.3318010  43.1304810  13.7677527  21.0519377
  42.8625904  13.5591378  21.7583374  37.3962380  15.8028704  25.6700520
  37.4366526  16.0743555  24.8420300  37.9556905  16.3270612  26.0858308
  37.4845726  15.9204459  25.6092409  43.3452553   8.7842657  16.1241106
  43.7297706   8.5650364  16.8757651  43.0964173   9.6105603  16.2542182
  43.3654626   8.8740804  16.2542183  45.0871210  14.0412790  23.4660003
  45.1610218  13.8787962  24.3201853  45.9040716  14.2302980  23.2220485
  45.2187569  14.0449533  23.5558029  38.8476967  14.3870653  20.4954446
  38.0215084  14.6332390  20.3688725  38.9088958  14.3082734  21.3616505
  38.7351134  14.4115602  20.6043391  43.6275796  17.0047533  18.1973476
  43.9174094  16.6136515  17.4732703  44.3579277  17.1864238  18.6378752
  43.7782680  16.9741347  18.1556283  44.2170541  11.8065279  29.2826607
  43.7182235  12.5181047  29.3611495  45.0270765  12.1265946  29.2444769
  44.2626648  11.9592128  29.2883175  41.5681711  18.9814916  21.2633626
  41.3482007  18.6912271  22.0560293  41.3476233  18.3229871  20.7351538
  41.5029305  18.8414624  21.3022535  40.4798659  11.0688232  23.5289328
  40.1911907  10.4425704  24.0635055  41.3482007  11.0108520  23.5954008
  40.5658910  10.9675777  23.6180282  43.7349667  20.3544306  20.0464318
  44.3873725  19.8220748  20.2755345  43.0375276  20.0012958  20.4332193
  43.7280385  20.2233829  20.1376486  40.6830932  12.7083483  19.4531693
  41.4376900  13.0896522  19.6667155  40.0901545  13.1594627  19.9078389
  40.7067645  12.8312311  19.5514571  42.0029158  13.8792045  24.8271808
  41.4809912  14.0192336  25.5123673  42.3903179  13.1202709  25.0173926
  41.9832859  13.7877569  24.9572885  43.4295484  10.9096064  20.2253299
  43.2338267  11.5170798  19.6313602  43.6529830  10.2164008  19.7444973
  43.4330125  10.8973589  20.0669380  41.8274014   7.7950802  20.3434168
  42.5496666   7.9591960  19.8837974  41.3482007   8.5160466  20.2373507
  41.8637745   7.9249031  20.2599782  39.4781631  10.2008874  29.4488307
  39.9902728  10.4793127  28.7997067  39.1917973  10.9398168  29.8151120
  39.5116494  10.3511228  29.4078185  36.5648537   4.7079066  19.7452044
  36.6664674   5.5105227  20.0733019  37.3604424   4.5066402  19.4475124
  36.6976443   4.7964965  19.7487399  37.3812269   4.8226244  27.4873165
  37.2397761   3.9710185  27.6117673  37.6652833   4.8654905  26.6635372
  37.4020115   4.7025994  27.3840790  43.4947889   9.3950053  31.0440637
  43.6391265   9.9751261  30.4083747  43.8423537   9.7726350  31.7490491
  43.5675350   9.5370757  31.0539632  45.6667806   8.5940221  28.8265768
  44.9191120   8.7871236  28.4214047  45.8209331   7.7685441  28.5889890
  45.5790234   8.5005333  28.7311174  42.5675644  17.5852825  27.9101664
  42.7165208  17.0255741  27.2575068  43.3475646  17.6644826  28.2934183
  42.7049737  17.5138390  27.8698613  45.0928944  17.7567468  29.1886155
  45.0172616  17.0876278  29.7436943  45.0218804  18.4585256  29.7026821
  45.0709551  17.7612375  29.3463003  45.7499191  16.2768466  20.0209760
  46.5149083  16.0078110  19.6992425  45.6477281  15.7918477  20.7379823
  45.8480687  16.1658031  20.0789588  44.9808885   9.6485274  25.1842698
  44.5571134   9.8489773  24.4481716  44.8053741   8.8014122  25.2966998
  44.8919766   9.5534056  25.0916388  44.4820579  21.1635787  27.6464155
  44.9716509  20.4646577  27.4639820  43.9104811  20.8659657  28.2340213
  44.4705109  21.0162011  27.7065196  40.2691330  10.1437326  20.6170671
  40.4255949  10.0784129  21.4726663  40.6091923  10.9185878  20.4049350
  40.3424565  10.2486524  20.7125265  46.8070475   9.5195209  19.4864034
  47.3486020   9.0165591  19.9502654  47.1217034   9.4660404  18.6753519
  46.9334872   9.4374630  19.4347846  44.9756925  14.9112561  16.7704062
  45.0449745  14.0527099  16.9097062  45.7545380  15.1284442  16.4423086
  45.1009775  14.8165425  16.7421219  36.8425592   7.3272276  20.9331438
  37.2224557   7.7456821  20.2691705  36.2680957   7.9085732  21.2400281
  36.8136917   7.4750135  20.8808179  44.3192452   9.5799416  13.4646820
  44.6084977  10.3564299  13.7390394  44.4064251   9.0688148  14.1661319
  44.3746709   9.6191335  13.6089318  40.4856393   8.8932681  25.5646932
  39.6444400   8.7936555  25.7725826  40.6946401   9.6628161  25.9161253
  40.3921086   8.9924724  25.6474247  37.9631960   6.5152218  23.3931683
  37.5688658   6.5895230  22.6181792  37.4072077   6.9010164  23.9440045
  37.8234773   6.5833993  23.3599343  44.2973058   6.8214080  24.8144530
  43.9936196   6.2670069  25.4154937  43.5952479   7.0006290  24.3272564
  44.1489268   6.7658863  24.8314235  42.3591409  14.0363801  29.5216627
  42.2511764  14.0465863  30.3878685  42.5687191  14.8618581  29.3321581
  42.3741520  14.1604876  29.6220719  40.3765201  11.2876443  26.9838565
  39.7853134  11.9285942  26.9541580  41.1386225  11.7114061  26.9569865
  40.4013462  11.4452282  26.9753712  44.1962696   8.5070652  18.7580834
  44.9404741   8.8944928  18.9963784  44.3423392   7.6628077  18.9221322
  44.3273281   8.4401125  18.8174803  37.5613602   6.0767632  30.0258299
  38.4239215   5.9763341  29.9395629  37.2305385   5.4962341  29.4643871
  37.6398798   5.9759259  29.9303705  40.9215388   4.9010081  26.6868717
  40.2968458   4.9128473  26.0794670  40.5860983   5.3770256  27.3359957
  40.7800880   4.9728598  26.6925286  37.6341063  12.9610541  28.1272481
  37.1040988  12.2702980  28.1767456  37.9066157  12.9520726  27.2985190
  37.5965786  12.8577673  28.0119897  47.0743606  11.4738056  25.8355152
  46.6471214  10.8487774  25.4020587  47.0668550  11.1912977  26.6614159
  47.0102747  11.3390836  25.8934979  40.1906133   6.5103229  28.9043586
  40.3499620   5.7546553  29.3095307  40.0099027   7.0594168  29.5584323
  40.1871492   6.4797042  29.0606292  32.9136906   9.6338305  25.4840830
  32.8080355   9.5885149  24.6192914  32.1637126   9.9792086  25.7655115
  32.7872508   9.6779213  25.3978159  43.8660251  10.6438368  33.5323724
  43.0155881  10.7810083  33.6681369  44.0288379   9.9102147  33.9771426
  43.7644114  10.5552469  33.6179324  43.1045001   7.5938138  27.7277329
  42.2736931   7.7611956  27.5212577  43.0496519   7.2174089  28.5126214
  42.9734416   7.5627869  27.8125857  41.4781045   5.8693730  18.2567447
  41.6184006   6.3666194  18.9596088  41.9763578   5.1680024  18.3981660
  41.5722126   5.8395708  18.3819026  41.5081268   6.7360841  15.5860023
  42.1426347   7.3321266  15.5209485  41.5906878   6.4364298  16.4005894
  41.6137819   6.7801749  15.6963110  46.3157223  13.6893690  29.0804282
  45.8082314  14.2429537  29.5244912  46.0183869  13.7501980  28.2623056
  46.1962108  13.7800002  29.0252738  38.0134255   8.9328681  18.8549569
  38.5226485   9.5293189  19.2360875  38.4868528   8.6654655  18.1725989
  38.1577631   8.9814497  18.8104092  45.5599708  18.6218249  25.9861288
  45.3365363  17.8637078  26.3545315  45.0709552  18.6516270  25.2641728
  45.4543157  18.5140473  25.9338029  40.3724787   5.5684940  21.7222750
  39.6536776   5.9849073  21.9895613  40.7437149   6.1339179  21.1714388
  40.3216719   5.7134221  21.6805557  44.2078165  18.8418707  23.4398373
  43.7938564  18.1792837  23.0502215  44.8925540  18.9896566  22.9194067
  44.2476537  18.7659365  23.3054870  47.5743460  18.0008792  24.1921990
  47.1759743  18.1111062  23.4242810  46.9594679  18.2090858  24.7748549
  47.4242349  18.0482360  24.1653289  43.3048407   6.4196917  30.0922980
  42.7927310   5.8118100  30.4508011  43.1327903   7.1353510  30.5596956
  43.2038044   6.4360217  30.2139203  38.1514121   4.8634493  32.7425342
  37.9816712   5.5235868  32.1973548  37.7080071   5.0741054  33.4637831
  38.0613455   4.9920475  32.7686971  35.0516186   7.7681358  28.0013831
  34.5042905   7.0982004  28.1194700  35.8408564   7.4011206  28.0657299
  35.0868369   7.6146345  28.0282532  44.9000594   7.4288815  33.4977242
  45.6511921   7.7440492  33.8116797  45.0923171   7.2267986  32.6711164
  45.0392008   7.4456197  33.4220638  33.8103155   6.9802166  25.1559854
  33.6324916   6.5278775  25.8814770  33.5222177   7.7828328  25.3398332
  33.7416108   7.0324724  25.2903357  44.9185348  12.0857697  16.5434249
  44.1096671  11.7624370  16.4967559  45.4260257  11.3790919  16.4762498
  44.8735015  11.9339013  16.5264544  35.5475625   9.5129890  22.2681613
  34.6821145   9.5015580  22.1564385  35.6474441   9.3260113  23.1152753
  35.4349792   9.4835951  22.3770558  41.1732635  19.2827789  25.8411719
  41.4879194  20.0964177  25.8489501  41.5826048  18.8978007  26.5093878
  41.2800733  19.3456491  25.9415811  38.5145655  13.2300897  25.4890327
  39.1190513  13.1896731  24.8604148  38.3072968  14.0772049  25.5194383
  38.5734552  13.3488899  25.4006444  33.7496937  12.2135514  25.3589251
  33.6521215  11.4031786  25.6679307  34.5325807  12.1927308  24.9735519
  33.8513074  12.0902605  25.3476113  47.1593703  27.8108741  22.0800709
  46.9243887  26.9776394  21.9732978  47.2979343  28.0913407  21.2661910
  47.1449365  27.7292245  21.9443064  46.9295848  26.0358106  27.4710530
  46.6634263  25.2197223  27.6301521  46.9434412  26.0811262  26.6006046
  46.8920570  25.9215011  27.3664012  42.7819005  22.5522279  21.6169160
  42.8679257  22.1754147  22.3982690  43.4094803  22.1782725  21.1389118
  42.8875556  22.4407761  21.6614637  43.8869489  25.1523613  25.4840830
  43.7812938  25.1070457  24.6192914  43.1369709  25.4977394  25.7655115
  43.7605092  25.1964521  25.3978159  46.0248769  23.2866666  28.0013831
  45.4775489  22.6167312  28.1194700  46.8141148  22.9196514  28.0657299
  46.0600953  23.1331653  28.0282532  44.7835739  22.4987474  25.1559854
  44.6057500  22.0464083  25.8814770  44.4954761  23.3013635  25.3398332
  44.7148692  22.5510032  25.2903357  46.5208209  25.0315198  22.2681613
  45.6553728  25.0200888  22.1564385  46.6207025  24.8445421  23.1152753
  46.4082376  25.0021259  22.3770558  44.7229521  27.7320822  25.3589251
  44.6253799  26.9217094  25.6679307  45.5058391  27.7112616  24.9735519
  44.8245658  27.6087913  25.3476113  10.6254869  14.9049602  32.4620755
  10.5948873  15.7594239  32.6339024  11.2236218  14.6044895  33.0206898
  10.7092027  14.9866099  32.5695557   3.8254554  13.9925253  37.2173685
   2.9692449  14.1533751  37.2682802   3.8722208  13.1217317  37.2378746
   3.7053665  13.8876055  37.2279751   3.6620654  23.9513340  28.4096464
   3.3272022  24.6290262  27.9740686   4.1747524  23.5618652  27.8213336
   3.6886235  23.9937919  28.2583255   3.2024945  25.9027609  34.3507575
   3.5864324  26.4714508  33.8112351   3.1384086  25.1777119  33.8713392
   3.2498372  25.8803072  34.2001438   6.6706375  16.0517297  39.8605337
   7.2162335  16.7302384  39.9199307   6.6123251  15.9104758  39.0006918
   6.7422289  16.1309299  39.7417397   8.4471444  17.4801904  30.7339065
   8.3310970  18.2309590  31.1631203   9.2427330  17.2225857  30.9835152
   8.5476033  17.5536751  30.8343156   0.3301769  21.4695927  32.0208407
   0.6517610  22.0101134  31.4169715   0.9773866  20.8992698  32.1530697
   0.4727824  21.4655102  31.9515442   2.3803477  13.4711922  32.1042794
   3.0783642  13.6500050  32.5964257   2.6955810  12.9482261  31.4813183
   2.5298814  13.4205694  32.0844804   2.5691413  19.8582367  32.0922585
   3.0085048  19.2499468  32.5377358   2.4196075  19.4789740  31.3208050
   2.6112878  19.7120838  32.0441753   2.5749147  21.2981285  38.9448303
   2.8572390  20.5032690  38.7235059   3.3035307  21.7761872  38.9653364
   2.7238711  21.2515882  38.9151318   6.1700749  18.2109548  29.0453354
   6.0852044  19.0670515  29.1902923   6.6585132  17.9353872  29.7135514
   6.2289646  18.2966870  29.1655436   7.7606749   4.8289842  34.4313679
   7.4460190   5.5193320  34.8634101   7.2433690   4.7734624  33.7299180
   7.6371219   4.9224730  34.3910628   7.1019182  14.8294342  30.5451090
   6.5730654  15.0453976  31.2048396   7.6244202  15.5230481  30.4652059
   7.1007635  14.9637479  30.6306689  12.5567235  20.4040647  35.9184134
  11.7264938  20.6151291  36.0817551  12.5076488  19.5777701  35.6426418
  12.4273971  20.3130253  35.9021499   3.4496005  14.9723211  27.8227478
   3.6892008  15.1801195  27.0102821   3.7711846  14.1680720  27.9316423
   3.5333163  14.8837313  27.7188031  12.0521194  13.0511048  39.7134555
  11.2149615  13.1213235  39.9482150  12.0209425  13.0535542  38.8408858
  11.9239476  13.0621275  39.6194103   2.7943079   6.3113337  31.4014153
   3.5229239   6.1329292  30.9552309   2.8837972   7.1531417  31.6121331
   2.9149741   6.4097215  31.3667671   6.7751379  17.2466724  35.3046447
   7.5308894  17.6798238  35.3435356   6.8813704  16.5971494  35.8781083
   6.9021550  17.2144208  35.3944472   9.8131551  21.0740001  36.0548850
   9.3766782  21.0776744  36.8107821   9.4794466  21.7545500  35.6228427
   9.6994170  21.1752457  36.1029682   4.5431017  25.0258436  41.0258456
   3.7446263  24.7857936  41.2832324   4.9917029  25.0772829  41.7725503
   4.4905629  24.9980827  41.1743380  12.9475897  17.7920921  34.9468487
  13.6092331  17.2311590  34.8464396  12.3067309  17.2972952  35.2721178
  12.9504764  17.6357330  34.9800827   3.8352704  21.0891053  27.2549410
   4.2503853  20.7576076  26.5633906   3.0044634  20.8559955  27.1269547
   3.7740713  21.0062309  27.1340258   9.2340727  18.8086304  34.6880476
   9.4696317  18.9531503  33.8607327   9.3830291  19.5728712  35.0811990
   9.2906531  18.9425358  34.6244080  11.0631184  17.6487970  32.5250080
  11.3939401  18.1815610  31.9190175  11.6364272  17.7026857  33.1812031
  11.1964863  17.7357538  32.5327861   6.2763073  15.4952872  33.2073660
   6.3709928  16.2342166  33.6613285   5.6521917  15.0670348  33.6408224
   6.1972103  15.5414193  33.3381807   6.5286095  17.3401612  26.4410612
   6.4466257  17.4103799  27.3065599   7.1665815  17.9031356  26.2494352
   6.6105932  17.4340583  26.5400561   4.9680316   9.2090801  36.0089231
   4.2636643   8.7199986  36.1673150   5.0165290   9.2213275  35.1377675
   4.8710367   9.1380449  35.9028571  12.1710536  12.8898466  34.0290241
  11.9147101  12.0778408  33.8388124  13.0139850  12.8976034  33.8020429
  12.2576561  12.7710464  33.9675058   3.6326205  17.3622066  29.4519218
   4.4466844  17.6536959  29.3401990   3.5685346  16.7081929  28.8777511
   3.7428944  17.3087261  29.3508056   9.8535695  20.0448062  43.8648794
   9.6174332  19.2136127  43.7460855  10.4978924  19.9933670  44.4503638
   9.9130366  19.9145750  43.9334687  10.8772116  19.8292511  39.9277088
  10.5717933  20.5620568  40.2890404  10.1578331  19.4230441  39.6469874
  10.7259458  19.8774244  39.9390225   1.8855585  21.3116006  36.2585317
   1.9594593  21.1491178  37.1127167   2.7025091  21.5006196  36.0145798
   2.0171944  21.3152749  36.3483342  16.5773908  16.4685512  39.2545433
  16.5098408  16.4881471  38.3848019  16.5629570  17.3115839  39.4801103
  16.5652664  16.5959247  39.1597910   0.4260171  24.2750749  30.9898790
   0.7158469  23.8839731  30.2658017   1.1563652  24.4567454  31.4304065
   0.5767055  24.2444563  30.9481597  14.3632525  15.2429898  37.5292027
  14.9140447  14.6097967  37.7689119  14.3476640  15.7745291  38.2207531
  14.4417721  15.2278846  37.6670885   8.0660931  13.4826232  36.6396623
   7.7225697  12.7616567  36.9903873   8.1653974  13.2740083  35.7974982
   8.0302974  13.3450435  36.5668303   8.5273960  19.9451936  32.1820611
   9.0931993  20.6045146  32.0979154   7.8801864  20.2901634  32.6537014
   8.5152717  20.0933877  32.2393368   4.9980538  22.8890720  31.6057691
   4.7567214  22.1558581  31.1984756   5.1781871  23.4377577  30.9524024
   4.9888162  22.8613111  31.4487914   6.5851897  11.4017817  38.5156166
   5.7462997  11.4279095  38.2794429   6.6556264  12.0488552  39.0961513
   6.4720290  11.5013942  38.5665283   5.0321175   8.3003194  33.2483782
   5.7347528   8.1010942  32.7703740   4.7665364   7.5279136  33.5552626
   5.0967807   8.1566160  33.2229224  10.4609421  16.6085803  35.8017408
  10.3743395  16.7641229  36.6552187  10.0059900  17.2523879  35.4276813
  10.3812677  16.7261558  35.8724515   4.3335237  13.9296550  34.4242967
   4.0869951  13.8492301  35.2579756   4.6620360  13.1450018  34.2305495
   4.3456480  13.8022816  34.5190491   8.2283285  20.6379910  38.2129749
   8.0897645  21.3360956  38.7178491   7.4483283  20.4828566  37.8565930
   8.0926512  20.7180076  38.2356023   9.7236658  19.9958164  28.9746248
   9.3443467  19.2095301  28.9675537   9.0602904  20.5445021  28.8317892
   9.5695133  19.9602988  28.9527045   1.8913320  25.0270684  41.9811468
   1.8156991  24.3579494  42.5362256   1.8203179  25.7288472  42.4952134
   1.8693926  25.0315591  42.1388316   2.5483566  23.5471683  32.8135074
   3.3133458  23.2781326  32.4917738   2.4461656  23.0621693  33.5305137
   2.6465062  23.4361247  32.8714902   5.0702227  20.5783866  24.7935023
   5.8375212  20.6383991  24.3840875   4.6233536  20.0064308  24.3091342
   5.1175654  20.5020442  24.6612734   5.9680022  19.3838522  37.0787756
   5.2925024  19.1523754  37.5801143   5.9772399  18.7759705  36.4529861
   5.8698527  19.2597447  37.0603908   7.9696757  22.2403655  29.3097934
   8.0516594  23.0470641  28.9859385   8.4546499  22.2599614  30.0338707
   8.0533915  22.3624317  29.3684832   1.7793260  16.9188490  37.9768012
   1.3555509  17.1192990  37.2407030   1.6038116  16.0717338  38.0892311
   1.6904141  16.8237272  37.8841702   1.2804954  28.4339003  40.4389469
   1.7700884  27.7349793  40.2565134   0.7089186  28.1362873  41.0265526
   1.2689484  28.2865227  40.4990510   3.6054850  16.7898426  32.2789347
   4.1470395  16.2868807  32.7427968   3.9201409  16.7363620  31.4678833
   3.7319247  16.7077846  32.2273159   1.7741300  22.1815777  29.5629375
   1.8434120  21.3230316  29.7022376   2.5529755  22.3987658  29.2348400
   1.8994150  22.0868641  29.5346533   6.1648787  24.6053478  33.7765869
   5.7728579  24.3020193  33.0588735   6.3201859  25.4422568  33.5870823
   6.1302377  24.6837315  33.6422366   6.3288462  21.1703467  33.7171899
   5.9703117  21.3418110  34.4935932   5.8427173  21.6316673  33.1599898
   6.2047159  21.2642438  33.7497168   1.1176827  16.8502633  26.2572134
   1.4069352  17.6267515  26.5315708   1.2048626  16.3391364  26.9586633
   1.1731084  16.8894551  26.4014632   7.4893201  22.0607363  44.6639100
   8.1272922  21.5667559  44.3301556   6.8467293  21.9884764  44.0791327
   7.4887428  21.9766372  44.5281455   9.2150201  13.9096509  39.2305016
   8.7877810  13.8222858  38.4753115   8.5776254  14.0174285  39.8159860
   9.0579809  13.9129169  39.2050457   7.5447458  22.7527171  41.3044457
   8.3339836  22.4016236  41.4246539   7.7191056  23.5663560  41.0421091
   7.6867740  22.8213029  41.2832325   9.6514970   7.3168492  35.3463641
   9.0389283   7.8038895  35.7317373   9.7479145   6.6411983  35.8901292
   9.5752867   7.2886801  35.4842499   3.6534051   9.0731334  30.4461140
   4.1077797   9.2441894  31.1708985   4.1274097   8.4599444  30.0458916
   3.7902371   9.0082219  30.4934902  13.2939998  18.3885429  40.7741157
  13.3523122  18.8372078  41.5201133  12.6606465  18.7984242  40.3371237
  13.2091293  18.5159164  40.8193705   6.9339092  24.0088971  37.2095903
   6.7358781  24.4979786  36.5152114   6.3126804  24.2130213  37.7880037
   6.8126657  24.1105509  37.1919126   0.9947071  15.7773868  31.5506147
   1.7389116  16.1648144  31.7889097   1.1407767  14.9331293  31.7146635
   1.1257656  15.7104341  31.6100117  10.2461677  16.4101717  38.8606847
  10.0059900  15.5708132  38.8649274  10.7253684  16.4901884  39.5847621
  10.2813861  16.2983117  38.9681650   5.9108446  12.2435896  30.5125821
   5.3831465  12.3264640  29.8231529   6.3704154  12.9853767  30.5090465
   5.9010297  12.3656558  30.4100516  12.2466864  13.1903174  36.8136106
  12.0076634  13.1499008  35.9756891  12.4100766  14.0374326  36.9401827
  12.2357168  13.3095259  36.7089588   8.8512894  17.5753123  42.7441151
   9.5747093  17.1225650  42.5652171   8.5862857  17.8557789  41.9613479
   8.9194168  17.5504092  42.6019867   5.4645529  20.8139459  29.6435478
   6.1879728  21.2797572  29.5000051   5.0246120  20.8813069  28.8933075
   5.5061221  20.8923296  29.5120259   3.8727981  18.7441272  38.6280465
   3.4455589  18.1190990  38.1945901   3.8652925  18.4616193  39.4539472
   3.8087122  18.6094052  38.6860293  11.2848208  16.5379534  41.2471701
  11.8766049  17.1776785  41.2789899  11.7207203  15.8402571  41.5363768
  11.4366640  16.5297885  41.2952534   3.1141598  20.9596907  41.8729595
   2.6066689  21.5132753  42.3170226   2.8168244  21.0205196  41.0548370
   2.9946483  21.0503218  41.8178052   5.7249379  24.8760164  29.8033539
   5.0078688  24.7021026  29.3380776   6.3756116  24.6412737  29.2709025
   5.7151229  24.8155957  29.6562757   8.3097350  13.7524753  33.5474844
   7.6388540  14.2954455  33.4187909   9.0037100  14.2219608  33.3056539
   8.3126217  13.9023024  33.4930371   2.3584084  25.8921465  38.7786602
   2.1349738  25.1340294  39.1470628   1.8693927  25.9219486  38.0567042
   2.2527533  25.7843689  38.7263343   8.4725477  10.2080636  36.4565217
   8.8253087   9.7810359  37.1311016   7.6140279  10.1231480  36.5866293
   8.3974922  10.1325377  36.5760227   1.0062540  26.1121923  36.2323687
   0.5922939  25.4496053  35.8427528   1.6909915  26.2599782  35.7119381
   1.0460912  26.0362581  36.0980184   4.3727835  25.2712008  36.9847303
   3.9744118  25.3814279  36.2168124   3.7579054  25.4794074  37.5673863
   4.2226724  25.3185576  36.9578603   2.9455737  11.8786156  29.8521443
   2.3520576  12.2003152  29.3006010   2.9831014  11.0327251  29.6442549
   2.8630126  11.8010484  29.7404214   5.8213553  11.8365660  33.2823193
   5.5927246  11.8598362  32.4401551   6.0811629  11.0123128  33.4018204
   5.8259741  11.7181740  33.1748391  12.1069677  19.8463975  30.3690394
  12.4903283  20.5955331  30.5988491  11.3113791  20.0929795  30.1102383
  12.0463459  19.9933669  30.3647967   8.5470259  10.8265598  33.5326352
   8.5464486  10.6714254  34.3910628   8.3426439  11.6728585  33.4767737
   8.5170037  10.9286219  33.6514291   6.2711111  15.5063100  37.1862558
   6.7664777  14.7886095  37.1466579   5.4610887  15.2033897  37.0717045
   6.2255005  15.3560746  37.1636284   1.7169723  19.3560913  29.3359563
   0.9081046  19.0327586  29.2892872   2.2244632  18.6494135  29.2687811
   1.6719390  19.2042229  29.3189857   8.3362930  18.2566787  39.8739687
   8.7618002  17.7341209  39.3210112   7.9719850  18.8547625  39.3528310
   8.3449533  18.2677014  39.7148697   4.9241530  21.9701051  36.2040845
   5.3952708  22.6841314  36.3730830   5.2601708  21.3699802  36.7400714
   5.0436645  21.9872516  36.3073221   5.5615476  21.7618986  42.9668537
   5.0136422  21.1376869  42.6988603   6.0228505  21.9513258  42.2512617
   5.5482685  21.6978036  42.8218968   0.9104140   8.7444935  30.6278404
   1.7319834   8.9143248  30.3860099   0.4473790   8.8992196  29.9044702
   0.9635302   8.7926668  30.4850049   5.1273802  22.7670058  39.4977878
   5.9472176  22.6233024  39.7594174   4.8467880  23.3916257  40.0394316
   5.2070546  22.8380410  39.6165818  14.7987138  29.5110561  37.2173685
  13.9425033  29.6719059  37.2682802  14.8454791  28.6402625  37.2378746
  14.6786249  29.4061363  37.2279751   9.1828277  39.0473279  32.9810917
   8.4311177  38.6688817  32.7526962   9.6314289  39.0791712  32.2329727
   9.1377944  38.9958886  32.8368419  18.1080854  35.7797087  46.8234141
  18.8147621  35.2849117  46.9521076  18.2968790  36.2206168  46.0936799
  18.2408760  35.7715437  46.7343187  14.6353237  39.4698648  28.4096464
  14.3004606  40.1475570  27.9740686  15.1480108  39.0803960  27.8213336
  14.6618818  39.5123227  28.2583255  14.1757528  41.4212917  34.3507575
  14.5596908  41.9899816  33.8112351  14.1116670  40.6962427  33.8713392
  14.2230956  41.3988380  34.2001438  17.6438959  31.5702605  39.8605337
  18.1894919  32.2487691  39.9199307  17.5855835  31.4290066  39.0006918
  17.7154873  31.6494607  39.7417397  10.7613033  39.0591671  35.2473689
  10.8623396  38.2492025  35.5570817  10.1654779  38.9648617  34.6173368
  10.6885572  38.9256699  35.1999928  19.4204027  32.9987212  30.7339065
  19.3043553  33.7494898  31.1631203  20.2159914  32.7411165  30.9835152
  19.5208617  33.0722059  30.8343156  10.6013773  43.9769260  36.6488545
  11.2451229  44.4182424  37.0384704  10.9270029  43.1722686  36.5618804
  10.7445602  43.9234455  36.6934023   3.9578078  35.0811958  34.8726023
   3.7228262  34.2479610  34.7658292   4.0963718  35.3616623  34.0587224
   3.9433740  34.9995461  34.7368378   6.2568165  27.2497688  37.7710331
   5.6373197  26.6590335  37.6020345   6.1552029  27.8409123  37.1374654
   6.1505841  27.2501771  37.6515320  11.3034353  36.9881235  32.0208407
  11.6250194  37.5286442  31.4169715  11.9506449  36.4178006  32.1530697
  11.4460408  36.9840410  31.9515442   5.9837298  30.7949970  40.0153900
   5.8595995  31.3812415  40.6503718   6.6355583  30.3010166  40.3166175
   6.0610948  30.8088774  40.1539829  13.5423996  35.3767675  32.0922585
  13.9817632  34.7684775  32.5377358  13.3928659  34.9975048  31.3208050
  13.5845462  35.2306146  32.0441753  11.0095639  33.9711687  39.2941411
  11.6544642  33.4784130  38.9752359  11.2497416  34.1136473  40.1207489
  11.1406224  33.9189129  39.3690944  13.5481731  36.8166593  38.9448303
  13.8304973  36.0217998  38.7235059  14.2767891  37.2947180  38.9653364
  13.6971294  36.7701190  38.9151318  11.5262924  24.3589627  36.1864068
  11.1966254  24.8100770  35.5167767  10.8507926  24.2805790  36.7337075
  11.3773361  24.4140762  36.1687292  17.1433333  33.7294856  29.0453354
  17.0584628  34.5855823  29.1902923  17.6317716  33.4539180  29.7135514
  17.2022230  33.8152178  29.1655436  18.7339332  20.3475149  34.4313679
  18.4192773  21.0378628  34.8634101  18.2166274  20.2919932  33.7299180
  18.6103803  20.4410038  34.3910628  23.5299819  35.9225955  35.9184134
  22.6997522  36.1336599  36.0817551  23.4809071  35.0963009  35.6426418
  23.4006554  35.8315561  35.9021499   9.9651374  34.2442867  29.3458558
   9.3808589  34.7492899  29.7524421   9.5621469  34.0185254  28.6055150
   9.8190678  34.2851115  29.2963583   5.5195402  39.9597628  36.1482229
   5.0362981  40.6848118  36.1241813   6.3318721  40.2573758  36.2592387
   5.5686150  40.1099982  36.1609508  11.5909556  38.7529809  38.7532044
  11.0736498  38.3937224  38.1493352  12.2883948  38.2291983  38.7638110
  11.6175138  38.6227497  38.6662302  15.2473148  39.2024623  44.7148217
  15.3356494  39.0150763  45.5626427  15.6762861  38.5562053  44.3153063
  15.3235251  39.0787631  44.7819968  12.8143608  38.4855783  43.6965879
  12.2514443  38.0728393  44.2205540  13.5764632  38.4108689  44.1159022
  12.8438057  38.4133184  43.8358879   9.7318878  22.4201915  31.6687016
  10.4864847  22.7880232  31.4304066   9.5546413  22.7941469  32.4366196
   9.8173357  22.5300103  31.7471905   8.3739600  40.4753804  36.3002509
   9.0760179  39.9605793  36.3575266   8.2937083  40.8027956  37.1049384
   8.4663360  40.4468030  36.4275301  23.0253777  28.5696355  39.7134555
  22.1882198  28.6398543  39.9482150  22.9942008  28.5720850  38.8408858
  22.8972060  28.5806583  39.6194103   9.4218506  30.7129391  45.4282924
   9.5939010  30.6035286  46.2768205   9.9587864  31.3583797  45.1914116
   9.5263510  30.7921393  45.5188021   8.0875943  24.8272234  28.3665129
   7.9051516  25.0444115  27.5406122   8.9501556  24.9411247  28.4223744
   8.1880533  24.8762132  28.2519616   7.6990375  36.6660156  35.8088117
   8.5379275  36.8983089  35.8561879   7.7302144  35.7964468  35.7395152
   7.8272093  36.5717103  35.8052762   8.3243078  37.0861031  40.1101423
   8.8641303  36.9432162  40.7804795   7.6413024  37.4857782  40.4785449
   8.3035232  37.1240702  40.2635844  13.7675662  21.8298645  31.4014153
  14.4961823  21.6514600  30.9552309  13.8570555  22.6716724  31.6121331
  13.8882324  21.9282523  31.3667671  17.7483963  32.7652032  35.3046447
  18.5041478  33.1983546  35.3435356  17.8546287  32.1156802  35.8781083
  17.8754134  32.7329516  35.3944472  20.7864134  36.5925309  36.0548850
  20.3499366  36.5962052  36.8107821  20.4527050  37.2730808  35.6228427
  20.6726754  36.6937765  36.1029682   3.7280223  33.3061322  40.2635844
   3.4618638  32.4900439  40.4226834   3.7418787  33.3514478  39.3931360
   3.6904945  33.1918227  40.1589326  20.7061617  23.6339137  38.2978278
  21.3487525  23.7037242  38.8840193  20.9584638  22.9668360  37.7957820
  20.8383749  23.5465486  38.3105557   7.6337970  28.1046407  26.8787602
   6.9196147  27.8184586  27.2910035   8.1181939  28.4443032  27.5193990
   7.5997333  28.1128056  27.0343237   8.4778830  26.8439700  42.9102852
   7.7850626  26.3736680  43.1563583   9.0939157  26.6178005  43.4844559
   8.4663359  26.7406832  43.0312004  15.5163601  40.5443744  41.0258456
  14.7178847  40.3043244  41.2832324  15.9649613  40.5958137  41.7725503
  15.4638212  40.5166135  41.1743380  23.9208480  33.3106229  34.9468487
  24.5824914  32.7496898  34.8464396  23.2799892  32.8158260  35.2721178
  23.9237348  33.1542638  34.9800827  14.8085288  36.6076361  27.2549410
  15.2236437  36.2761384  26.5633906  13.9777218  36.3745263  27.1269547
  14.7473297  36.5247617  27.1340258   4.1373637  34.0920102  37.5447588
   3.9549210  34.0666988  36.6919881   4.8723306  34.5619039  37.5836497
   4.2187701  34.1581464  37.4245507  20.2073311  34.3271612  34.6880476
  20.4428900  34.4716810  33.8607327  20.3562875  35.0914020  35.0811990
  20.2639114  34.4610666  34.6244080   7.2019388  30.8105104  44.0529697
   7.9259361  30.7958135  44.5394592   7.3035525  31.5200460  43.5551665
   7.3237598  30.9129808  44.0508484  22.0363768  33.1673277  32.5250080
  22.3671985  33.7000918  31.9190175  22.6096856  33.2212165  33.1812031
  22.1697447  33.2542846  32.5327861  15.5048131  34.1924393  43.8563941
  16.0786992  33.5551637  44.0112505  15.4262934  34.1928475  42.9873598
  15.5781366  34.0989504  43.7510352   4.1044547  30.9713602  37.6946655
   4.6818050  30.8350053  38.3338900   3.4058609  30.5149386  37.9492239
   4.0865569  30.8835868  37.8268945  17.5018678  32.8586920  26.4410612
  17.4198841  32.9289107  27.3065599  18.1398399  33.4216664  26.2494352
  17.5838516  32.9525891  26.5400561  10.8611849  32.6247658  35.9085138
  10.6031094  31.7919393  35.8816438  10.9160332  32.8505271  35.0677638
  10.8311627  32.5345429  35.7805275  15.9412900  24.7276109  36.0089231
  15.2369226  24.2385294  36.1673150  15.9897874  24.7398583  35.1377675
  15.8442951  24.6565757  35.9028571   9.8346561  30.1785420  36.3950033
   9.2596153  30.3377589  37.0313994   9.4582238  29.5420830  35.9318483
   9.6949374  30.1083233  36.4204591  13.5019850  28.6508770  41.2542411
  13.1134283  28.2262987  40.5994602  12.8374548  28.8990919  41.7619438
  13.3466778  28.6247491  41.2330279  17.3246212  22.3483398  38.7666396
  17.7056723  21.6661570  39.1534270  16.5209496  22.0593001  38.5842060
  17.2622673  22.2050447  38.7970451  20.8268279  35.5633370  43.8648794
  20.5906916  34.7321435  43.7460855  21.4711507  35.5118978  44.4503638
  20.8862949  35.4331058  43.9334687  10.4766697  36.3528892  34.5791530
  11.1140644  36.1140639  35.1243324  10.9021768  36.5566051  33.8444691
  10.6342863  36.3479902  34.5508688   5.1679339  38.5917228  38.4625834
   5.2083484  38.8632079  37.6345614   5.7273863  39.1159136  38.8783622
   5.2562685  38.7092983  38.4017722  11.1169512  31.5731182  28.9166420
  11.5014664  31.3538888  29.6682965  10.8681132  32.3994127  29.0467496
  11.1371584  31.6629328  29.0467496  21.8504699  35.3477819  39.9277088
  21.5450516  36.0805876  40.2890404  21.1310915  34.9415749  39.6469874
  21.6992041  35.3959552  39.9390225  12.8588169  36.8301314  36.2585317
  12.9327177  36.6676486  37.1127167  13.6757675  37.0191504  36.0145798
  12.9904527  36.8338057  36.3483342  27.5506491  31.9870820  39.2545433
  27.4830992  32.0066779  38.3848019  27.5362154  32.8301147  39.4801103
  27.5385248  32.1144555  39.1597910   6.6193925  37.1759177  33.2879760
   5.7932043  37.4220914  33.1614039   6.6805917  37.0971258  34.1541818
   6.5068092  37.2004126  33.3968705   8.8369949  23.2428118  34.2475200
   7.9692374  23.3150718  34.3132809   9.1245153  24.0450197  34.4363175
   8.7509697  23.3722265  34.2849967  17.9602838  23.3905978  42.5786522
  18.7056430  23.2015788  42.1649947  17.5440142  23.9164216  42.0200378
  18.0087812  23.4408123  42.4351095  11.3992754  39.7936057  30.9898790
  11.6891053  39.4025039  30.2658017  12.1296235  39.9752762  31.4304065
  11.5499639  39.7629871  30.9481597  25.3365109  30.7615206  37.5292027
  25.8873030  30.1283275  37.7689119  25.3209224  31.2930599  38.2207531
  25.4150305  30.7464154  37.6670885  11.9887500  34.5953803  42.0751920
  11.4899193  35.3069571  42.1536809  12.7987724  34.9154470  42.0370083
  12.0343606  34.7480652  42.0808489   9.3398670  41.7703440  34.0558940
   9.1198965  41.4800795  34.8485607   9.1193192  41.1118395  33.5276852
   9.2746264  41.6303148  34.0947848   8.2515617  33.8576756  36.3214641
   7.9628866  33.2314228  36.8560369   9.1198965  33.7997044  36.3879322
   8.3375869  33.7564301  36.4105596  11.5066626  43.1432830  32.8389632
  12.1590684  42.6109272  33.0680658  10.8092234  42.7901482  33.2257506
  11.4997344  43.0122353  32.9301800   8.4547890  35.4972007  32.2457006
   9.2093858  35.8785046  32.4592469   7.8618503  35.9483151  32.7003703
   8.4784604  35.6200835  32.3439885  19.5006544  35.4637244  32.1820611
  20.0664577  36.1230454  32.0979154  18.8534447  35.8086942  32.6537014
  19.4885300  35.6119185  32.2393368  10.9154557  27.4534848  47.3714219
  10.1054333  27.7592627  47.2604061  11.3929244  28.1740430  47.4866803
  10.8658036  27.6049449  47.3721290   9.7746117  36.6680569  37.6197122
   9.2526871  36.8080860  38.3048987  10.1620137  35.9091233  37.8099239
   9.7549818  36.5766093  37.7498198   6.7637301  26.7186377  31.6892076
   6.4762097  26.3487648  30.9524024   7.4507769  27.1881233  31.4275781
   6.8226198  26.7333347  31.5407152  15.9713122  38.4076028  31.6057691
  15.7299798  37.6743889  31.1984756  16.1514455  38.9562885  30.9524024
  15.9620746  38.3798419  31.4487914  11.2012443  33.6984588  33.0178613
  11.0055225  34.3059322  32.4238916  11.4246788  33.0052532  32.5370287
  11.2047084  33.6862113  32.8594694   9.5990973  30.5839326  33.1359481
  10.3213625  30.7480484  32.6763287   9.1198965  31.3048991  33.0298821
   9.6354703  30.7137555  33.0525095  17.5584480  26.9203124  38.5156166
  16.7195581  26.9464403  38.2794429  17.6288848  27.5673860  39.0961513
  17.4452874  27.0199250  38.5665283   7.2498589  32.9897398  42.2413621
   7.7619686  33.2681651  41.5922381   6.9634932  33.7286692  42.6076434
   7.2833453  33.1399752  42.2003499  16.0053759  23.8188502  33.2483782
  16.7080111  23.6196250  32.7703740  15.7397947  23.0464444  33.5552626
  16.0700391  23.6751468  33.2229224  21.4342004  32.1271111  35.8017408
  21.3475979  32.2826537  36.6552187  20.9792484  32.7709187  35.4276813
  21.3545261  32.2446866  35.8724515   4.3365496  27.4967590  32.5377358
   4.4381632  28.2993751  32.8658333   5.1321382  27.2954926  32.2400438
   4.4693401  27.5853489  32.5412713  10.7682315  25.0823787  42.3014663
  10.5765512  25.0978921  43.1514086  11.6180911  25.2787461  42.2781318
  10.8658037  25.1138138  42.4237957   5.1529228  27.6114768  40.2798479
   5.0114720  26.7598709  40.4042987   5.4369791  27.6543429  39.4560685
   5.1737074  27.4914518  40.1766103  15.3067820  29.4481858  34.4242967
  15.0602534  29.3677609  35.2579756  15.6352943  28.6635326  34.2305495
  15.3189064  29.3208124  34.5190491  19.2015869  36.1565218  38.2129749
  19.0630228  36.8546263  38.7178491  18.4215867  36.0013874  37.8565930
  19.0659096  36.2365384  38.2356023  17.5393954  32.4561593  44.4652130
  17.5341993  31.5841410  44.4694557  18.2454948  32.6549762  43.9921586
  17.6438958  32.3565467  44.3959166  11.2664847  32.1838577  43.8365950
  11.4108223  32.7639785  43.2009061  11.6140496  32.5614874  44.5415805
  11.3392309  32.3259281  43.8464945  13.4384765  31.3828745  41.6191082
  12.6908079  31.5759760  41.2139360  13.5926290  30.5573965  41.3815203
  13.3507192  31.2893857  41.5236488  10.3392602  40.3741349  40.7026977
  10.4882166  39.8144265  40.0500382  11.1192605  40.4533350  41.0859496
  10.4766696  40.3026914  40.6623926  20.6969242  35.5143471  28.9746248
  20.3176051  34.7280609  28.9675537  20.0335487  36.0630328  28.8317892
  20.5427717  35.4788295  28.9527045  12.8645903  40.5455992  41.9811468
  12.7889574  39.8764802  42.5362256  12.7935762  41.2473780  42.4952134
  12.8426510  40.5500899  42.1388316  13.6786542  25.2779296  42.5086486
  14.1359156  26.0103270  42.6359278  13.7542871  24.8545761  43.2673742
  13.7577512  25.3236534  42.6387562   5.9219533  25.5245116  43.5975930
   5.3861723  24.9125474  43.9136697   5.9837298  26.0993252  44.2509596
   5.8515166  25.5192044  43.7411356  18.1513868  18.4569171  36.3780329
  18.2697436  18.9145635  35.6447631  17.9776043  17.6514432  36.0916546
  18.1433039  18.4062943  36.2281262  13.5216150  39.0656991  32.8135074
  14.2866041  38.7966634  32.4917738  13.4194240  38.5807001  33.5305137
  13.6197645  38.9546555  32.8714902  11.5568920  27.2681400  39.3528310
  10.7664995  27.0872860  39.6745646  11.9529543  26.4908353  39.3358604
  11.4985796  27.1268861  39.3980858  16.0434811  36.0969174  24.7935023
  16.8107796  36.1569299  24.3840875  15.5966120  35.5249616  24.3091342
  16.0908238  36.0205750  24.6612734  16.9412606  34.9023830  37.0787756
  16.2657608  34.6709062  37.5801143  16.9504982  34.2945013  36.4529861
  16.8431111  34.7782755  37.0603908  14.0706750  29.7441659  43.8351809
  14.0065891  30.6051616  43.7071945  14.2103938  29.4273652  43.0347360
  14.0822220  29.8241826  43.6980022  18.9429341  37.7588963  29.3097934
  19.0249178  38.5655949  28.9859385  19.4279083  37.7784922  30.0338707
  19.0266499  37.8809625  29.3684832  12.7525844  32.4373798  37.9768012
  12.3288093  32.6378297  37.2407030  12.5770699  31.5902646  38.0892311
  12.6636725  32.3422580  37.8841702  12.2537537  43.9524311  40.4389469
  12.7433468  43.2535101  40.2565134  11.6821770  43.6548181  41.0265526
  12.2422067  43.8050535  40.4990510   8.0408289  32.9325850  33.4095984
   8.1972908  32.8672653  34.2651976   8.3808882  33.7074402  33.1974664
   8.1141524  33.0375048  33.5050578  14.5787434  32.3083733  32.2789347
  15.1202979  31.8054115  32.7427968  14.8933993  32.2548928  31.4678833
  14.7051831  32.2263154  32.2273159  12.7473883  37.7001085  29.5629375
  12.8166704  36.8415623  29.7022376  13.5262338  37.9172966  29.2348400
  12.8726733  37.6053949  29.5346533  15.7276703  27.2020038  42.3311648
  15.9418672  26.5630952  41.7775002  15.1110602  27.6465862  41.9019510
  15.6682032  27.1730182  42.1862079  17.1381371  40.1238786  33.7765869
  16.7461163  39.8205501  33.0588735  17.2934443  40.9607876  33.5870823
  17.1034961  40.2022623  33.6422366   4.6142550  30.1160800  33.7256751
   4.9941515  30.5345345  33.0617019   4.0397915  30.6974256  34.0325595
   4.5853875  30.2638659  33.6733492  17.8915791  28.8109103  43.2694955
  17.0792473  28.5034994  43.3508128  18.3505726  28.3308103  43.8337667
  17.8396176  28.6945596  43.3649549  17.3021046  36.6888775  33.7171899
  16.9435700  36.8603418  34.4935932  16.8159756  37.1501981  33.1599898
  17.1779742  36.7827746  33.7497168  15.1191432  20.3119974  37.3198991
  14.2484989  20.2858695  37.2732300  15.3731773  20.1397166  36.5024836
  15.0284992  20.2830117  37.1919127  12.0909411  32.3687941  26.2572134
  12.3801936  33.1452823  26.5315708  12.1781210  31.8576672  26.9586633
  12.1463667  32.4079859  26.4014632  14.9869298  30.2169175  48.0523657
  15.4568930  30.8411291  48.4391531  15.0331179  29.5486150  48.6116872
  15.0637174  30.2103855  48.1923729  12.1440572  22.3226202  38.7772461
  11.6279061  21.6306394  38.9024040  11.5834501  22.9896979  38.7235060
  11.9847085  22.3189460  38.7878527  14.2132806  22.8619162  40.6065314
  13.8264559  22.8868194  41.3878844  13.7265743  22.2960841  40.1539830
  14.0845314  22.7814913  40.6553217  18.4625785  37.5792671  44.6639100
  19.1005505  37.0852867  44.3301556  17.8199877  37.5070072  44.0791327
  18.4620011  37.4951680  44.5281455  20.1882785  29.4281817  39.2305016
  19.7610393  29.3408166  38.4753115  19.5508838  29.5359593  39.8159860
  20.0312392  29.4314477  39.2050457  13.8789947  19.7486148  42.8975574
  14.5083065  20.2846448  42.6196644  14.0475810  19.6563507  43.7489139
  13.9967742  19.8147510  42.9824102  13.6803862  24.5357342  45.1701985
  14.5077291  24.2642491  45.2260600  13.7011708  25.3318184  45.5265803
  13.8056712  24.6137097  45.2317168  18.5180042  38.2712479  41.3044457
  19.3072420  37.9201544  41.4246539  18.6923639  39.0848868  41.0421091
  18.6600323  38.3398336  41.2832325   8.2573352  31.6821205  38.3572246
   7.4161359  31.5825079  38.5651140   8.4663360  32.4516685  38.7086566
   8.1638045  31.7813248  38.4399561   5.7348919  29.3040742  36.1856996
   5.3405617  29.3783754  35.4107106   5.1789036  29.6898688  36.7365358
   5.5951731  29.3722517  36.1524656  17.3713866  22.2822036  35.8660875
  17.5763459  22.2144344  36.7117872  17.0440290  23.0880857  35.7982053
  17.3529114  22.3907976  35.9820530  12.0690017  29.6102604  37.6069843
  11.7653154  29.0558593  38.2080251  11.3669438  29.7894814  37.1197878
  11.9206227  29.5547387  37.6239549  11.1256114  26.9203124  32.1714545
  11.4015848  26.2022037  31.7592113  11.7254783  27.5188044  31.9635651
  11.2549379  26.9023495  32.0795306  10.1308368  36.8252325  42.3141941
  10.0228723  36.8354387  43.1803999  10.3404149  37.6507105  42.1246895
  10.1458479  36.9493400  42.4146033  20.6247553  22.8353800  35.3463641
  20.0121867  23.3224202  35.7317373  20.7211728  22.1597291  35.8901292
  20.5485451  22.8072109  35.4842499  14.6266634  24.5916641  30.4461140
  15.0810381  24.7627202  31.1708985  15.1006680  23.9784752  30.0458916
  14.7634955  24.5267527  30.4934902   8.1482160  34.0764967  39.7763879
   7.5570093  34.7174466  39.7466894   8.9103183  34.5002585  39.7495178
   8.1730420  34.2340806  39.7679026   8.5442783  25.2366965  40.4431896
   9.0044264  25.3105895  41.1807020   8.5898889  26.0348219  40.0931718
   8.6193338  25.3661112  40.5004653  10.1926132  25.9033660  45.0103923
   9.8011697  25.2567007  45.4459701  10.3611995  26.4945095  45.6298179
  10.1597043  25.8947928  45.1666629  24.2672581  33.9070737  40.7741157
  24.3255705  34.3557386  41.5201133  23.6339049  34.3169550  40.3371237
  24.1823876  34.0344472  40.8193705  17.9071676  39.5274279  37.2095903
  17.7091365  40.0165093  36.5152114  17.2859387  39.7315520  37.7880037
  17.7859240  39.6290817  37.1919126  11.9679654  31.2959176  31.5506147
  12.7121699  31.6833452  31.7889097  12.1140351  30.4516601  31.7146635
  12.0990240  31.2289649  31.6100117  13.8859230  23.0909435  36.5838009
  13.0395275  23.2632242  36.4579359  13.8830362  22.2858778  36.9203837
  13.7606380  22.9970464  36.6149136  14.9557530  26.8684649  37.4500067
  14.4817485  26.3426411  37.9605378  15.3275666  26.3214122  36.8814928
  14.9407419  26.7100646  37.4415214   5.3330560  28.8656156  42.8183613
   6.1956173  28.7651865  42.7320942   5.0022343  28.2850865  42.2569185
   5.4115757  28.7647783  42.7229018  21.2194261  31.9287025  38.8606847
  20.9792484  31.0893440  38.8649274  21.6986268  32.0087191  39.5847621
  21.2546445  31.8168424  38.9681650  23.2199448  28.7088482  36.8136106
  22.9809218  28.6684316  35.9756891  23.3833349  29.5559634  36.9401827
  23.2089751  28.8280567  36.7089588  19.8245478  33.0938431  42.7441151
  20.5479677  32.6410958  42.5652171  19.5595440  33.3743097  41.9613479
  19.8926751  33.0689400  42.6019867   8.6932346  27.6898605  39.4794031
   8.0685417  27.7016997  38.8719983   8.3577941  28.1658780  40.1285271
   8.5517838  27.7617122  39.4850599   8.8774095  26.0323723  25.5366716
   8.5286899  26.6843449  25.9998265   8.3970541  26.0180836  24.8090587
   8.7544339  26.1266777  25.4977807  16.4378112  36.3324767  29.6435478
  17.1612311  36.7982880  29.5000051  15.9978703  36.3998377  28.8933075
  16.4793805  36.4108604  29.5120259  15.6064267  33.1922310  40.8936167
  14.9921261  32.6480360  41.1884802  16.1231552  32.6786546  40.4141983
  15.5919930  33.0358719  40.8660395  14.8460565  34.2626580  38.6280465
  14.4188173  33.6376298  38.1945901  14.8385509  33.9801501  39.4539472
  14.7819706  34.1279360  38.6860293   7.9623092  29.2991753  41.6968899
   8.1216578  28.5435077  42.1020621   7.7815985  29.8482692  42.3509637
   7.9588451  29.2685566  41.8531605  15.9043395  21.4652988  42.2519689
  15.4083956  21.6616662  41.5611255  16.6612457  21.8645656  42.0808490
  15.9430219  21.5530722  42.1239825  13.1746274  25.1395334  38.8422999
  13.1988762  24.6055446  38.1535779  13.4257748  24.6312643  39.5048590
  13.2156193  24.9856238  38.8387644   9.4547597  23.8666152  38.2228744
   9.4945968  24.3675359  38.9363451   8.6297261  23.9576546  37.9534667
   9.3387123  23.9547969  38.2879282  11.6377209  33.4326892  46.3249038
  10.7872840  33.5698607  46.4606683  11.8005337  32.6990671  46.7696740
  11.5361073  33.3440994  46.4104637  10.8761960  30.3826662  40.5202643
  10.0453890  30.5500480  40.3137891  10.8213477  30.0062613  41.3051528
  10.7451375  30.3516393  40.6051171   8.6845743  23.8735555  46.1559053
   9.3098447  23.3297688  46.4288486   8.2296223  23.3930473  45.5866844
   8.7094004  23.7225036  46.1120647   9.2498004  28.6582254  31.0492760
   9.3900965  29.1554718  31.7521402   9.7480537  27.9568548  31.1906974
   9.3439085  28.6284232  31.1744339   9.2798226  29.5249365  28.3785337
   9.9143306  30.1209790  28.3134799   9.3623837  29.2252822  29.1931207
   9.3854777  29.5690273  28.4888424  22.2580792  32.0564842  41.2471701
  22.8498632  32.6962093  41.2789899  22.6939786  31.3587879  41.5363768
  22.4099223  32.0483192  41.2952534  10.8577209  25.4563340  28.3530779
  11.1793050  24.9766423  27.6990041  11.1204153  26.2662986  28.1621591
  10.9443234  25.5053238  28.2286271  14.0874182  36.4782214  41.8729595
  13.5799273  37.0318061  42.3170226  13.7900828  36.5390504  41.0548370
  13.9679067  36.5688526  41.8178052  16.2536364  24.8435534  40.7154258
  16.6791436  24.3908061  40.1037785  15.6393357  24.2895605  40.9919046
  16.2265009  24.6949510  40.6659283   5.7851214  31.7217205  31.6474883
   6.2943443  32.3181713  32.0286189   6.2585486  31.4543179  30.9651303
   5.9294590  31.7703021  31.6029406  16.6981962  40.3945472  29.8033539
  15.9811272  40.2206334  29.3380776  17.3488700  40.1598044  29.2709025
  16.6883813  40.3341265  29.6562757  14.6930587  21.3150634  34.1244835
  14.0498905  21.1648280  34.6929974  14.3529994  21.0692979  33.3593940
  14.5475664  21.2562756  34.0947850  13.3316667  41.4106773  38.7786602
  13.1082322  40.6525602  39.1470628  12.8426510  41.4404794  38.0567042
  13.2260116  41.3028997  38.7263343   8.1441746  28.3573464  34.5148063
   7.4253735  28.7737597  34.7820927   8.5154108  28.9227703  33.9639702
   8.0933678  28.5022745  34.4730870  17.4441327  28.9901313  40.4050059
  17.4239254  28.8084608  41.2584838  17.4920527  29.8613331  40.3809643
  17.4475968  29.0917851  40.5273354  15.3887656  35.5788505  46.3298536
  15.3483511  34.9338182  45.7443692  16.2010975  35.5225122  46.6423948
  15.5030810  35.4747472  46.2895485  11.9795124  41.6307231  36.2323687
  11.5655523  40.9681361  35.8427528  12.6642498  41.7785090  35.7119381
  12.0193496  41.5547889  36.0980184  15.3460418  40.7897316  36.9847303
  14.9476701  40.8999586  36.2168124  14.7311638  40.9979382  37.5673863
  15.1959307  40.8370884  36.9578603  20.8782121  20.8484356  37.3849529
  20.3712986  20.1413496  37.3170707  21.6749555  20.5177545  37.5150606
  20.9209360  20.6957508  37.3948524  11.0765365  29.2085441  42.8848293
  10.5644268  28.6006624  43.2433325  10.9044861  29.9242034  43.3522269
  10.9755002  29.2248741  43.0064517   9.8490899  25.8927515  34.5777389
  10.3248266  26.2544595  33.9427570   9.3479499  26.5483982  34.8577532
   9.8456258  26.0421703  34.5254130  23.0802261  35.3649283  30.3690394
  23.4635867  36.1140639  30.5988491  22.2846374  35.6115102  30.1102383
  23.0196043  35.5118977  30.3647967  14.9534436  27.1309686  45.3250549
  15.5105866  26.9023496  44.6929014  14.6295501  27.8915352  45.0485761
  14.9880846  27.2093523  45.1907046   2.8233144  30.5569882  40.7939145
   2.2759864  29.8870528  40.9120013   3.6125523  30.1899730  40.8582612
   2.8585328  30.4034869  40.8207846  12.6717553  30.2177339  46.2902556
  13.4228880  30.5329016  46.6042110  12.8640129  30.0156510  45.4636478
  12.8108967  30.2344721  46.2145952  11.8917552  28.0368715  27.9450773
  12.2716517  28.0548344  27.1601888  11.1510148  28.4822703  27.8241620
  11.8386390  28.1050489  27.8114341   1.5820114  29.7690690  37.9485168
   1.4041875  29.3167299  38.6740084   1.2939136  30.5716852  38.1323646
   1.5133067  29.8213248  38.0828671  17.2443695  31.0248408  37.1862558
  17.7397360  30.3071403  37.1466579  16.4343471  30.7219205  37.0717045
  17.1987588  30.8746054  37.1636284  12.6902306  34.8746221  29.3359563
  11.8813629  34.5512894  29.2892872  13.1977215  34.1679443  29.2687811
  12.6451973  34.7227537  29.3189857   3.3192584  32.3018414  35.0606927
   2.4538103  32.2904104  34.9489698   3.4191400  32.1148637  35.9078066
   3.2066751  32.2724475  35.1695872  19.3095514  33.7752095  39.8739687
  19.7350585  33.2526517  39.3210112  18.9452434  34.3732932  39.3528310
  19.3182116  33.7862322  39.7148697   8.9449594  42.0716313  38.6337033
   9.2596153  42.8852701  38.6414814   9.3543007  41.6866531  39.3019192
   9.0517692  42.1345015  38.7341124  15.8974113  37.4886359  36.2040845
  16.3685291  38.2026622  36.3730830  16.2334292  36.8885109  36.7400714
  16.0169228  37.5057824  36.3073221  12.8143608  22.2613830  43.1598939
  12.9471514  21.4644823  43.4879915  13.1988761  22.7880233  43.7397215
  12.8899937  22.2213747  43.2942442  16.5348060  37.2804293  42.9668537
  15.9869006  36.6562177  42.6988603  16.9961088  37.4698565  42.2512617
  16.5215269  37.2163344  42.8218968  15.8875963  19.1844156  39.7580033
  15.0821927  19.0741886  40.0747871  15.7582699  19.2856612  38.9009898
  15.7496096  19.1827826  39.6788073  19.3441924  25.3489648  40.3519730
  18.7604913  25.8498854  39.9397297  19.6646218  24.8419204  39.7184053
  19.3055099  25.3481483  40.1978237  11.8836723  24.2630243  30.6278404
  12.7052417  24.4328556  30.3860099  11.4206374  24.4177504  29.9044702
  11.9367885  24.3111976  30.4850049  10.4732055  22.2573005  41.4076833
  11.0176468  21.9164132  41.9981175  10.5268991  23.1158466  41.5498118
  10.5621174  22.3328264  41.5158707   6.2862614  36.0189421  38.2815641
   6.8907471  35.9785255  37.6529462   6.0789926  36.8660573  38.3119697
   6.3451511  36.1377423  38.1931758  16.1006386  38.2855366  39.4977878
  16.9204760  38.1418332  39.7594174  15.8200464  38.9101565  40.0394316
  16.1803129  38.3565718  39.6165818   1.5213896  35.0024039  38.1514564
   1.4238174  34.1920310  38.4604621   2.3042766  34.9815832  37.7660832
   1.6230033  34.8791129  38.1401427  32.5720036  45.9420218  32.4620755
  32.5414041  46.7964855  32.6339024  33.1701385  45.6415510  33.0206898
  32.6557194  46.0236714  32.5695557  25.7719721  45.0295869  37.2173685
  24.9157617  45.1904367  37.2682802  25.8187375  44.1587933  37.2378746
  25.6518833  44.9246671  37.2279751  30.3936611  48.5172520  30.7339065
  30.2776137  49.2680206  31.1631203  31.1892497  48.2596473  30.9835152
  30.4941200  48.5907367  30.8343156  17.2300749  42.7682996  37.7710331
  16.6105780  42.1775643  37.6020345  17.1284612  43.3594431  37.1374654
  17.1238424  42.7687079  37.6515320  24.3268644  44.5082538  32.1042794
  25.0248809  44.6870665  32.5964257  24.6420977  43.9852877  31.4813183
  24.4763982  44.4576310  32.0844804  22.4995508  39.8774935  36.1864068
  22.1698838  40.3286078  35.5167767  21.8240510  39.7991098  36.7337075
  22.3505944  39.9326070  36.1687292  28.1165916  49.2480164  29.0453354
  28.0317211  50.1041131  29.1902923  28.6050300  48.9724488  29.7135514
  28.1754814  49.3337486  29.1655436  29.7071916  35.8660457  34.4313679
  29.3925357  36.5563936  34.8634101  29.1898857  35.8105240  33.7299180
  29.5836386  35.9595346  34.3910628  29.0484350  45.8664958  30.5451090
  28.5195821  46.0824592  31.2048396  29.5709369  46.5601097  30.4652059
  29.0472803  46.0008095  30.6306689  25.3961172  46.0093827  27.8227478
  25.6357175  46.2171811  27.0102821  25.7177013  45.2051336  27.9316423
  25.4798330  45.9207928  27.7188031  20.7051462  37.9387223  31.6687016
  21.4597430  38.3065540  31.4304066  20.5278997  38.3126777  32.4366196
  20.7905940  38.0485411  31.7471905  19.0608527  40.3457542  28.3665129
  18.8784100  40.5629423  27.5406122  19.9234140  40.4596555  28.4223744
  19.1613116  40.3947440  28.2519616  24.7408246  37.3483953  31.4014153
  25.4694406  37.1699908  30.9552309  24.8303139  38.1902032  31.6121331
  24.8614908  37.4467831  31.3667671  28.7216547  48.2837340  35.3046447
  29.4774062  48.7168854  35.3435356  28.8278871  47.6342110  35.8781083
  28.8486717  48.2514824  35.3944472  31.6794201  39.1524445  38.2978278
  32.3220109  39.2222550  38.8840193  31.9317221  38.4853668  37.7957820
  31.8116333  39.0650794  38.3105557  18.6070554  43.6231715  26.8787602
  17.8928731  43.3369894  27.2910035  19.0914522  43.9628340  27.5193990
  18.5729917  43.6313364  27.0343237  19.4511413  42.3625008  42.9102852
  18.7583210  41.8921988  43.1563583  20.0671740  42.1363313  43.4844559
  19.4395943  42.2592140  43.0312004  33.0096351  48.6858585  32.5250080
  33.3404568  49.2186226  31.9190175  33.5829439  48.7397473  33.1812031
  33.1430030  48.7728154  32.5327861  28.2228240  46.5323488  33.2073660
  28.3175095  47.2712782  33.6613285  27.5987084  46.1040964  33.6408224
  28.1437271  46.5784809  33.3381807  28.4751262  48.3772228  26.4410612
  28.3931424  48.4474415  27.3065599  29.1130982  48.9401972  26.2494352
  28.5571099  48.4711199  26.5400561  21.8344433  48.1432966  35.9085138
  21.5763677  47.3104701  35.8816438  21.8892916  48.3690579  35.0677638
  21.8044211  48.0530737  35.7805275  26.9145483  40.2461417  36.0089231
  26.2101810  39.7570602  36.1673150  26.9630457  40.2583891  35.1377675
  26.8175535  40.1751065  35.9028571  20.8079145  45.6970728  36.3950033
  20.2328736  45.8562897  37.0313994  20.4314821  45.0606137  35.9318483
  20.6681957  45.6268541  36.4204591  34.1175703  43.9269082  34.0290241
  33.8612268  43.1149024  33.8388124  34.9605017  43.9346649  33.8020429
  34.2041728  43.8081080  33.9675058  28.2978795  37.8668706  38.7666396
  28.6789307  37.1846877  39.1534270  27.4942080  37.5778308  38.5842060
  28.2355257  37.7235755  38.7970451  25.5791372  48.3992682  29.4519218
  26.3932011  48.6907575  29.3401990  25.5150513  47.7452545  28.8777511
  25.6894111  48.3457877  29.3508056  22.0902095  47.0916489  28.9166420
  22.4747248  46.8724196  29.6682965  21.8413716  47.9179435  29.0467496
  22.1104168  47.1814636  29.0467496  19.8102533  38.7613426  34.2475200
  18.9424958  38.8336026  34.3132809  20.0977737  39.5635505  34.4363175
  19.7242281  38.8907573  34.2849967  28.9335421  38.9091285  42.5786522
  29.6789013  38.7201096  42.1649947  28.5172726  39.4349523  42.0200378
  28.9820396  38.9593431  42.4351095  30.0126098  44.5196848  36.6396623
  29.6690864  43.7987183  36.9903873  30.1119141  44.3110699  35.7974982
  29.9768141  44.3821051  36.5668303  17.7369885  42.2371685  31.6892076
  17.4494680  41.8672956  30.9524024  18.4240353  42.7066541  31.4275781
  17.7958782  42.2518655  31.5407152  20.5723556  46.1024634  33.1359481
  21.2946208  46.2665792  32.6763287  20.0931549  46.8234298  33.0298821
  20.6087287  46.2322863  33.0525095  28.5317064  42.4388432  38.5156166
  27.6928164  42.4649711  38.2794429  28.6021431  43.0859168  39.0961513
  28.4185457  42.5384558  38.5665283  26.9786342  39.3373809  33.2483782
  27.6812695  39.1381558  32.7703740  26.7130531  38.5649752  33.5552626
  27.0432974  39.1936775  33.2229224  15.3098079  43.0152898  32.5377358
  15.4114216  43.8179059  32.8658333  16.1053966  42.8140234  32.2400438
  15.4425985  43.1038797  32.5412713  21.7414898  40.6009095  42.3014663
  21.5498095  40.6164229  43.1514086  22.5913494  40.7972769  42.2781318
  21.8390620  40.6323446  42.4237957  16.1261811  43.1300076  40.2798479
  15.9847303  42.2784017  40.4042987  16.4102375  43.1728737  39.4560685
  16.1469657  43.0099826  40.1766103  26.2800404  44.9667166  34.4242967
  26.0335118  44.8862917  35.2579756  26.6085527  44.1820634  34.2305495
  26.2921647  44.8393432  34.5190491  31.6701825  51.0328779  28.9746248
  31.2908634  50.2465917  28.9675537  31.0068071  51.5815636  28.8317892
  31.5160300  50.9973603  28.9527045  24.6519125  40.7964604  42.5086486
  25.1091740  41.5288578  42.6359278  24.7275454  40.3731069  43.2673742
  24.7310095  40.8421842  42.6387562  16.8952117  41.0430424  43.5975930
  16.3594306  40.4310782  43.9136697  16.9569881  41.6178560  44.2509596
  16.8247749  41.0377351  43.7411356  29.1246451  33.9754479  36.3780329
  29.2430019  34.4330942  35.6447631  28.9508627  33.1699740  36.0916546
  29.1165622  33.9248251  36.2281262  22.5301503  42.7866708  39.3528310
  21.7397578  42.6058168  39.6745646  22.9262126  42.0093660  39.3358604
  22.4718380  42.6454169  39.3980858  23.7258428  47.9559106  37.9768012
  23.3020677  48.1563605  37.2407030  23.5503283  47.1087954  38.0892311
  23.6369308  47.8607888  37.8841702  25.5520017  47.8269041  32.2789347
  26.0935563  47.3239422  32.7427968  25.8666576  47.7734236  31.4678833
  25.6784414  47.7448462  32.2273159  26.0924015  35.8305282  37.3198991
  25.2217573  35.8044003  37.2732300  26.3464356  35.6582474  36.5024836
  26.0017575  35.8015425  37.1919127  23.0641995  47.8873248  26.2572134
  23.3534519  48.6638131  26.5315708  23.1513793  47.3761980  26.9586633
  23.1196251  47.9265167  26.4014632  23.1173156  37.8411510  38.7772461
  22.6011644  37.1491701  38.9024040  22.5567085  38.5082287  38.7235060
  22.9579669  37.8374768  38.7878527  25.1865389  38.3804470  40.6065314
  24.7997142  38.4053502  41.3878844  24.6998326  37.8146149  40.1539830
  25.0577898  38.3000221  40.6553217  24.8522531  35.2671456  42.8975574
  25.4815649  35.8031756  42.6196644  25.0208394  35.1748814  43.7489139
  24.9700325  35.3332818  42.9824102  16.7081502  44.8226050  36.1856996
  16.3138200  44.8969062  35.4107106  16.1521619  45.2083996  36.7365358
  16.5684315  44.8907825  36.1524656  28.3446449  37.8007344  35.8660875
  28.5496043  37.7329652  36.7117872  28.0172873  38.6066165  35.7982053
  28.3261697  37.9093284  35.9820530  23.0422600  45.1287912  37.6069843
  22.7385738  44.5743900  38.2080251  22.3402021  45.3080122  37.1197878
  22.8938810  45.0732695  37.6239549  22.0988697  42.4388432  32.1714545
  22.3748432  41.7207345  31.7592113  22.6987367  43.0373352  31.9635651
  22.2281962  42.4208803  32.0795306  31.5980137  38.3539108  35.3463641
  30.9854451  38.8409510  35.7317373  31.6944312  37.6782599  35.8901292
  31.5218035  38.3257417  35.4842499  25.5999218  40.1101949  30.4461140
  26.0542965  40.2812510  31.1708985  26.0739264  39.4970060  30.0458916
  25.7367538  40.0452835  30.4934902  19.5175366  40.7552273  40.4431896
  19.9776848  40.8291202  41.1807020  19.5631473  41.5533527  40.0931718
  19.5925922  40.8846420  40.5004653  22.9412238  46.8144484  31.5506147
  23.6854283  47.2018760  31.7889097  23.0872934  45.9701909  31.7146635
  23.0722823  46.7474957  31.6100117  24.8591813  38.6094743  36.5838009
  24.0127859  38.7817550  36.4579359  24.8562946  37.8044086  36.9203837
  24.7338963  38.5155772  36.6149136  25.9290114  42.3869957  37.4500067
  25.4550068  41.8611719  37.9605378  26.3008250  41.8399430  36.8814928
  25.9140003  42.2285954  37.4415214  16.3063144  44.3841464  42.8183613
  17.1688757  44.2837173  42.7320942  15.9754927  43.8036173  42.2569185
  16.3848340  44.2833090  42.7229018  27.8573614  43.2806512  30.5125821
  27.3296632  43.3635256  29.8231529  28.3169322  44.0224383  30.5090465
  27.8475464  43.4027174  30.4100516  19.6664930  43.2083913  39.4794031
  19.0418000  43.2202305  38.8719983  19.3310525  43.6844088  40.1285271
  19.5250422  43.2802430  39.4850599  19.8506679  41.5509031  25.5366716
  19.5019483  42.2028756  25.9998265  19.3703124  41.5366144  24.8090587
  19.7276923  41.6452085  25.4977807  18.9355675  44.8177061  41.6968899
  19.0949162  44.0620385  42.1020621  18.7548569  45.3668000  42.3509637
  18.9321034  44.7870874  41.8531605  26.8775978  36.9838296  42.2519689
  26.3816540  37.1801970  41.5611255  27.6345040  37.3830964  42.0808490
  26.9162803  37.0716030  42.1239825  24.1478858  40.6580642  38.8422999
  24.1721345  40.1240754  38.1535779  24.3990332  40.1497951  39.5048590
  24.1888777  40.5041546  38.8387644  20.4280180  39.3851460  38.2228744
  20.4678552  39.8860667  38.9363451  19.6029845  39.4761854  37.9534667
  20.3119706  39.4733277  38.2879282  21.8494544  45.9011970  40.5202643
  21.0186473  46.0685788  40.3137891  21.7946061  45.5247921  41.3051528
  21.7183958  45.8701701  40.6051171  20.2230587  44.1767562  31.0492760
  20.3633548  44.6740026  31.7521402  20.7213120  43.4753856  31.1906974
  20.3171668  44.1469540  31.1744339  20.2530810  45.0434673  28.3785337
  20.8875889  45.6395098  28.3134799  20.3356421  44.7438130  29.1931207
  20.3587361  45.0875581  28.4888424  21.8309793  40.9748648  28.3530779
  22.1525634  40.4951731  27.6990041  22.0936736  41.7848294  28.1621591
  21.9175818  41.0238546  28.2286271  27.2268948  40.3620842  40.7154258
  27.6524019  39.9093368  40.1037785  26.6125941  39.8080913  40.9919046
  27.1997593  40.2134818  40.6659283  25.6663170  36.8335942  34.1244835
  25.0231488  36.6833588  34.6929974  25.3262577  36.5878287  33.3593940
  25.5208248  36.7748064  34.0947850  30.2562517  44.7895369  33.5474844
  29.5853707  45.3325071  33.4187909  30.9502267  45.2590224  33.3056539
  30.2591384  44.9393640  33.4930371  30.4190644  41.2451252  36.4565217
  30.7718254  40.8180975  37.1311016  29.5605446  41.1602096  36.5866293
  30.3440089  41.1695993  36.5760227  19.1174329  43.8758772  34.5148063
  18.3986318  44.2922905  34.7820927  19.4886692  44.4413011  33.9639702
  19.0666261  44.0208053  34.4730870  24.8920904  42.9156772  29.8521443
  24.2985743  43.2373768  29.3006010  24.9296181  42.0697867  29.6442549
  24.8095293  42.8381100  29.7404214  31.8514704  36.3669664  37.3849529
  31.3445569  35.6598804  37.3170707  32.6482138  36.0362853  37.5150606
  31.8941944  36.2142815  37.3948524  27.7678720  42.8736276  33.2823193
  27.5392413  42.8968978  32.4401551  28.0276797  42.0493743  33.4018204
  27.7724908  42.7552356  33.1748391  20.8223483  41.4112823  34.5777389
  21.2980849  41.7729902  33.9427570  20.3212082  42.0669290  34.8577532
  20.8188842  41.5607011  34.5254130  22.8650136  43.5554022  27.9450773
  23.2449101  43.5733652  27.1601888  22.1242732  44.0008011  27.8241620
  22.8118974  43.6235797  27.8114341  30.4935427  41.8636214  33.5326352
  30.4929653  41.7084870  34.3910628  30.2891607  42.7099201  33.4767737
  30.4635204  41.9656834  33.6514291  28.2176279  46.5433715  37.1862558
  28.7129944  45.8256710  37.1466579  27.4076054  46.2404513  37.0717045
  28.1720172  46.3931362  37.1636284  23.7876192  37.7799138  43.1598939
  23.9204097  36.9830131  43.4879915  24.1721345  38.3065541  43.7397215
  23.8632521  37.7399054  43.2942442  26.8608547  34.7029464  39.7580033
  26.0554511  34.5927194  40.0747871  26.7315282  34.8041920  38.9009898
  26.7228680  34.7013134  39.6788073  30.3174508  40.8674956  40.3519730
  29.7337496  41.3684162  39.9397297  30.6378802  40.3604512  39.7184053
  30.2787683  40.8666791  40.1978237  22.8569307  39.7815551  30.6278404
  23.6785001  39.9513864  30.3860099  22.3938958  39.9362812  29.9044702
  22.9100469  39.8297284  30.4850049  21.4464639  37.7758313  41.4076833
  21.9909052  37.4349440  41.9981175  21.5001574  38.6343774  41.5498118
  21.5353758  37.8513572  41.5158707  21.2938277   7.3613041  19.3960802
  21.2632281   8.2157678  19.5679071  21.8919625   7.0608334  19.9546945
  21.3775435   7.4429538  19.5035604  14.4937962   6.4488692  24.1513732
  13.6375857   6.6097190  24.2022849  14.5405615   5.5780756  24.1718793
  14.3737073   6.3439494  24.1619798   8.8779101  15.9851410  19.9150964
   8.1262001  15.6066948  19.6867009   9.3265113  16.0169844  19.1669774
   8.8328768  15.9337017  19.7708466  17.8031678  12.7175218  33.7574188
  18.5098445  12.2227248  33.8861123  17.9919613  13.1584299  33.0276846
  17.9359584  12.7093568  33.6683234  14.3304061  16.4076779  15.3436511
  13.9955430  17.0853701  14.9080733  14.8430932  16.0182091  14.7553382
  14.3569642  16.4501358  15.1923302  13.8708352  18.3591048  21.2847622
  14.2547732  18.9277947  20.7452398  13.8067494  17.6340558  20.8053438
  13.9181780  18.3366512  21.1341485  17.3389783   8.5080736  26.7945384
  17.8845743   9.1865823  26.8539353  17.2806659   8.3668197  25.9346965
  17.4105697   8.5872738  26.6757444  10.4563857  15.9969802  22.1813736
  10.5574220  15.1870156  22.4910864   9.8605603  15.9026749  21.5513415
  10.3836396  15.8634830  22.1339975  19.1154851   9.9365343  17.6679111
  18.9994377  10.6873029  18.0971250  19.9110738   9.6789296  17.9175199
  19.2159441  10.0100190  17.7683203  10.2964597  20.9147391  23.5828592
  10.9402052  21.3560555  23.9724751  10.6220853  20.1100817  23.4958851
  10.4396426  20.8612586  23.6274069   3.6528902  12.0190089  21.8066070
   3.4179086  11.1857741  21.6998339   3.7914542  12.2994754  20.9927271
   3.6384564  11.9373592  21.6708425  10.9985177  13.9259366  18.9548454
  11.3201018  14.4664573  18.3509762  11.6457273  13.3556138  19.0870744
  11.1411232  13.9218541  18.8855489  13.0486885   5.9275361  19.0382841
  13.7467049   6.1063489  19.5304304  13.3639217   5.4045700  18.4153230
  13.1982222   5.8769133  19.0184851   5.6788122   7.7328101  26.9493946
   5.5546819   8.3190547  27.5843765   6.3306407   7.2388297  27.2506221
   5.7561771   7.7466905  27.0879876  13.2374820  12.3145806  19.0262632
  13.6768456  11.7062907  19.4717405  13.0879483  11.9353179  18.2548097
  13.2796286  12.1684277  18.9781799  10.7046463  10.9089818  26.2281458
  11.3495466  10.4162261  25.9092406  10.9448240  11.0514605  27.0547536
  10.8357048  10.8567260  26.3030991  13.2432555  13.7544724  25.8788350
  13.5255797  12.9596130  25.6575106  13.9718715  14.2325311  25.8993411
  13.3922118  13.7079321  25.8491365  11.2213748   1.2967758  23.1204115
  10.8917078   1.7478901  22.4507814  10.5458750   1.2183921  23.6677122
  11.0724185   1.3518893  23.1027338  16.8384157  10.6672987  15.9793401
  16.7535452  11.5233954  16.1242970  17.3268540  10.3917311  16.6475560
  16.8973054  10.7530309  16.0995483  18.4290156  -2.7146719  21.3653726
  18.1143597  -2.0243241  21.7974148  17.9117098  -2.7701937  20.6639227
  18.3054627  -2.6211831  21.3250675  17.7702590   7.2857782  17.4791136
  17.2414061   7.5017415  18.1388443  18.2927610   7.9793920  17.3992106
  17.7691043   7.4200918  17.5646736  23.2250643  12.8604086  22.8524181
  22.3948346  13.0714730  23.0157597  23.1759895  12.0341141  22.5766464
  23.0957378  12.7693692  22.8361546   9.6602198  11.1820998  16.2798604
   9.0759413  11.6871030  16.6864468   9.2572293  10.9563385  15.5395196
   9.5141502  11.2229247  16.2303630   5.2146226  16.8975759  23.0822276
   4.7313805  17.6226249  23.0581860   6.0269545  17.1951890  23.1932434
   5.2636974  17.0478113  23.0949555  11.2860380  15.6907940  25.6872090
  10.7687322  15.3315355  25.0833398  11.9834772  15.1670115  25.6978157
  11.3125962  15.5605628  25.6002349  14.9423972  16.1402754  31.6488263
  15.0307318  15.9528895  32.4966474  15.3713685  15.4940184  31.2493110
  15.0186075  16.0165762  31.7160015  12.5094432  15.4233914  30.6305926
  11.9465267  15.0106524  31.1545587  13.2715456  15.3486820  31.0499069
  12.5388881  15.3511315  30.7698926  14.1179412   7.4286650  14.7567525
  14.3575416   7.6364634  13.9442868  14.4395253   6.6244159  14.8656470
  14.2016570   7.3400752  14.6528078   8.0690424  17.4131935  23.2342556
   8.7711003  16.8983924  23.2915312   7.9887907  17.7406087  24.0389431
   8.1614184  17.3846162  23.3615348  22.7204601   5.5074487  26.6474602
  21.8833022   5.5776674  26.8822197  22.6892832   5.5098982  25.7748905
  22.5922884   5.5184714  26.5534150   9.1169330   7.6507522  32.3622971
   9.2889834   7.5413417  33.2108252   9.6538688   8.2961928  32.1254163
   9.2214334   7.7299524  32.4528068   7.3941199  13.6038287  22.7428164
   8.2330098  13.8361220  22.7901925   7.4252968  12.7342599  22.6735199
   7.5222917  13.5095234  22.7392808   8.0193902  14.0239163  27.0441469
   8.5592127  13.8810294  27.7144842   7.3363848  14.4235913  27.4125496
   7.9986056  14.0618833  27.1975891  13.4626486  -1.2323224  18.3354200
  14.1912647  -1.4107269  17.8892356  13.5521379  -0.3905144  18.5461378
  13.5833148  -1.1339346  18.3007717  17.4434787   9.7030163  22.2386494
  18.1992302  10.1361678  22.2775402  17.5497111   9.0534933  22.8121130
  17.5704958   9.6707647  22.3284519  20.4814958  13.5303440  22.9888897
  20.0450190  13.5340183  23.7447868  20.1477874  14.2108939  22.5568474
  20.3677578  13.6315896  23.0369729  15.0544032  15.5711773  34.3132047
  15.8384448  15.6842621  34.6787789  14.8540626  14.7452910  34.5090733
  15.1410057  15.4658493  34.3966433   3.4231047  10.2439453  27.1975891
   3.1569462   9.4278570  27.3566881   3.4369611  10.2892609  26.3271406
   3.3855769  10.1296358  27.0929373  20.4012441   0.5717268  25.2318325
  21.0438349   0.6415373  25.8180240  20.6535462  -0.0953509  24.7297867
  20.5334573   0.4843617  25.2445604   7.3288794   5.0424538  13.8127649
   6.6146971   4.7562717  14.2250081   7.8132763   5.3821164  14.4534036
   7.2948157   5.0506187  13.9683284   8.1729653   3.7817832  29.8442899
   7.4801450   3.3114811  30.0903630   8.7889981   3.5556136  30.4184606
   8.1614183   3.6784963  29.9652051  15.2114425  17.4821875  27.9598503
  14.4129671  17.2421375  28.2172371  15.6600437  17.5336268  28.7065550
  15.1589036  17.4544266  28.1083427  23.6159304  10.2484360  21.8808534
  24.2775738   9.6875029  21.7804442  22.9750716   9.7536391  22.2061225
  23.6188172  10.0920769  21.9140874  14.5036112  13.5454492  14.1889457
  14.9187260  13.2139516  13.4973953  13.6728042  13.3123394  14.0609594
  14.4424121  13.4625748  14.0680305   3.8324461  11.0298233  24.4787635
   3.6500034  11.0045119  23.6259927   4.5674130  11.4997171  24.5176544
   3.9138525  11.0959595  24.3585554  19.9024135  11.2649743  21.6220523
  20.1379724  11.4094942  20.7947373  20.0513699  12.0292151  22.0152036
  19.9589938  11.3988797  21.5584127   6.8970212   7.7483236  30.9869744
   7.6210185   7.7336266  31.4734638   6.9986349   8.4578591  30.4891712
   7.0188422   7.8507939  30.9848531  21.7314592  10.1051409  19.4590126
  22.0622809  10.6379049  18.8530221  22.3047680  10.1590296  20.1152077
  21.8648271  10.1920978  19.4667908  14.2715162  11.2282320  35.8518691
  13.4788143  11.5425832  36.0371310  14.3864089  11.4433789  35.0139475
  14.1710572  11.3066157  35.7557026  16.9446481   7.9516311  20.1413707
  17.0393335   8.6905605  20.5953332  16.3205324   7.5233787  20.5748271
  16.8655511   7.9977632  20.2721854  15.1998955  11.1302524  30.7903987
  15.7737816  10.4929768  30.9452551  15.1213758  11.1306606  29.9213645
  15.2732190  11.0367635  30.6850398   3.7995371   7.9091733  24.6286702
   4.3768874   7.7728184  25.2678947   3.1009433   7.4527518  24.8832286
   3.7816393   7.8214000  24.7608991  17.1969502   9.7965051  13.3750659
  17.1149665   9.8667238  14.2405646  17.8349223  10.3594795  13.1834399
  17.2789340   9.8904022  13.4740608  10.5562673   9.5625789  22.8425185
  10.2981918   8.7297524  22.8156484  10.6111156   9.7883402  22.0017685
  10.5262451   9.4723560  22.7145322  15.6363723   1.6654240  22.9429278
  14.9320050   1.1763425  23.1013197  15.6848698   1.6776714  22.0717722
  15.5393775   1.5943888  22.8368617   9.5297385   7.1163552  23.3290080
   8.9546977   7.2755720  23.9654041   9.1533062   6.4798961  22.8658530
   9.3900198   7.0461365  23.3544638  13.1970674   5.5886901  28.1882458
  12.8085107   5.1641119  27.5334649  12.5325372   5.8369051  28.6959485
  13.0417602   5.5625622  28.1670326  22.8393943   5.3461906  20.9630288
  22.5830508   4.5341847  20.7728171  23.6823257   5.3539473  20.7360475
  22.9259969   5.2273903  20.9015105  17.0197036  -0.7138470  25.7006442
  17.4007547  -1.3960299  26.0874317  16.2160320  -1.0028868  25.5182107
  16.9573497  -0.8571422  25.7310498  14.3009612   9.8185505  16.3859265
  15.1150251  10.1100398  16.2742036  14.2368754   9.1645368  15.8117558
  14.4112351   9.7650700  16.2848102  20.5219102  12.5011502  30.7988841
  20.2857740  11.6699566  30.6800901  21.1662331  12.4497109  31.3843685
  20.5813773  12.3709190  30.8674734  10.1717521  13.2907023  21.5131577
  10.8091468  13.0518770  22.0583371  10.5972592  13.4944182  20.7784738
  10.3293687  13.2858033  21.4848734   4.8630163  15.5295359  25.3965881
   4.9034308  15.8010210  24.5685661   5.4224687  16.0537267  25.8123669
   4.9513509  15.6471114  25.3357769  10.8120336   8.5109313  15.8506467
  11.1965488   8.2917019  16.6023012  10.5631956   9.3372258  15.9807543
  10.8322408   8.6007459  15.9807543  21.5455523  12.2855950  26.8617135
  21.2401340  13.0184007  27.2230451  20.8261739  11.8793880  26.5809921
  21.3942865  12.3337683  26.8730272  12.5538993  13.7679446  23.1925363
  12.6278001  13.6054617  24.0467213  13.3708499  13.9569635  22.9485845
  12.6855351  13.7716188  23.2823389  27.2457315   8.9248951  26.1885479
  27.1781816   8.9444910  25.3188066  27.2312978   9.7679278  26.4141150
  27.2336072   9.0522686  26.0937956   6.3144749  14.1137308  20.2219807
   5.4882867  14.3599046  20.0954086   6.3756740  14.0349389  21.0881865
   6.2018916  14.1382257  20.3308751  17.6553662   0.3284109  29.5126569
  18.4007254   0.1393919  29.0989994  17.2390966   0.8542347  28.9540425
  17.7038636   0.3786254  29.3691142  11.0943578  16.7314189  17.9238837
  11.3841877  16.3403170  17.1998063  11.8247059  16.9130894  18.3644112
  11.2450462  16.7008002  17.8821644  25.0315933   7.6993337  24.4632074
  25.5823854   7.0661406  24.7029166  25.0160048   8.2308730  25.1547578
  25.1101129   7.6842285  24.6010932  11.6838323  11.5331935  29.0091967
  11.1850017  12.2447702  29.0876856  12.4938548  11.8532601  28.9710130
  11.7294430  11.6858783  29.0148536   9.0349494  18.7081571  20.9898987
   8.8149789  18.4178926  21.7825654   8.8144016  18.0496526  20.4616899
   8.9697088  18.5681279  21.0287895   7.9466441  10.7954888  23.2554688
   7.6579690  10.1692359  23.7900415   8.8149789  10.7375175  23.3219369
   8.0326693  10.6942432  23.3445643  18.7344339   5.9389671  23.5736670
  18.3909105   5.2180006  23.9243920  18.8337381   5.7303522  22.7315028
  18.6986382   5.8013874  23.5008350  11.2017450  20.0810961  19.7729679
  11.8541508  19.5487403  20.0020705  10.5043058  19.7279613  20.1597553
  11.1948168  19.9500484  19.8641847   8.1498714  12.4350139  19.1797053
   8.9044682  12.8163178  19.3932516   7.5569327  12.8861282  19.6343750
   8.1735428  12.5578966  19.2779932  19.1957368  12.4015375  19.1160658
  19.7615401  13.0608585  19.0319201  18.5485271  12.7465073  19.5877060
  19.1836124  12.5497316  19.1733415  10.6105381   4.3912979  34.3054266
   9.8005157   4.6970759  34.1944108  11.0880068   5.1118561  34.4206850
  10.5608860   4.5427580  34.3061337   9.4696941  13.6058700  24.5537169
   8.9477695  13.7458992  25.2389033   9.8570961  12.8469364  24.7439286
   9.4500642  13.5144224  24.6838245   6.4588125   3.6564509  18.6232123
   6.1712921   3.2865779  17.8864071   7.1458593   4.1259364  18.3615828
   6.5177022   3.6711478  18.4747199  15.6663946  15.3454159  18.5397737
  15.4250622  14.6122020  18.1324802  15.8465279  15.8941016  17.8864071
  15.6571570  15.3176550  18.3827960  10.8963267  10.6362719  19.9518660
  10.7006049  11.2437453  19.3578963  11.1197612   9.9430663  19.4710334
  10.8997908  10.6240244  19.7934740   9.2941797   7.5217457  20.0699528
  10.0164449   7.6858615  19.6103334   8.8149789   8.2427122  19.9638868
   9.3305527   7.6515686  19.9865142  17.2535304   3.8581256  25.4496213
  16.4146405   3.8842535  25.2134476  17.3239672   4.5051991  26.0301560
  17.1403698   3.9577381  25.5005330   6.9449413   9.9275529  29.1753668
   7.4570510  10.2059783  28.5262428   6.6585756  10.6664823  29.5416481
   6.9784276  10.0777883  29.1343546  15.7004583   0.7566633  20.1823829
  16.4030935   0.5574381  19.7043787  15.4348771  -0.0157425  20.4892672
  15.7651215   0.6129599  20.1569270  21.1292828   9.0649242  22.7357455
  21.0426803   9.2204668  23.5892234  20.6743308   9.7087318  22.3616860
  21.0496085   9.1824998  22.8064561  10.4633139   2.0201918  29.2354710
  10.2716336   2.0357052  30.0854133  11.3131735   2.2165592  29.2121364
  10.5608861   2.0516269  29.3578004  15.0018644   6.3859990  21.3583014
  14.7553358   6.3055740  22.1919803  15.3303767   5.6013457  21.1645542
  15.0139888   6.2586255  21.4530537  18.8966693  13.0943349  25.1469795
  18.7581052  13.7924395  25.6518538  18.1166691  12.9392005  24.7905977
  18.7609920  13.1743516  25.1696070  17.2344778   9.3939724  31.3992177
  17.2292817   8.5219541  31.4034604  17.9405772   9.5927893  30.9261633
  17.3389782   9.2943598  31.3299213  10.9615671   9.1216708  30.7705997
  11.1059047   9.7017916  30.1349107  11.3091320   9.4993005  31.4755852
  11.0343133   9.2637412  30.7804992  13.1335589   8.3206876  28.5531129
  12.3858903   8.5137891  28.1479407  13.2877114   7.4952096  28.3155250
  13.0458016   8.2271988  28.4576535  10.0343426  17.3119480  27.6367024
  10.1832990  16.7522396  26.9840429  10.8143428  17.3911482  28.0199543
  10.1717520  17.2405045  27.5963973  20.3920066  12.4521603  15.9086295
  20.0126875  11.6658741  15.9015584  19.7286311  13.0008460  15.7657939
  20.2378541  12.4166427  15.8867092  12.5596727  17.4834123  28.9151515
  12.4840398  16.8142933  29.4702303  12.4886586  18.1851911  29.4292181
  12.5377334  17.4879030  29.0728363  13.3737366   2.2157427  29.4426533
  13.8309980   2.9481402  29.5699325  13.4493695   1.7923892  30.2013788
  13.4528336   2.2614665  29.5727609  13.2166974  16.0035122  19.7475121
  13.9816865  15.7344765  19.4257785  13.1145064  15.5185132  20.4645184
  13.3148469  15.8924686  19.8054949  11.2519744   4.2059531  26.2868357
  10.4615818   4.0250991  26.6085692  11.6480367   3.4286484  26.2698651
  11.1936620   4.0646992  26.3320905  15.7385634  13.0347305  11.7275070
  16.5058620  13.0947430  11.3180922  15.2916943  12.4627747  11.2431389
  15.7859062  12.9583881  11.5952781  16.6363430  11.8401961  24.0127803
  15.9608432  11.6087194  24.5141190  16.6455806  11.2323144  23.3869908
  16.5381935  11.7160887  23.9943955  13.7657574   6.6819790  30.7691856
  13.7016715   7.5429747  30.6411992  13.9054762   6.3651783  29.9687407
  13.7773044   6.7619957  30.6320068  18.6380165  14.6967094  16.2437981
  18.7200002  15.5034080  15.9199431  19.1229907  14.7163053  16.9678754
  18.7217322  14.8187756  16.3024879  12.4476668   9.3751930  24.9108058
  12.0238917   9.5756429  24.1747077  12.2721523   8.5280778  25.0232358
  12.3587548   9.2800711  24.8181749  11.9488361  20.8902443  27.3729516
  12.4384292  20.1913232  27.1905180  11.3772594  20.5926313  27.9605573
  11.9372891  20.7428666  27.4330557   7.7359113   9.8703981  20.3436031
   7.8923732   9.8050784  21.1992023   8.0759706  10.6452534  20.1314711
   7.8092348   9.9753179  20.4390625  14.2738257   9.2461865  19.2129394
  14.8153803   8.7432246  19.6768015  14.5884816   9.1927059  18.4018879
  14.4002655   9.1641286  19.1613206  18.1455365  13.4564512  36.3256306
  18.9590230  13.1849661  36.4861439  17.9850331  13.1572052  35.5216502
  18.2425313  13.3719438  36.2301712  12.4424707  14.6379216  16.4969422
  12.5117527  13.7793755  16.6362423  13.2213162  14.8551097  16.1688447
  12.5677557  14.5432080  16.4686580  15.4227527   4.1398169  29.2651695
  15.6369496   3.5009083  28.7115049  14.8061426   4.5843993  28.8359556
  15.3632856   4.1108313  29.1202126  16.8332195  17.0616917  20.7105916
  16.4411986  16.7583633  19.9928782  16.9885267  17.8986007  20.5210869
  16.7985785  17.1400754  20.5762413   4.3093374   7.0538932  20.6596798
   4.6892339   7.4723476  19.9957066   3.7348739   7.6352387  20.9665642
   4.2804699   7.2016790  20.6073539  17.5866615   5.7487234  30.2035002
  16.7743297   5.4413125  30.2848175  18.0456549   5.2686234  30.7677714
  17.5347000   5.6323727  30.2989596  16.9971870  13.6266906  20.6511946
  16.6386524  13.7981549  21.4275979  16.5110580  14.0880112  20.0939945
  16.8730566  13.7205877  20.6837215  11.7860235   9.3066072  13.1912181
  12.0752760  10.0830954  13.4655755  11.8732034   8.7954803  13.8926680
  11.8414491   9.3457990  13.3354678  14.6820122   7.1547306  34.9863704
  15.1519754   7.7789422  35.3731578  14.7282003   6.4864281  35.5456919
  14.7587998   7.1481986  35.1263776  13.9083629  -0.2002707  27.5405360
  13.5215383  -0.1753675  28.3218890  13.4216567  -0.7661028  27.0879877
  13.7796138  -0.2806956  27.5893264  18.1576609  14.5170802  31.5979147
  18.7956329  14.0230998  31.2641603  17.5150700  14.4448203  31.0131374
  18.1570835  14.4329811  31.4621502  19.8833609   6.3659948  26.1645063
  19.4561217   6.2786297  25.4093162  19.2459662   6.4737724  26.7499907
  19.7263216   6.3692608  26.1390504  13.3754686   1.4735473  32.1042032
  14.2028115   1.2020622  32.1600646  13.3962532   2.2696315  32.4605850
  13.5007536   1.5515228  32.1657215  18.2130865  15.2090611  28.2384504
  19.0023244  14.8579675  28.3586585  18.3874463  16.0226999  27.9761138
  18.3551147  15.2776468  28.2172372   7.9524176   8.6199336  25.2912293
   7.1112182   8.5203210  25.4991186   8.1614184   9.3894817  25.6426613
   7.8588868   8.7191380  25.3739608   5.4299743   6.2418873  23.1197043
   5.0356441   6.3161885  22.3447153   4.8739860   6.6276820  23.6705405
   5.2902555   6.3100648  23.0864703  17.0664690  -0.7799833  22.8000922
  17.2714283  -0.8477525  23.6457919  16.7391114   0.0258988  22.7322100
  17.0479938  -0.6713892  22.9160577  11.7640841   6.5480735  24.5409890
  11.4603978   5.9936724  25.1420298  11.0620262   6.7272945  24.0537924
  11.6157051   6.4925518  24.5579596  10.8206938   3.8581255  19.1054592
  11.0966672   3.1400168  18.6932159  11.4205607   4.4566175  18.8975698
  10.9500202   3.8401626  19.0135353   9.8259192  13.7630456  29.2481988
   9.7179547  13.7732518  30.1144046  10.0354973  14.5885237  29.0586942
   9.8409303  13.8871531  29.3486080  20.3198377  -0.2268068  22.2803688
  19.7072691   0.2602334  22.6657419  20.4162552  -0.9024578  22.8241339
  20.2436275  -0.2549760  22.4182546  14.3217458   1.5294773  17.3801187
  14.7761205   1.7005333  18.1049032  14.7957504   0.9162883  16.9798963
  14.4585778   1.4645658  17.4274949   7.8432984  11.0143099  26.7103926
   7.2520917  11.6552597  26.6806941   8.6054007  11.4380716  26.6835225
   7.8681244  11.1718937  26.7019073   8.2393607   2.1745096  27.3771943
   8.6995088   2.2484026  28.1147067   8.2849713   2.9726350  27.0271764
   8.3144162   2.3039243  27.4344700   9.8876956   2.8411791  31.9443970
   9.4962521   2.1945138  32.3799748  10.0562819   3.4323226  32.5638226
   9.8547867   2.8326059  32.1006676  23.9623405  10.8448868  27.7081204
  24.0206529  11.2935517  28.4541180  23.3289873  11.2547681  27.2711284
  23.8774700  10.9722603  27.7533752  17.6022500  16.4652410  24.1435950
  17.4042189  16.9543225  23.4492161  16.9810211  16.6693652  24.7220083
  17.4810064  16.5668948  24.1259173  11.6630478   8.2337307  18.4846194
  12.4072523   8.6211583  18.7229144  11.8091175   7.3894732  18.6486682
  11.7941063   8.1667780  18.5440164  13.5810054   0.0287566  23.5178056
  12.7346099   0.2010374  23.3919405  13.5781186  -0.7763090  23.8543884
  13.4557204  -0.0651405  23.5489183  14.6508354   3.8062780  24.3840114
  14.1768308   3.2804542  24.8945424  15.0226490   3.2592253  23.8154975
  14.6358243   3.6478777  24.3755261   5.0281384   5.8034287  29.7523659
   5.8906997   5.7029996  29.6660989   4.6973167   5.2228996  29.1909231
   5.1066581   5.7025914  29.6569065  20.9145085   8.8665156  25.7946894
  20.6743308   8.0271571  25.7989321  21.3937092   8.9465323  26.5187668
  20.9497268   8.7546556  25.9021696  16.5791854   4.6999335  17.4465867
  16.0514872   4.7828079  16.7571576  17.0387562   5.4417206  17.4430512
  16.5693704   4.8219997  17.3440563  22.9150272   5.6466613  23.7476153
  22.6760042   5.6062447  22.9096938  23.0784173   6.4937765  23.8741874
  22.9040575   5.7658698  23.6429635  19.5196302  10.0316562  29.6781198
  20.2430501   9.5789089  29.4992218  19.2546264  10.3121228  28.8953526
  19.5877575  10.0067531  29.5359914   8.3883170   4.6276736  26.4134078
   7.7636240   4.6395128  25.8060030   8.0528765   5.1036911  27.0625318
   8.2468662   4.6995253  26.4190646   5.1008846  12.6877196  27.8537842
   4.5708770  11.9969635  27.9032817   5.3733939  12.6787381  27.0250550
   5.0633568  12.5844328  27.7385258  16.1328936  13.2702898  16.5775524
  16.8563135  13.7361011  16.4340098  15.6929527  13.3376508  15.8273121
  16.1744629  13.3486735  16.4460306  15.3015091  10.1300441  27.8276213
  14.6872085   9.5858491  28.1224849  15.8182376   9.6164677  27.3482030
  15.2870754   9.9736850  27.8000442  14.5411389  11.2004711  25.5620512
  14.1138997  10.5754429  25.1285947  14.5336333  10.9179633  26.3879519
  14.4770530  11.0657491  25.6200340   7.6573916   6.2369884  28.6308946
   7.8167402   5.4813208  29.0360668   7.4766809   6.7860823  29.2849684
   7.6539275   6.2063698  28.7871652  15.5994219  -1.5968881  29.1859736
  15.1034780  -1.4005206  28.4951302  16.3563281  -1.1976212  29.0148537
  15.6381043  -1.5091147  29.0579872  12.8697098   2.0773465  25.7763046
  12.8939585   1.5433578  25.0875826  13.1208572   1.5690774  26.4388637
  12.9107017   1.9234369  25.7727691  11.3328033  10.3705023  33.2589085
  10.4823664  10.5076738  33.3946730  11.4956161   9.6368802  33.7036787
  11.2311897  10.2819125  33.3444684  10.5712784   7.3204793  27.4542689
   9.7404714   7.4878611  27.2477937  10.5164301   6.9440744  28.2391575
  10.4402199   7.2894525  27.5391217   8.9448828   5.5960385  17.9832807
   9.0851789   6.0932849  18.6861448   9.4431361   4.8946679  18.1247021
   9.0389909   5.5662364  18.1084386   8.9749050   6.4627496  15.3125384
   9.6094130   7.0587921  15.2474846   9.0574661   6.1630954  16.1271254
   9.0805601   6.5068404  15.4228470  21.9531616   8.9942973  28.1811748
  22.5449456   9.6340224  28.2129946  22.3890610   8.2966010  28.4703815
  22.1050047   8.9861324  28.2292581  10.5528033   2.3941471  15.2870826
  10.8743874   1.9144554  14.6330088  10.8154977   3.2041117  15.0961638
  10.6394058   2.4431369  15.1626318  13.7825006  13.4160346  28.8069642
  13.2750097  13.9696192  29.2510272  13.4851652  13.4768636  27.9888416
  13.6629891  13.5066657  28.7518099  15.9487188   1.7813665  27.6494305
  16.3742260   1.3286192  27.0377831  15.3344181   1.2273736  27.9259092
  15.9215833   1.6327641  27.5999330   5.4802038   8.6595337  18.5814930
   5.9894267   9.2559844  18.9626235   5.9536310   8.3921310  17.8991350
   5.6245414   8.7081152  18.5369453  16.3932786  17.3323603  16.7373585
  15.6762096  17.1584466  16.2720823  17.0439524  17.0976176  16.2049071
  16.3834637  17.2719396  16.5902803  14.3881411  -1.7471235  21.0584882
  13.7449729  -1.8973589  21.6270020  14.0480818  -1.9928890  20.2933987
  14.2426488  -1.8059112  21.0287897  18.9780757   6.2088192  20.4814891
  18.3071947   6.7517894  20.3527956  19.6720508   6.6783047  20.2396585
  18.9809625   6.3586463  20.4270418  13.0267491  18.3484904  25.7126649
  12.8033145  17.5903733  26.0810675  12.5377334  18.3782925  24.9907089
  12.9210940  18.2407128  25.6603390  19.1408885   2.6644076  23.3905264
  19.4936495   2.2373798  24.0651063  18.2823686   2.5794919  23.5206340
  19.0658329   2.5888816  23.5100274   7.8392570   5.2951595  21.4488110
   7.1204559   5.7115728  21.7160974   8.2104932   5.8605834  20.8979748
   7.7884502   5.4400877  21.4070917  17.1392151   5.9279444  27.3390106
  17.1190078   5.7462739  28.1924885  17.1871351   6.7991463  27.3149690
  17.1426792   6.0295982  27.4613401  15.0838480  12.5166636  33.2638583
  15.0434335  11.8716313  32.6783738  15.8961799  12.4603253  33.5763995
  15.1981634  12.4125603  33.2235532  11.6745948  18.5685362  23.1663733
  11.2606347  17.9059492  22.7767575  12.3593322  18.7163221  22.6459428
  11.7144320  18.4926020  23.0320231  15.0411242  17.7275447  23.9187350
  14.6427525  17.8377718  23.1508170  14.4262462  17.9357514  24.5013910
  14.8910131  17.7749015  23.8918649  13.6139144   4.3349595  16.7861490
  13.0203983   4.6566592  16.2346057  13.6514422   3.4890691  16.5782596
  13.5313533   4.2573923  16.6744261  16.4896961   4.2929100  20.2163240
  16.2610654   4.3161801  19.3741598  16.7495037   3.4686567  20.3358251
  16.4943149   4.1745180  20.1088438  10.7716189   6.1463573  29.8188340
  10.2595092   5.5384756  30.1773372  10.5995685   6.8620165  30.2862316
  10.6705826   6.1626872  29.9404564   5.6181904   4.5901148  32.4690702
   5.4484494   5.2502523  31.9238909   5.1747854   4.8007709  33.1903191
   5.5281237   4.7187130  32.4952331   9.5441723   2.8305646  21.5117436
  10.0199089   3.1922726  20.8767617   9.0430323   3.4862113  21.7917578
   9.5407082   2.9799835  21.4594177  22.7753085  12.3027414  17.3030441
  23.1586691  13.0518770  17.5328538  21.9797198  12.5493234  17.0442430
  22.7146867  12.4497108  17.2988014  14.6485259   4.0687817  32.2590596
  15.2056690   3.8401627  31.6269061  14.3246324   4.8293483  31.9825808
  14.6831670   4.1471654  32.1247093   2.5183968   7.4948014  27.7279192
   1.9710688   6.8248659  27.8460060   3.3076347   7.1277861  27.7922659
   2.5536152   7.3413000  27.7547892  12.3668377   7.1555471  33.2242603
  13.1179704   7.4707147  33.5382157  12.5590953   6.9534642  32.3976525
  12.5059791   7.1722852  33.1485999  11.5868376   4.9746846  14.8790820
  11.9667341   4.9926475  14.0941934  10.8460972   5.4200835  14.7581667
  11.5337214   5.0428620  14.7454388  19.2153667   3.2829037  20.4666398
  19.2147893   3.1277693  21.3250675  19.0109847   4.1292024  20.4107784
  19.1853445   3.3849658  20.5854338  16.9394519   7.9626539  24.1202605
  17.4348184   7.2449534  24.0806625  16.1294295   7.6597336  24.0057092
  16.8938412   7.8124185  24.0976331  12.3853130  11.8124352  16.2699610
  11.5764453  11.4891025  16.2232919  12.8928039  11.1057574  16.2027858
  12.3402797  11.6605668  16.2529904   3.0143408   9.2396545  21.9946974
   2.1488927   9.2282236  21.8829745   3.1142224   9.0526768  22.8418113
   2.9017575   9.2102606  22.1035918  19.0046338  10.7130226  26.8079734
  19.4301409  10.1904648  26.2550159  18.6403258  11.3111064  26.2868357
  19.0132940  10.7240453  26.6488744   8.6400418  19.0094444  25.5677079
   8.9546977  19.8230832  25.5754861   9.0493831  18.6244662  26.2359239
   8.7468516  19.0723146  25.6681171  15.5924937  14.4264490  23.1380891
  16.0636115  15.1404753  23.3070877  15.9285116  13.8263241  23.6740761
  15.7120052  14.4435955  23.2413267  17.6801922  16.0365804  35.3172964
  17.7898887  15.2474364  35.6729711  18.0092818  15.9471740  34.5147302
  17.7454328  15.9071657  35.2515354  16.2298884  14.2182425  29.9008584
  15.6819830  13.5940308  29.6328649  16.6911912  14.4076697  29.1852663
  16.2166093  14.1541475  29.7559015  19.0392748   2.2867779  27.2859776
  18.4555737   2.7876986  26.8737344  19.3597042   1.7797335  26.6524100
  19.0005923   2.2859614  27.1318284  11.5787547   1.2008374  17.5618451
  12.4003241   1.3706687  17.3200146  11.1157198   1.3555635  16.8384749
  11.6318709   1.2490107  17.4190095   5.9813438  12.9567552  25.2155688
   6.5858295  12.9163386  24.5869509   5.7740750  13.8038704  25.2459744
   6.0402335  13.0755555  25.1271804  15.7957210  15.2233497  26.4317925
  16.6155584  15.0796463  26.6934220  15.5151288  15.8479696  26.9734363
  15.8753953  15.2943849  26.5505865   1.2164720  11.9402170  25.0854611
   1.1188998  11.1298441  25.3944668   1.9993590  11.9193963  24.7000879
   1.3180856  11.8169260  25.0741474  19.8511685  31.5036718  19.9150964
  19.0994584  31.1252256  19.6867009  20.2997696  31.5355152  19.1669774
  19.8061352  31.4522325  19.7708466  28.7764262  28.2360526  33.7574188
  29.4831029  27.7412556  33.8861123  28.9652197  28.6769607  33.0276846
  28.9092167  28.2278876  33.6683234  25.3036645  31.9262087  15.3436511
  24.9688013  32.6039009  14.9080733  25.8163515  31.5367399  14.7553382
  25.3302226  31.9686666  15.1923302  24.8440936  33.8776356  21.2847622
  25.2280315  34.4463255  20.7452398  24.7800077  33.1525866  20.8053438
  24.8914363  33.8551820  21.1341485  21.4296441  31.5155110  22.1813736
  21.5306804  30.7055464  22.4910864  20.8338186  31.4212056  21.5513415
  21.3568980  31.3820138  22.1339975  30.0887435  25.4550651  17.6679111
  29.9726961  26.2058337  18.0971250  30.8843321  25.1974604  17.9175199
  30.1892024  25.5285498  17.7683203  21.2697181  36.4332699  23.5828592
  21.9134636  36.8745863  23.9724751  21.5953436  35.6286125  23.4958851
  21.4129009  36.3797894  23.6274069  14.6261485  27.5375397  21.8066070
  14.3911670  26.7043049  21.6998339  14.7647126  27.8180062  20.9927271
  14.6117148  27.4558900  21.6708425  16.9251573  19.7061127  24.7050377
  16.3056604  19.1153774  24.5360392  16.8235436  20.2972562  24.0714701
  16.8189248  19.7065210  24.5855367  21.9717760  29.4444674  18.9548454
  22.2933601  29.9849881  18.3509762  22.6189857  28.8741445  19.0870744
  22.1143815  29.4403849  18.8855489  16.6520706  23.2513409  26.9493946
  16.5279403  23.8375854  27.5843765  17.3038990  22.7573605  27.2506221
  16.7294355  23.2652213  27.0879876  22.1946332  16.8153066  23.1204115
  21.8649662  17.2664209  22.4507814  21.5191334  16.7369229  23.6677122
  22.0456768  16.8704201  23.1027338  27.8116740  26.1858295  15.9793401
  27.7268035  27.0419262  16.1242970  28.3001124  25.9102619  16.6475560
  27.8705638  26.2715617  16.0995483  29.4022740  12.8038589  21.3653726
  29.0876181  13.4942067  21.7974148  28.8849681  12.7483371  20.6639227
  29.2787210  12.8973477  21.3250675  34.1983226  28.3789394  22.8524181
  33.3680930  28.5900038  23.0157597  34.1492479  27.5526449  22.5766464
  34.0689962  28.2879000  22.8361546  20.6334781  26.7006306  16.2798604
  20.0491997  27.2056338  16.6864468  20.2304876  26.4748693  15.5395196
  20.4874085  26.7414555  16.2303630  16.1878810  32.4161067  23.0822276
  15.7046388  33.1411557  23.0581860  17.0002128  32.7137197  23.1932434
  16.2369558  32.5663421  23.0949555  22.2592964  31.2093248  25.6872090
  21.7419906  30.8500663  25.0833398  22.9567355  30.6855423  25.6978157
  22.2858545  31.0790936  25.6002349  25.9156556  31.6588062  31.6488263
  26.0039902  31.4714203  32.4966474  26.3446269  31.0125492  31.2493110
  25.9918658  31.5351070  31.7160015  23.4827016  30.9419222  30.6305926
  22.9197851  30.5291832  31.1545587  24.2448039  30.8672128  31.0499069
  23.5121464  30.8696623  30.7698926  25.0911996  22.9471958  14.7567525
  25.3307999  23.1549942  13.9442868  25.4127837  22.1429467  14.8656470
  25.1749154  22.8586060  14.6528078  20.4002286  14.8765354  18.6027063
  21.1548254  15.2443671  18.3644113  20.2229821  15.2504908  19.3706243
  20.4856764  14.9863542  18.6811951  19.0423007  32.9317243  23.2342556
  19.7443586  32.4169232  23.2915312  18.9620490  33.2591395  24.0389431
  19.1346768  32.9031470  23.3615348  33.6937185  21.0259795  26.6474602
  32.8565606  21.0961982  26.8822197  33.6625416  21.0284289  25.7748905
  33.5655467  21.0370022  26.5534150  20.0901914  23.1692830  32.3622971
  20.2622417  23.0598725  33.2108252  20.6271271  23.8147236  32.1254163
  20.1946918  23.2484832  32.4528068  18.7559351  17.2835673  15.3005176
  18.5734924  17.5007554  14.4746169  19.6184964  17.3974686  15.3563790
  18.8563940  17.3325571  15.1859663  24.4359070  14.2862084  18.3354200
  25.1645230  14.1078039  17.8892356  24.5253963  15.1280164  18.5461378
  24.5565732  14.3845962  18.3007717  31.4547542  29.0488748  22.9888897
  31.0182774  29.0525491  23.7447868  31.1210457  29.7294247  22.5568474
  31.3410162  29.1501204  23.0369729  26.0276615  31.0897081  34.3132047
  26.8117032  31.2027929  34.6787789  25.8273210  30.2638218  34.5090733
  26.1142641  30.9843801  34.3966433  14.3963631  25.7624761  27.1975891
  14.1302046  24.9463878  27.3566881  14.4102195  25.8077917  26.3271406
  14.3588353  25.6481666  27.0929373  31.3745025  16.0902576  25.2318325
  32.0170933  16.1600681  25.8180240  31.6268045  15.4231799  24.7297867
  31.5067157  16.0028925  25.2445604  18.3021378  20.5609846  13.8127649
  17.5879555  20.2748025  14.2250081  18.7865346  20.9006472  14.4534036
  18.2680741  20.5691495  13.9683284  19.1462237  19.3003140  29.8442899
  18.4534034  18.8300119  30.0903630  19.7622564  19.0741444  30.4184606
  19.1346767  19.1970271  29.9652051  26.1847009  33.0007183  27.9598503
  25.3862254  32.7606683  28.2172371  26.6333020  33.0521576  28.7065550
  26.1321620  32.9729574  28.1083427  34.5891888  25.7669668  21.8808534
  35.2508322  25.2060337  21.7804442  33.9483300  25.2721699  22.2061225
  34.5920755  25.6106077  21.9140874  25.4768696  29.0639800  14.1889457
  25.8919844  28.7324824  13.4973953  24.6460625  28.8308702  14.0609594
  25.4156704  28.9811056  14.0680305  14.8057044  26.5483541  24.4787635
  14.6232618  26.5230427  23.6259927  15.5406713  27.0182479  24.5176544
  14.8871108  26.6144903  24.3585554  30.8756719  26.7835051  21.6220523
  31.1112308  26.9280250  20.7947373  31.0246282  27.5477459  22.0152036
  30.9322522  26.9174105  21.5584127  17.8702796  23.2668544  30.9869744
  18.5942768  23.2521574  31.4734638  17.9718933  23.9763899  30.4891712
  17.9921005  23.3693247  30.9848531  32.7047175  25.6236717  19.4590126
  33.0355392  26.1564357  18.8530221  33.2780263  25.6775604  20.1152077
  32.8380854  25.7106285  19.4667908  25.2447745  26.7467628  35.8518691
  24.4520726  27.0611140  36.0371310  25.3596673  26.9619097  35.0139475
  25.1443156  26.8251465  35.7557026  26.1731538  26.6487832  30.7903987
  26.7470400  26.0115076  30.9452551  26.0946342  26.6491914  29.9213645
  26.2464773  26.5552943  30.6850398  14.7727955  23.4277041  24.6286702
  15.3501457  23.2913492  25.2678947  14.0742016  22.9712826  24.8832286
  14.7548976  23.3399308  24.7608991  28.1702086  25.3150359  13.3750659
  28.0882248  25.3852546  14.2405646  28.8081806  25.8780103  13.1834399
  28.2521923  25.4089330  13.4740608  26.6096307  17.1839548  22.9429278
  25.9052634  16.6948733  23.1013197  26.6581281  17.1962022  22.0717722
  26.5126359  17.1129196  22.8368617  33.8126527  20.8647213  20.9630288
  33.5563092  20.0527155  20.7728171  34.6555841  20.8724781  20.7360475
  33.8992552  20.7459211  20.9015105  10.2486788  22.2788934  21.3434520
  10.3347040  21.9020803  22.1248050  10.8762585  21.9049380  20.8654479
  10.3543339  22.1674416  21.3879998  27.9929619  14.8046838  25.7006442
  28.3740131  14.1225009  26.0874317  27.1892903  14.5156440  25.5182107
  27.9306081  14.6613886  25.7310498  31.4951686  28.0196810  30.7988841
  31.2590323  27.1884874  30.6800901  32.1394915  27.9682417  31.3843685
  31.5546357  27.8894497  30.8674734  15.8362747  31.0480667  25.3965881
  15.8766892  31.3195518  24.5685661  16.3957271  31.5722575  25.8123669
  15.9246092  31.1656422  25.3357769  21.7852919  24.0294621  15.8506467
  22.1698072  23.8102327  16.6023012  21.5364540  24.8557566  15.9807543
  21.8054992  24.1192767  15.9807543  21.9521460  17.3101036  35.5669051
  21.6374901  18.0800599  35.3038613  21.6311392  16.7471292  34.9821278
  21.8580379  17.3411304  35.4410401  32.5188107  27.8041258  26.8617135
  32.2133924  28.5369315  27.2230451  31.7994322  27.3979188  26.5809921
  32.3675449  27.8522991  26.8730272  38.2189899  24.4434259  26.1885479
  38.1514399  24.4630218  25.3188066  38.2045561  25.2864586  26.4141150
  38.2068655  24.5707994  26.0937956  17.2877333  29.6322616  20.2219807
  16.4615450  29.8784353  20.0954086  17.3489324  29.5534697  21.0881865
  17.1751500  29.6567565  20.3308751  19.5053357  15.6991557  21.1815247
  18.6375782  15.7714157  21.2472856  19.7928561  16.5013636  21.3703222
  19.4193105  15.8285704  21.2190014  28.6286245  15.8469417  29.5126569
  29.3739837  15.6579227  29.0989994  28.2123550  16.3727655  28.9540425
  28.6771220  15.8971562  29.3691142  22.0676162  32.2499497  17.9238837
  22.3574460  31.8588478  17.1998063  22.7979643  32.4316201  18.3644112
  22.2183046  32.2193310  17.8821644  36.0048516  23.2178645  24.4632074
  36.5556438  22.5846714  24.7029166  35.9892632  23.7494038  25.1547578
  36.0833713  23.2027593  24.6010932  20.0082077  34.2266879  20.9898987
  19.7882373  33.9364234  21.7825654  19.7876599  33.5681834  20.4616899
  19.9429672  34.0866587  21.0287895  22.1750033  35.5996269  19.7729679
  22.8274091  35.0672711  20.0020705  21.4775642  35.2464921  20.1597553
  22.1680751  35.4685792  19.8641847  19.1231298  27.9535447  19.1797053
  19.8777266  28.3348486  19.3932516  18.5301911  28.4046590  19.6343750
  19.1468012  28.0764274  19.2779932  30.1689951  27.9200683  19.1160658
  30.7347984  28.5793893  19.0319201  29.5217855  28.2650381  19.5877060
  30.1568708  28.0682624  19.1733415  21.5837965  19.9098287  34.3054266
  20.7737741  20.2156067  34.1944108  22.0612652  20.6303869  34.4206850
  21.5341444  20.0612888  34.3061337  17.4320709  19.1749817  18.6232123
  17.1445504  18.8051087  17.8864071  18.1191177  19.6444672  18.3615828
  17.4909606  19.1896786  18.4747199  26.6396530  30.8639467  18.5397737
  26.3983205  30.1307328  18.1324802  26.8197862  31.4126324  17.8864071
  26.6304154  30.8361858  18.3827960  26.6737166  16.2751941  20.1823829
  27.3763519  16.0759689  19.7043787  26.4081355  15.5027883  20.4892672
  26.7383798  16.1314907  20.1569270  32.1025412  24.5834550  22.7357455
  32.0159386  24.7389976  23.5892234  31.6475892  25.2272626  22.3616860
  32.0228668  24.7010305  22.8064561  15.0048903  19.9531029  19.4717404
  15.1065040  20.7557190  19.7998380  15.8004790  19.7518365  19.1740485
  15.1376809  20.0416928  19.4752760  21.4365722  17.5387226  29.2354710
  21.2448919  17.5542360  30.0854133  22.2864318  17.7350900  29.2121364
  21.5341444  17.5701577  29.3578004  15.8212635  20.0678207  27.2138526
  15.6798127  19.2162148  27.3383034  16.1053199  20.1106868  26.3900732
  15.8420481  19.9477957  27.1106150  29.8699277  28.6128657  25.1469795
  29.7313636  29.3109703  25.6518538  29.0899274  28.4577313  24.7905977
  29.7342503  28.6928823  25.1696070  28.2077362  24.9125032  31.3992177
  28.2025400  24.0404849  31.4034604  28.9138356  25.1113201  30.9261633
  28.3122366  24.8128906  31.3299213  21.0076010  32.8304788  27.6367024
  21.1565574  32.2707704  26.9840429  21.7876012  32.9096790  28.0199543
  21.1450104  32.7590353  27.5963973  31.3652649  27.9706911  15.9086295
  30.9859458  27.1844048  15.9015584  30.7018895  28.5193768  15.7657939
  31.2111124  27.9351735  15.8867092  23.5329311  33.0019431  28.9151515
  23.4572982  32.3328241  29.4702303  23.4619170  33.7037219  29.4292181
  23.5109917  33.0064338  29.0728363  24.3469949  17.7342735  29.4426533
  24.8042563  18.4666709  29.5699325  24.4226278  17.3109200  30.2013788
  24.4260919  17.7799973  29.5727609  16.5902941  17.9808555  30.5315976
  16.0545130  17.3688913  30.8476744  16.6520705  18.5556691  31.1849643
  16.5198573  17.9755483  30.6751403  28.8197275  10.9132610  23.3120376
  28.9380843  11.3709074  22.5787678  28.6459451  10.1077872  23.0256593
  28.8116446  10.8626382  23.1621309  24.1899558  31.5220430  19.7475121
  24.9549449  31.2530073  19.4257785  24.0877648  31.0370440  20.4645184
  24.2881053  31.4109994  19.8054949  26.7118218  28.5532613  11.7275070
  27.4791203  28.6132738  11.3180922  26.2649527  27.9813055  11.2431389
  26.7591645  28.4769189  11.5952781  27.6096014  27.3587269  24.0127803
  26.9341015  27.1272501  24.5141190  27.6188390  26.7508452  23.3869908
  27.5114518  27.2346194  23.9943955  29.6112748  30.2152402  16.2437981
  29.6932586  31.0219388  15.9199431  30.0962490  30.2348361  16.9678754
  29.6949906  30.3373064  16.3024879  22.9220945  36.4087750  27.3729516
  23.4116875  35.7098540  27.1905180  22.3505177  36.1111621  27.9605573
  22.9105475  36.2613974  27.4330557  18.7091696  25.3889289  20.3436031
  18.8656316  25.3236092  21.1992023  19.0492290  26.1637842  20.1314711
  18.7824931  25.4938487  20.4390625  29.1187948  28.9749820  36.3256306
  29.9322814  28.7034969  36.4861439  28.9582915  28.6757360  35.5216502
  29.2157897  28.8904746  36.2301712  23.4157291  30.1564524  16.4969422
  23.4850111  29.2979063  16.6362423  24.1945746  30.3736405  16.1688447
  23.5410141  30.0617388  16.4686580  26.3960110  19.6583477  29.2651695
  26.6102080  19.0194391  28.7115049  25.7794010  20.1029301  28.8359556
  26.3365440  19.6293621  29.1202126  27.8064778  32.5802225  20.7105916
  27.4144570  32.2768941  19.9928782  27.9617851  33.4171315  20.5210869
  27.7718368  32.6586062  20.5762413  15.2825958  22.5724239  20.6596798
  15.6624923  22.9908784  19.9957066  14.7081323  23.1537695  20.9665642
  15.2537283  22.7202098  20.6073539  28.5599198  21.2672542  30.2035002
  27.7475880  20.9598433  30.2848175  29.0189133  20.7871542  30.7677714
  28.5079583  21.1509035  30.2989596  27.9704453  29.1452214  20.6511946
  27.6119108  29.3166857  21.4275979  27.4843164  29.6065420  20.0939945
  27.8463150  29.2391185  20.6837215  25.7874839  12.7683413  24.2539038
  24.9168397  12.7422134  24.2072347  26.0415180  12.5960605  23.4364883
  25.6968399  12.7393556  24.1259174  22.7592818  24.8251380  13.1912181
  23.0485343  25.6016262  13.4655755  22.8464617  24.3140111  13.8926680
  22.8147075  24.8643298  13.3354678  25.6552706  22.6732614  34.9863704
  26.1252337  23.2974730  35.3731578  25.7014586  22.0049589  35.5456919
  25.7320582  22.6667294  35.1263776  22.8123980  14.7789641  25.7112508
  22.2962468  14.0869833  25.8364087  22.2517908  15.4460418  25.6575107
  22.6530493  14.7752899  25.7218574  24.8816213  15.3182601  27.5405360
  24.4947966  15.3431633  28.3218890  24.3949150  14.7524280  27.0879877
  24.7528722  15.2378352  27.5893264  29.1309192  30.0356110  31.5979147
  29.7688913  29.5416306  31.2641603  28.4883284  29.9633511  31.0131374
  29.1303419  29.9515119  31.4621502  24.5473355  12.2049587  29.8315620
  25.1766473  12.7409887  29.5536691  24.7159217  12.1126946  30.6829186
  24.6651149  12.2710949  29.9164148  24.3487270  16.9920781  32.1042032
  25.1760699  16.7205930  32.1600646  24.3695116  17.7881623  32.4605850
  24.4740120  17.0700536  32.1657215  29.1863449  30.7275918  28.2384504
  29.9755827  30.3764983  28.3586585  29.3607047  31.5412307  27.9761138
  29.3283731  30.7961776  28.2172372  16.4032326  21.7604181  23.1197043
  16.0089024  21.8347193  22.3447153  15.8472443  22.1462127  23.6705405
  16.2635139  21.8285956  23.0864703  28.0397273  14.7385475  22.8000922
  28.2446867  14.6707783  23.6457919  27.7123697  15.5444296  22.7322100
  28.0212521  14.8471416  22.9160577  21.7939521  19.3766563  19.1054592
  22.0699256  18.6585476  18.6932159  22.3938191  19.9751483  18.8975698
  21.9232786  19.3586934  19.0135353  31.2930961  15.2917239  22.2803688
  30.6805275  15.7787642  22.6657419  31.3895136  14.6160730  22.8241339
  31.2168859  15.2635548  22.4182546  25.2950042  17.0480081  17.3801187
  25.7493788  17.2190641  18.1049032  25.7690088  16.4348191  16.9798963
  25.4318362  16.9830966  17.4274949  19.2126190  17.6930404  27.3771943
  19.6727672  17.7669334  28.1147067  19.2582297  18.4911658  27.0271764
  19.2876745  17.8224551  27.4344700  20.8609540  18.3597099  31.9443970
  20.4695105  17.7130446  32.3799748  21.0295403  18.9508534  32.5638226
  20.8280450  18.3511367  32.1006676  34.9355989  26.3634176  27.7081204
  34.9939113  26.8120825  28.4541180  34.3022456  26.7732989  27.2711284
  34.8507284  26.4907911  27.7533752  28.5755084  31.9837718  24.1435950
  28.3774772  32.4728533  23.4492161  27.9542795  32.1878960  24.7220083
  28.4542648  32.0854256  24.1259173  24.5542637  15.5472874  23.5178056
  23.7078682  15.7195682  23.3919405  24.5513770  14.7422218  23.8543884
  24.4289787  15.4533903  23.5489183  16.0013968  21.3219595  29.7523659
  16.8639581  21.2215304  29.6660989  15.6705751  20.7414304  29.1909231
  16.0799164  21.2211222  29.6569065  31.8877668  24.3850464  25.7946894
  31.6475891  23.5456879  25.7989321  32.3669676  24.4650631  26.5187668
  31.9229852  24.2731864  25.9021696  33.8882855  21.1651921  23.7476153
  33.6492625  21.1247755  22.9096938  34.0516757  22.0123073  23.8741874
  33.8773159  21.2844006  23.6429635  30.4928885  25.5501870  29.6781198
  31.2163084  25.0974397  29.4992218  30.2278848  25.8306536  28.8953526
  30.5610159  25.5252839  29.5359914  19.3615754  20.1462044  26.4134078
  18.7368824  20.1580436  25.8060030  19.0261349  20.6222219  27.0625318
  19.2201246  20.2180561  26.4190646  19.5457503  18.4887162  12.4706763
  19.1970307  19.1406888  12.9338312  19.0653948  18.4744275  11.7430634
  19.4227747  18.5830216  12.4317854  27.1061520  28.7888206  16.5775524
  27.8295719  29.2546319  16.4340098  26.6662111  28.8561816  15.8273121
  27.1477212  28.8672043  16.4460306  18.6306499  21.7555192  28.6308946
  18.7899986  20.9998516  29.0360668  18.4499393  22.3046131  29.2849684
  18.6271858  21.7249005  28.7871652  26.5726802  13.9216427  29.1859736
  26.0767364  14.1180101  28.4951302  27.3295864  14.3209096  29.0148537
  26.6113627  14.0094161  29.0579872  23.8429682  17.5958773  25.7763046
  23.8672169  17.0618885  25.0875826  24.0941155  17.0876082  26.4388637
  23.8839601  17.4419677  25.7727691  11.3537272  24.8790268  25.2106190
  11.2480721  24.8337113  24.3458274  10.6037492  25.2244049  25.4920475
  11.2272875  24.9231176  25.1243520  20.1231004  16.3229591  25.1568790
  20.1629376  16.8238798  25.8703498  19.2980669  16.4139985  24.8874713
  20.0070530  16.4111408  25.2219329  19.3529151  16.3298994  33.0899100
  19.9781854  15.7861127  33.3628532  18.8979631  15.8493912  32.5206890
  19.3777411  16.1788476  33.0460694  19.9181411  21.1145693  17.9832807
  20.0584372  21.6118157  18.6861448  20.4163944  20.4131987  18.1247021
  20.0122492  21.0847672  18.1084386  19.9481634  21.9812804  15.3125384
  20.5826713  22.5773229  15.2474846  20.0307244  21.6816261  16.1271254
  20.0538185  22.0253712  15.4228470  32.9264199  24.5128281  28.1811748
  33.5182040  25.1525532  28.2129946  33.3623194  23.8151318  28.4703815
  33.0782631  24.5046632  28.2292581  21.5260617  17.9126779  15.2870826
  21.8476458  17.4329862  14.6330088  21.7887560  18.7226425  15.0961638
  21.6126642  17.9616677  15.1626318  24.7557589  28.9345654  28.8069642
  24.2482680  29.4881500  29.2510272  24.4584236  28.9953943  27.9888416
  24.6362474  29.0251965  28.7518099  26.9219772  17.2998973  27.6494305
  27.3474843  16.8471500  27.0377831  26.3076765  16.7459044  27.9259092
  26.8948417  17.1512949  27.5999330  16.4534622  24.1780645  18.5814930
  16.9626851  24.7745152  18.9626235  16.9268894  23.9106618  17.8991350
  16.5977997  24.2266460  18.5369453  27.3665370  32.8508911  16.7373585
  26.6494679  32.6769774  16.2720823  28.0172107  32.6161484  16.2049071
  27.3567220  32.7904704  16.5902803  25.3613994  13.7714073  21.0584882
  24.7182312  13.6211719  21.6270020  25.0213401  13.5256418  20.2933987
  25.2159072  13.7126195  21.0287897  24.0000075  33.8670212  25.7126649
  23.7765729  33.1089041  26.0810675  23.5109918  33.8968233  24.9907089
  23.8943524  33.7592436  25.6603390  18.8125153  20.8136903  21.4488110
  18.0937142  21.2301036  21.7160974  19.1837516  21.3791142  20.8979748
  18.7617085  20.9586185  21.4070917  26.0571064  28.0351944  33.2638583
  26.0166919  27.3901621  32.6783738  26.8694382  27.9788561  33.5763995
  26.1714218  27.9310911  33.2235532  22.6478532  34.0870670  23.1663733
  22.2338930  33.4244800  22.7767575  23.3325906  34.2348529  22.6459428
  22.6876903  34.0111328  23.0320231  26.0143826  33.2460755  23.9187350
  25.6160109  33.3563026  23.1508170  25.3995045  33.4542822  24.5013910
  25.8642715  33.2934323  23.8918649  24.5871728  19.8534903  16.7861490
  23.9936567  20.1751900  16.2346057  24.6247005  19.0075998  16.5782596
  24.5046117  19.7759231  16.6744261  31.5465528  13.3047795  24.3189576
  31.0396393  12.5976935  24.2510754  32.3432962  12.9740984  24.4490653
  31.5892768  13.1520947  24.3288571  16.5914487  20.1086456  32.4690702
  16.4217078  20.7687831  31.9238909  16.1480437  20.3193017  33.1903191
  16.5013821  20.2372438  32.4952331  20.5174307  18.3490954  21.5117436
  20.9931673  18.7108034  20.8767617  20.0162906  19.0047421  21.7917578
  20.5139666  18.4985143  21.4594177  33.7485668  27.8212722  17.3030441
  34.1319274  28.5704078  17.5328538  32.9529782  28.0678542  17.0442430
  33.6879451  27.9682416  17.2988014  25.6217843  19.5873125  32.2590596
  26.1789273  19.3586935  31.6269061  25.2978908  20.3478791  31.9825808
  25.6564253  19.6656962  32.1247093  13.4916552  23.0133321  27.7279192
  12.9443271  22.3433967  27.8460060  14.2808930  22.6463169  27.7922659
  13.5268736  22.8598308  27.7547892  23.3400960  22.6740779  33.2242603
  24.0912287  22.9892455  33.5382157  23.5323537  22.4719949  32.3976525
  23.4792374  22.6908160  33.1485999  22.5600960  20.4932154  14.8790820
  22.9399925  20.5111783  14.0941934  21.8193556  20.9386142  14.7581667
  22.5069798  20.5613928  14.7454388  12.2503521  22.2254129  24.8825215
  12.0725282  21.7730738  25.6080130  11.9622544  23.0280291  25.0663692
  12.1816475  22.2776687  25.0168718  23.3585714  27.3309660  16.2699610
  22.5497037  27.0076333  16.2232919  23.8660623  26.6242882  16.2027858
  23.3135381  27.1790976  16.2529904  13.9875991  24.7581853  21.9946974
  13.1221511  24.7467543  21.8829745  14.0874807  24.5712076  22.8418113
  13.8750158  24.7287914  22.1035918  29.9778921  26.2315534  26.8079734
  30.4033993  25.7089956  26.2550159  29.6135841  26.8296372  26.2868357
  29.9865524  26.2425761  26.6488744  19.6133001  34.5279752  25.5677079
  19.9279560  35.3416140  25.5754861  20.0226415  34.1429970  26.2359239
  19.7201099  34.5908454  25.6681171  26.5657521  29.9449798  23.1380891
  27.0368699  30.6590061  23.3070877  26.9017699  29.3448549  23.6740761
  26.6852636  29.9621263  23.2413267  28.6534505  31.5551112  35.3172964
  28.7631471  30.7659672  35.6729711  28.9825402  31.4657048  34.5147302
  28.7186911  31.4256965  35.2515354  23.4827016  14.7177269  30.0938986
  23.6154921  13.9208262  30.4219962  23.8672169  15.2443672  30.6737262
  23.5583345  14.6777186  30.2282489  27.2031467  29.7367733  29.9008584
  26.6552413  29.1125616  29.6328649  27.6644496  29.9262005  29.1852663
  27.1898677  29.6726783  29.7559015  26.5559371  11.6407595  26.6920079
  25.7505335  11.5305325  27.0087918  26.4266106  11.7420051  25.8349945
  26.4179504  11.6391265  26.6128120  30.0125331  17.8053087  27.2859776
  29.4288320  18.3062294  26.8737344  30.3329626  17.2982643  26.6524100
  29.9738507  17.8044922  27.1318284  22.5520131  16.7193682  17.5618451
  23.3735825  16.8891995  17.3200146  22.0889782  16.8740943  16.8384749
  22.6051293  16.7675415  17.4190095  21.1415463  14.7136444  28.3416880
  21.6859876  14.3727571  28.9321222  21.1952398  15.5721906  28.4838165
  21.2304582  14.7891703  28.4498753  26.7689793  30.7418805  26.4317925
  27.5888167  30.5981771  26.6934220  26.4883871  31.3665004  26.9734363
  26.8486537  30.8129157  26.5505865  12.1897304  27.4587478  25.0854611
  12.0921582  26.6483749  25.3944668  12.9726173  27.4379271  24.7000879
  12.2913440  27.3354568  25.0741474  43.2403444  38.3983657  19.3960802
  43.2097448  39.2528294  19.5679071  43.8384793  38.0978950  19.9546945
  43.3240602  38.4800154  19.5035604  36.4403129  37.4859308  24.1513732
  35.5841024  37.6467806  24.2022849  36.4870782  36.6151372  24.1718793
  36.3202240  37.3810110  24.1619798  30.8244268  47.0222026  19.9150964
  30.0727168  46.6437564  19.6867009  31.2730280  47.0540459  19.1669774
  30.7793935  46.9707633  19.7708466  39.7496845  43.7545834  33.7574188
  40.4563612  43.2597864  33.8861123  39.9384781  44.1954915  33.0276846
  39.8824751  43.7464184  33.6683234  36.2769228  47.4447395  15.3436511
  35.9420597  48.1224317  14.9080733  36.7896099  47.0552707  14.7553382
  36.3034809  47.4871974  15.1923302  39.2854950  39.5451352  26.7945384
  39.8310910  40.2236438  26.8539353  39.2271826  39.4038813  25.9346965
  39.3570864  39.6243354  26.6757444  32.4029025  47.0340418  22.1813736
  32.5039387  46.2240772  22.4910864  31.8070770  46.9397364  21.5513415
  32.3301563  46.9005446  22.1339975  41.0620018  40.9735959  17.6679111
  40.9459544  41.7243645  18.0971250  41.8575905  40.7159912  17.9175199
  41.1624608  41.0470806  17.7683203  25.5994069  43.0560705  21.8066070
  25.3644253  42.2228357  21.6998339  25.7379710  43.3365370  20.9927271
  25.5849731  42.9744208  21.6708425  27.8984156  35.2246435  24.7050377
  27.2789188  34.6339082  24.5360392  27.7968020  35.8157870  24.0714701
  27.7921832  35.2250518  24.5855367  32.9450344  44.9629982  18.9548454
  33.2666185  45.5035189  18.3509762  33.5922440  44.3926753  19.0870744
  33.0876399  44.9589157  18.8855489  34.9952052  36.9645977  19.0382841
  35.6932217  37.1434104  19.5304304  35.3104384  36.4416316  18.4153230
  35.1447389  36.9139749  19.0184851  27.6253289  38.7698717  26.9493946
  27.5011986  39.3561162  27.5843765  28.2771574  38.2758913  27.2506221
  27.7026939  38.7837521  27.0879876  35.1839987  43.3516422  19.0262632
  35.6233623  42.7433522  19.4717405  35.0344650  42.9723795  18.2548097
  35.2261453  43.2054893  18.9781799  32.6511630  41.9460434  26.2281458
  33.2960633  41.4532877  25.9092406  32.8913407  42.0885220  27.0547536
  32.7822215  41.8937876  26.3030991  35.1897722  44.7915340  25.8788350
  35.4720965  43.9966745  25.6575106  35.9183882  45.2695927  25.8993411
  35.3387285  44.7449937  25.8491365  33.1678916  32.3338374  23.1204115
  32.8382246  32.7849517  22.4507814  32.4923917  32.2554537  23.6677122
  33.0189352  32.3889509  23.1027338  38.7849324  41.7043603  15.9793401
  38.7000619  42.5604570  16.1242970  39.2733707  41.4287927  16.6475560
  38.8438221  41.7900925  16.0995483  40.3755323  28.3223896  21.3653726
  40.0608764  29.0127375  21.7974148  39.8582265  28.2668679  20.6639227
  40.2519794  28.4158785  21.3250675  39.7167757  38.3228397  17.4791136
  39.1879229  38.5388031  18.1388443  40.2392777  39.0164536  17.3992106
  39.7156210  38.4571534  17.5646736  31.6067365  42.2191614  16.2798604
  31.0224580  42.7241646  16.6864468  31.2037460  41.9934001  15.5395196
  31.4606669  42.2599862  16.2303630  27.1611393  47.9346375  23.0822276
  26.6778972  48.6596865  23.0581860  27.9734712  48.2322505  23.1932434
  27.2102141  48.0848729  23.0949555  33.2325548  46.7278556  25.6872090
  32.7152489  46.3685971  25.0833398  33.9299939  46.2040730  25.6978157
  33.2591129  46.5976244  25.6002349  36.8889140  47.1773370  31.6488263
  36.9772485  46.9899511  32.4966474  37.3178852  46.5310800  31.2493110
  36.9651242  47.0536378  31.7160015  34.4559599  46.4604530  30.6305926
  33.8930434  46.0477140  31.1545587  35.2180623  46.3857436  31.0499069
  34.4854048  46.3881931  30.7698926  36.0644579  38.4657266  14.7567525
  36.3040583  38.6735250  13.9442868  36.3860420  37.6614775  14.8656470
  36.1481737  38.3771367  14.6528078  31.3734870  30.3950662  18.6027063
  32.1280838  30.7628979  18.3644113  31.1962404  30.7690216  19.3706243
  31.4589348  30.5048850  18.6811951  30.0155591  48.4502551  23.2342556
  30.7176170  47.9354540  23.2915312  29.9353074  48.7776703  24.0389431
  30.1079351  48.4216777  23.3615348  44.6669768  36.5445103  26.6474602
  43.8298189  36.6147290  26.8822197  44.6357999  36.5469597  25.7748905
  44.5388051  36.5555330  26.5534150  31.0634497  38.6878138  32.3622971
  31.2355001  38.5784033  33.2108252  31.6003855  39.3332544  32.1254163
  31.1679501  38.7670140  32.4528068  29.7291934  32.8020981  15.3005176
  29.5467507  33.0192862  14.4746169  30.5917547  32.9159994  15.3563790
  29.8296524  32.8510879  15.1859663  29.3406366  44.6408903  22.7428164
  30.1795266  44.8731836  22.7901925  29.3718135  43.7713215  22.6735199
  29.4688084  44.5465850  22.7392808  29.9659069  45.0609778  27.0441469
  30.5057294  44.9180909  27.7144842  29.2829015  45.4606529  27.4125496
  29.9451223  45.0989449  27.1975891  35.4091653  29.8047392  18.3354200
  36.1377814  29.6263347  17.8892356  35.4986546  30.6465471  18.5461378
  35.5298315  29.9031270  18.3007717  39.3899954  40.7400779  22.2386494
  40.1457469  41.1732293  22.2775402  39.4962279  40.0905549  22.8121130
  39.5170125  40.7078263  22.3284519  25.3696214  41.2810069  27.1975891
  25.1034629  40.4649186  27.3566881  25.3834778  41.3263225  26.3271406
  25.3320937  41.1666974  27.0929373  42.3477608  31.6087884  25.2318325
  42.9903517  31.6785989  25.8180240  42.6000629  30.9417107  24.7297867
  42.4799740  31.5214233  25.2445604  29.2753961  36.0795154  13.8127649
  28.5612138  35.7933333  14.2250081  29.7597930  36.4191779  14.4534036
  29.2413325  36.0876803  13.9683284  30.1194821  34.8188448  29.8442899
  29.4266617  34.3485427  30.0903630  30.7355148  34.5926752  30.4184606
  30.1079351  34.7155579  29.9652051  45.5624471  41.2854976  21.8808534
  46.2240906  40.7245645  21.7804442  44.9215883  40.7907007  22.2061225
  45.5653339  41.1291385  21.9140874  36.4501279  44.5825108  14.1889457
  36.8652428  44.2510131  13.4973953  35.6193209  44.3494010  14.0609594
  36.3889288  44.4996364  14.0680305  25.7789628  42.0668849  24.4787635
  25.5965201  42.0415735  23.6259927  26.5139297  42.5367786  24.5176544
  25.8603692  42.1330211  24.3585554  41.8489302  42.3020359  21.6220523
  42.0844891  42.4465557  20.7947373  41.9978866  43.0662767  22.0152036
  41.9055105  42.4359413  21.5584127  28.8435380  38.7853851  30.9869744
  29.5675352  38.7706882  31.4734638  28.9451516  39.4949207  30.4891712
  28.9653589  38.8878555  30.9848531  43.6779759  41.1422025  19.4590126
  44.0087976  41.6749665  18.8530221  44.2512847  41.1960912  20.1152077
  43.8113438  41.2291593  19.4667908  36.2180329  42.2652936  35.8518691
  35.4253310  42.5796448  36.0371310  36.3329256  42.4804405  35.0139475
  36.1175740  42.3436773  35.7557026  38.8911648  38.9886927  20.1413707
  38.9858502  39.7276221  20.5953332  38.2670492  38.5604403  20.5748271
  38.8120678  39.0348248  20.2721854  37.1464122  42.1673140  30.7903987
  37.7202983  41.5300384  30.9452551  37.0678926  42.1677222  29.9213645
  37.2197357  42.0738251  30.6850398  25.7460538  38.9462349  24.6286702
  26.3234041  38.8098800  25.2678947  25.0474600  38.4898133  24.8832286
  25.7281560  38.8584616  24.7608991  39.1434669  40.8335667  13.3750659
  39.0614832  40.9037854  14.2405646  39.7814390  41.3965411  13.1834399
  39.2254507  40.9274638  13.4740608  32.5027840  40.5996405  22.8425185
  32.2447085  39.7668140  22.8156484  32.5576323  40.8254018  22.0017685
  32.4727618  40.5094176  22.7145322  37.5828891  32.7024856  22.9429278
  36.8785217  32.2134041  23.1013197  37.6313865  32.7147330  22.0717722
  37.4858942  32.6314504  22.8368617  31.4762553  38.1534167  23.3290080
  30.9012144  38.3126336  23.9654041  31.0998229  37.5169577  22.8658530
  31.3365365  38.0831980  23.3544638  35.1435841  36.6257517  28.1882458
  34.7550274  36.2011734  27.5334649  34.4790540  36.8739666  28.6959485
  34.9882769  36.5996238  28.1670326  44.7859110  36.3832521  20.9630288
  44.5295675  35.5712463  20.7728171  45.6288424  36.3910089  20.7360475
  44.8725136  36.2644519  20.9015105  21.2219371  37.7974242  21.3434520
  21.3079623  37.4206111  22.1248050  21.8495169  37.4234688  20.8654479
  21.3275922  37.6859724  21.3879998  38.9662203  30.3232145  25.7006442
  39.3472715  29.6410317  26.0874317  38.1625487  30.0341748  25.5182107
  38.9038664  30.1799194  25.7310498  36.2474779  40.8556121  16.3859265
  37.0615418  41.1471014  16.2742036  36.1833921  40.2015984  15.8117558
  36.3577519  40.8021316  16.2848102  42.4684270  43.5382117  30.7988841
  42.2322907  42.7070182  30.6800901  43.1127499  43.4867725  31.3843685
  42.5278940  43.4079805  30.8674734  32.1182688  44.3277639  21.5131577
  32.7556635  44.0889386  22.0583371  32.5437759  44.5314798  20.7784738
  32.2758854  44.3228649  21.4848734  26.8095330  46.5665975  25.3965881
  26.8499475  46.8380826  24.5685661  27.3689854  47.0907883  25.8123669
  26.8978676  46.6841730  25.3357769  32.7585503  39.5479929  15.8506467
  33.1430656  39.3287635  16.6023012  32.5097123  40.3742874  15.9807543
  32.7787575  39.6378075  15.9807543  32.9254043  32.8286344  35.5669051
  32.6107484  33.5985906  35.3038613  32.6043976  32.2656600  34.9821278
  32.8312962  32.8596612  35.4410401  43.4920690  43.3226566  26.8617135
  43.1866507  44.0554623  27.2230451  42.7726906  42.9164496  26.5809921
  43.3408033  43.3708299  26.8730272  34.5004160  44.8050061  23.1925363
  34.5743168  44.6425233  24.0467213  35.3173666  44.9940251  22.9485845
  34.6320518  44.8086804  23.2823389  28.2609916  45.1507924  20.2219807
  27.4348034  45.3969661  20.0954086  28.3221908  45.0720005  21.0881865
  28.1484083  45.1752873  20.3308751  30.4785940  31.2176865  21.1815247
  29.6108366  31.2899465  21.2472856  30.7661144  32.0198944  21.3703222
  30.3925688  31.3471012  21.2190014  39.6018829  31.3654725  29.5126569
  40.3472421  31.1764535  29.0989994  39.1856134  31.8912963  28.9540425
  39.6503803  31.4156870  29.3691142  33.0408745  47.7684804  17.9238837
  33.3307044  47.3773786  17.1998063  33.7712226  47.9501509  18.3644112
  33.1915630  47.7378618  17.8821644  46.9781100  38.7363953  24.4632074
  47.5289021  38.1032022  24.7029166  46.9625215  39.2679346  25.1547578
  47.0566296  38.7212901  24.6010932  33.6303491  42.5702550  29.0091967
  33.1315184  43.2818318  29.0876856  34.4403715  42.8903217  28.9710130
  33.6759597  42.7229399  29.0148536  30.9814661  49.7452187  20.9898987
  30.7614956  49.4549542  21.7825654  30.7609183  49.0867142  20.4616899
  30.9162255  49.6051895  21.0287895  29.8931608  41.8325503  23.2554688
  29.6044857  41.2062975  23.7900415  30.7614956  41.7745791  23.3219369
  29.9791860  41.7313048  23.3445643  40.6809506  36.9760287  23.5736670
  40.3374272  36.2550622  23.9243920  40.7802549  36.7674138  22.7315028
  40.6451549  36.8384490  23.5008350  33.1482617  51.1181577  19.7729679
  33.8006675  50.5858019  20.0020705  32.4508225  50.7650229  20.1597553
  33.1413335  50.9871100  19.8641847  30.0963882  43.4720754  19.1797053
  30.8509850  43.8533793  19.3932516  29.5034494  43.9231898  19.6343750
  30.1200595  43.5949582  19.2779932  41.1422535  43.4385991  19.1160658
  41.7080568  44.0979201  19.0319201  40.4950438  43.7835689  19.5877060
  41.1301291  43.5867932  19.1733415  32.5570549  35.4283595  34.3054266
  31.7470324  35.7341374  34.1944108  33.0345235  36.1489177  34.4206850
  32.5074027  35.5798196  34.3061337  31.4162108  44.6429316  24.5537169
  30.8942862  44.7829607  25.2389033  31.8036128  43.8839980  24.7439286
  31.3965809  44.5514840  24.6838245  28.4053292  34.6935125  18.6232123
  28.1178088  34.3236395  17.8864071  29.0923760  35.1629980  18.3615828
  28.4642190  34.7082094  18.4747199  37.6129113  46.3824775  18.5397737
  37.3715789  45.6492636  18.1324802  37.7930446  46.9311632  17.8864071
  37.6036737  46.3547166  18.3827960  32.8428434  41.6733335  19.9518660
  32.6471216  42.2808069  19.3578963  33.0662779  40.9801279  19.4710334
  32.8463075  41.6610860  19.7934740  31.2406964  38.5588073  20.0699528
  31.9629616  38.7229231  19.6103334  30.7614957  39.2797738  19.9638868
  31.2770694  38.6886302  19.9865142  39.2000471  34.8951872  25.4496213
  38.3611572  34.9213150  25.2134476  39.2704839  35.5422607  26.0301560
  39.0868865  34.9947997  25.5005330  28.8914580  40.9646145  29.1753668
  29.4035677  41.2430398  28.5262428  28.6050923  41.7035439  29.5416481
  28.9249444  41.1148499  29.1343546  37.6469750  31.7937249  20.1823829
  38.3496102  31.5944997  19.7043787  37.3813938  31.0213191  20.4892672
  37.7116382  31.6500215  20.1569270  43.0757995  40.1019858  22.7357455
  42.9891970  40.2575284  23.5892234  42.6208475  40.7457934  22.3616860
  42.9961252  40.2195613  22.8064561  25.9781487  35.4716337  19.4717404
  26.0797623  36.2742498  19.7998380  26.7737374  35.2703673  19.1740485
  26.1109392  35.5602236  19.4752760  32.4098306  33.0572534  29.2354710
  32.2181503  33.0727668  30.0854133  33.2596902  33.2536208  29.2121364
  32.5074028  33.0886885  29.3578004  26.7945219  35.5863515  27.2138526
  26.6530711  34.7347456  27.3383034  27.0785782  35.6292176  26.3900732
  26.8153065  35.4663265  27.1106150  36.9483811  37.4230605  21.3583014
  36.7018526  37.3426356  22.1919803  37.2768934  36.6384073  21.1645542
  36.9605055  37.2956871  21.4530537  40.8431860  44.1313965  25.1469795
  40.7046219  44.8295011  25.6518538  40.0631858  43.9762621  24.7905977
  40.7075087  44.2114131  25.1696070  39.1809945  40.4310340  31.3992177
  39.1757984  39.5590157  31.4034604  39.8870939  40.6298509  30.9261633
  39.2854949  40.3314214  31.3299213  32.9080839  40.1587324  30.7705997
  33.0524214  40.7388532  30.1349107  33.2556487  40.5363621  31.4755852
  32.9808300  40.3008028  30.7804992  35.0800756  39.3577492  28.5531129
  34.3324070  39.5508507  28.1479407  35.2342281  38.5322712  28.3155250
  34.9923184  39.2642604  28.4576535  31.9808594  48.3490096  27.6367024
  32.1298157  47.7893012  26.9840429  32.7608596  48.4282097  28.0199543
  32.1182687  48.2775661  27.5963973  42.3385233  43.4892219  15.9086295
  41.9592042  42.7029356  15.9015584  41.6751478  44.0379076  15.7657939
  42.1843708  43.4537042  15.8867092  34.5061894  48.5204739  28.9151515
  34.4305565  47.8513549  29.4702303  34.4351753  49.2222527  29.4292181
  34.4842501  48.5249646  29.0728363  35.3202533  33.2528043  29.4426533
  35.7775147  33.9852017  29.5699325  35.3958862  32.8294508  30.2013788
  35.3993503  33.2985281  29.5727609  27.5635524  33.4993863  30.5315976
  27.0277714  32.8874221  30.8476744  27.6253289  34.0741999  31.1849643
  27.4931157  33.4940791  30.6751403  39.7929859  26.4317918  23.3120376
  39.9113427  26.8894382  22.5787678  39.6192035  25.6263179  23.0256593
  39.7849030  26.3811690  23.1621309  35.1632141  47.0405738  19.7475121
  35.9282032  46.7715381  19.4257785  35.0610231  46.5555748  20.4645184
  35.2613637  46.9295302  19.8054949  33.1984911  35.2430147  26.2868357
  32.4080986  35.0621607  26.6085692  33.5945534  34.4657100  26.2698651
  33.1401787  35.1017608  26.3320905  38.5828597  42.8772577  24.0127803
  37.9073599  42.6457809  24.5141190  38.5920973  42.2693760  23.3869908
  38.4847102  42.7531502  23.9943955  35.7122741  37.7190406  30.7691856
  35.6481882  38.5800363  30.6411992  35.8519929  37.4022399  29.9687407
  35.7238211  37.7990573  30.6320068  34.3941835  40.4122545  24.9108058
  33.9704084  40.6127045  24.1747077  34.2186690  39.5651393  25.0232358
  34.3052716  40.3171327  24.8181749  29.6824280  40.9074597  20.3436031
  29.8388899  40.8421400  21.1992023  30.0224873  41.6823149  20.1314711
  29.7557515  41.0123795  20.4390625  36.2203425  40.2832480  19.2129394
  36.7618970  39.7802862  19.6768015  36.5349984  40.2297675  18.4018879
  36.3467822  40.2011901  19.1613206  34.3889874  45.6749832  16.4969422
  34.4582695  44.8164370  16.6362423  35.1678329  45.8921713  16.1688447
  34.5142724  45.5802696  16.4686580  37.3692694  35.1768785  29.2651695
  37.5834664  34.5379699  28.7115049  36.7526593  35.6214609  28.8359556
  37.3098023  35.1478929  29.1202126  26.2558542  38.0909547  20.6596798
  26.6357506  38.5094092  19.9957066  25.6813906  38.6723003  20.9665642
  26.2269866  38.2387406  20.6073539  39.5331782  36.7857850  30.2035002
  38.7208464  36.4783741  30.2848175  39.9921717  36.3056850  30.7677714
  39.4812167  36.6694343  30.2989596  38.9437037  44.6637522  20.6511946
  38.5851691  44.8352165  21.4275979  38.4575747  45.1250728  20.0939945
  38.8195734  44.7576493  20.6837215  36.7607423  28.2868721  24.2539038
  35.8900981  28.2607442  24.2072347  37.0147764  28.1145913  23.4364883
  36.6700983  28.2578864  24.1259174  33.7325402  40.3436688  13.1912181
  34.0217927  41.1201570  13.4655755  33.8197201  39.8325419  13.8926680
  33.7879658  40.3828606  13.3354678  36.6285290  38.1917922  34.9863704
  37.0984921  38.8160038  35.3731578  36.6747170  37.5234897  35.5456919
  36.7053165  38.1852602  35.1263776  33.7856563  30.2974949  25.7112508
  33.2695052  29.6055141  25.8364087  33.2250492  30.9645726  25.6575107
  33.6263076  30.2938207  25.7218574  35.8548797  30.8367909  27.5405360
  35.4680550  30.8616941  28.3218890  35.3681734  30.2709588  27.0879877
  35.7261306  30.7563660  27.5893264  40.1041776  45.5541418  31.5979147
  40.7421497  45.0601614  31.2641603  39.4615868  45.4818819  31.0131374
  40.1036003  45.4700427  31.4621502  41.8298776  37.4030564  26.1645063
  41.4026384  37.3156913  25.4093162  41.1924829  37.5108340  26.7499907
  41.6728383  37.4063224  26.1390504  35.5205938  27.7234895  29.8315620
  36.1499056  28.2595195  29.5536691  35.6891801  27.6312254  30.6829186
  35.6383733  27.7896257  29.9164148  35.3219853  32.5106089  32.1042032
  36.1493283  32.2391238  32.1600646  35.3427699  33.3066931  32.4605850
  35.4472703  32.5885844  32.1657215  29.8989343  39.6569952  25.2912293
  29.0577350  39.5573826  25.4991186  30.1079351  40.4265432  25.6426613
  29.8054036  39.7561995  25.3739608  27.3764910  37.2789489  23.1197043
  26.9821608  37.3532501  22.3447153  26.8205027  37.6647435  23.6705405
  27.2367722  37.3471264  23.0864703  39.0129857  30.2570783  22.8000922
  39.2179450  30.1893091  23.6457919  38.6856281  31.0629604  22.7322100
  38.9945105  30.3656724  22.9160577  33.7106008  37.5851351  24.5409890
  33.4069145  37.0307340  25.1420298  33.0085429  37.7643561  24.0537924
  33.5622218  37.5296134  24.5579596  32.7672105  34.8951871  19.1054592
  33.0431839  34.1770784  18.6932159  33.3670774  35.4936791  18.8975698
  32.8965370  34.8772242  19.0135353  31.7724359  44.8001072  29.2481988
  31.6644714  44.8103134  30.1144046  31.9820140  45.6255852  29.0586942
  31.7874470  44.9242147  29.3486080  42.2663545  30.8102547  22.2803688
  41.6537858  31.2972949  22.6657419  42.3627719  30.1346038  22.8241339
  42.1901442  30.7820856  22.4182546  36.2682625  32.5665388  17.3801187
  36.7226372  32.7375949  18.1049032  36.7422671  31.9533499  16.9798963
  36.4050946  32.5016274  17.4274949  29.7898151  42.0513714  26.7103926
  29.1986084  42.6923213  26.6806941  30.5519174  42.4751332  26.6835225
  29.8146412  42.2089553  26.7019073  30.1858774  33.2115712  27.3771943
  30.6460255  33.2854642  28.1147067  30.2314880  34.0096966  27.0271764
  30.2609329  33.3409859  27.4344700  31.8342123  33.8782407  31.9443970
  31.4427689  33.2315754  32.3799748  32.0027986  34.4693842  32.5638226
  31.8013034  33.8696675  32.1006676  33.6095645  39.2707923  18.4846194
  34.3537690  39.6582199  18.7229144  33.7556342  38.4265348  18.6486682
  33.7406231  39.2038396  18.5440164  35.5275221  31.0658182  23.5178056
  34.6811266  31.2380990  23.3919405  35.5246353  30.2607525  23.8543884
  35.4022371  30.9719211  23.5489183  36.5973521  34.8433396  24.3840114
  36.1233476  34.3175158  24.8945424  36.9691657  34.2962869  23.8154975
  36.5823410  34.6849393  24.3755261  26.9746551  36.8404903  29.7523659
  27.8372165  36.7400612  29.6660989  26.6438335  36.2599612  29.1909231
  27.0531748  36.7396530  29.6569065  42.8610252  39.9035772  25.7946894
  42.6208475  39.0642187  25.7989321  43.3402259  39.9835939  26.5187668
  42.8962436  39.7917172  25.9021696  38.5257021  35.7369951  17.4465867
  37.9980040  35.8198695  16.7571576  38.9852729  36.4787822  17.4430512
  38.5158871  35.8590613  17.3440563  44.8615439  36.6837229  23.7476153
  44.6225209  36.6433063  22.9096938  45.0249340  37.5308381  23.8741874
  44.8505742  36.8029314  23.6429635  41.4661469  41.0687178  29.6781198
  42.1895668  40.6159705  29.4992218  41.2011431  41.3491844  28.8953526
  41.5342742  41.0438147  29.5359914  30.3348337  35.6647352  26.4134078
  29.7101408  35.6765744  25.8060030  29.9993932  36.1407527  27.0625318
  30.1933829  35.7365869  26.4190646  30.5190086  34.0072470  12.4706763
  30.1702890  34.6592196  12.9338312  30.0386532  33.9929583  11.7430634
  30.3960330  34.1015524  12.4317854  27.0474013  43.7247812  27.8537842
  26.5173938  43.0340251  27.9032817  27.3199106  43.7157997  27.0250550
  27.0098735  43.6214944  27.7385258  38.0794104  44.3073514  16.5775524
  38.8028302  44.7731627  16.4340098  37.6394695  44.3747124  15.8273121
  38.1209796  44.3857351  16.4460306  37.2480259  41.1671057  27.8276213
  36.6337252  40.6229107  28.1224849  37.7647544  40.6535293  27.3482030
  37.2335921  41.0107466  27.8000442  36.4876556  42.2375327  25.5620512
  36.0604164  41.6125045  25.1285947  36.4801500  41.9550248  26.3879519
  36.4235697  42.1028107  25.6200340  29.6039083  37.2740500  28.6308946
  29.7632570  36.5183824  29.0360668  29.4231976  37.8231439  29.2849684
  29.6004442  37.2434313  28.7871652  37.5459386  29.4401735  29.1859736
  37.0499947  29.6365409  28.4951302  38.3028448  29.8394403  29.0148537
  37.5846211  29.5279469  29.0579872  34.8162265  33.1144081  25.7763046
  34.8404753  32.5804193  25.0875826  35.0673739  32.6061390  26.4388637
  34.8572184  32.9604985  25.7727691  22.3269855  40.3975576  25.2106190
  22.2213304  40.3522420  24.3458274  21.5770075  40.7429357  25.4920475
  22.2005458  40.4416484  25.1243520  31.0963588  31.8414899  25.1568790
  31.1361959  32.3424106  25.8703498  30.2713252  31.9325293  24.8874713
  30.9803114  31.9296716  25.2219329  33.2793201  41.4075639  33.2589085
  32.4288831  41.5447354  33.3946730  33.4421328  40.6739418  33.7036787
  33.1777064  41.3189741  33.3444684  32.5177951  38.3575409  27.4542689
  31.6869881  38.5249227  27.2477937  32.4629468  37.9811360  28.2391575
  32.3867366  38.3265140  27.5391217  30.3261734  31.8484302  33.0899100
  30.9514438  31.3046435  33.3628532  29.8712214  31.3679220  32.5206890
  30.3509995  31.6973783  33.0460694  30.8913995  36.6331001  17.9832807
  31.0316956  37.1303465  18.6861448  31.3896528  35.9317295  18.1247021
  30.9855076  36.6032979  18.1084386  30.9214217  37.4998112  15.3125384
  31.5559297  38.0958537  15.2474846  31.0039828  37.2001569  16.1271254
  31.0270768  37.5439020  15.4228470  43.8996783  40.0313589  28.1811748
  44.4914623  40.6710840  28.2129946  44.3355778  39.3336626  28.4703815
  44.0515214  40.0231939  28.2292581  32.4993200  33.4312087  15.2870826
  32.8209041  32.9515170  14.6330088  32.7620144  34.2411733  15.0961638
  32.5859226  33.4801985  15.1626318  35.7290173  44.4530962  28.8069642
  35.2215264  45.0066808  29.2510272  35.4316819  44.5139251  27.9888416
  35.6095058  44.5437273  28.7518099  37.8952355  32.8184281  27.6494305
  38.3207427  32.3656808  27.0377831  37.2809348  32.2644352  27.9259092
  37.8681000  32.6698257  27.5999330  27.4267205  39.6965952  18.5814930
  27.9359435  40.2930460  18.9626235  27.9001477  39.4291926  17.8991350
  27.5710581  39.7451768  18.5369453  36.3346578  29.2899381  21.0584882
  35.6914896  29.1397027  21.6270020  35.9945985  29.0441726  20.2933987
  36.1891655  29.2311503  21.0287897  40.9245924  37.2458808  20.4814891
  40.2537114  37.7888510  20.3527956  41.6185675  37.7153663  20.2396585
  40.9274792  37.3957079  20.4270418  34.9732658  49.3855520  25.7126649
  34.7498313  48.6274349  26.0810675  34.4842501  49.4153541  24.9907089
  34.8676107  49.2777744  25.6603390  41.0874052  33.7014691  23.3905264
  41.4401662  33.2744414  24.0651063  40.2288853  33.6165535  23.5206340
  41.0123497  33.6259432  23.5100274  29.7857737  36.3322211  21.4488110
  29.0669726  36.7486344  21.7160974  30.1570099  36.8976450  20.8979748
  29.7349669  36.4771493  21.4070917  39.0857318  36.9650060  27.3390106
  39.0655245  36.7833355  28.1924885  39.1336518  37.8362078  27.3149690
  39.0891959  37.0666598  27.4613401  37.0303648  43.5537252  33.2638583
  36.9899502  42.9086929  32.6783738  37.8426966  43.4973869  33.5763995
  37.1446801  43.4496219  33.2235532  33.6211115  49.6055978  23.1663733
  33.2071514  48.9430108  22.7767575  34.3058489  49.7533837  22.6459428
  33.6609487  49.5296636  23.0320231  35.5604311  35.3720211  16.7861490
  34.9669151  35.6937207  16.2346057  35.5979589  34.5261306  16.5782596
  35.4778700  35.2944539  16.6744261  42.5198112  28.8233103  24.3189576
  42.0128977  28.1162243  24.2510754  43.3165546  28.4926292  24.4490653
  42.5625351  28.6706255  24.3288571  38.4362128  35.3299715  20.2163240
  38.2075821  35.3532417  19.3741598  38.6960204  34.5057182  20.3358251
  38.4408316  35.2115795  20.1088438  32.7181356  37.1834188  29.8188340
  32.2060259  36.5755371  30.1773372  32.5460852  37.8990781  30.2862316
  32.6170993  37.1997488  29.9404564  27.5647071  35.6271764  32.4690702
  27.3949661  36.2873139  31.9238909  27.1213021  35.8378325  33.1903191
  27.4746405  35.7557746  32.4952331  31.4906890  33.8676262  21.5117436
  31.9664257  34.2293342  20.8767617  30.9895490  34.5232729  21.7917578
  31.4872249  34.0170451  21.4594177  36.5950427  35.1058433  32.2590596
  37.1521857  34.8772243  31.6269061  36.2711492  35.8664099  31.9825808
  36.6296837  35.1842270  32.1247093  24.4649135  38.5318629  27.7279192
  23.9175855  37.8619275  27.8460060  25.2541514  38.1648477  27.7922659
  24.5001319  38.3783616  27.7547892  34.3133544  38.1926086  33.2242603
  35.0644871  38.5077763  33.5382157  34.5056120  37.9905257  32.3976525
  34.4524958  38.2093468  33.1485999  33.5333543  36.0117462  14.8790820
  33.9132508  36.0297091  14.0941934  32.7926140  36.4571450  14.7581667
  33.4802381  36.0799236  14.7454388  41.1618834  34.3199653  20.4666398
  41.1613060  34.1648309  21.3250675  40.9575014  35.1662640  20.4107784
  41.1318612  34.4220274  20.5854338  23.2236105  37.7439437  24.8825215
  23.0457866  37.2916046  25.6080130  22.9355127  38.5465599  25.0663692
  23.1549058  37.7961995  25.0168718  38.8859686  38.9997155  24.1202605
  39.3813351  38.2820150  24.0806625  38.0759462  38.6967952  24.0057092
  38.8403579  38.8494801  24.0976331  34.3318298  42.8494968  16.2699610
  33.5229620  42.5261641  16.2232919  34.8393206  42.1428190  16.2027858
  34.2867964  42.6976284  16.2529904  24.9608575  40.2767161  21.9946974
  24.0954094  40.2652851  21.8829745  25.0607391  40.0897384  22.8418113
  24.8482742  40.2473222  22.1035918  40.9511505  41.7500842  26.8079734
  41.3766576  41.2275264  26.2550159  40.5868425  42.3481679  26.2868357
  40.9598107  41.7611069  26.6488744  30.5865585  50.0465060  25.5677079
  30.9012144  50.8601448  25.5754861  30.9958998  49.6615278  26.2359239
  30.6933683  50.1093762  25.6681171  37.5390104  45.4635106  23.1380891
  38.0101283  46.1775369  23.3070877  37.8750283  44.8633856  23.6740761
  37.6585219  45.4806571  23.2413267  34.4559599  30.2362577  30.0938986
  34.5887505  29.4393570  30.4219962  34.8404752  30.7628980  30.6737262
  34.5315928  30.1962494  30.2282489  38.1764051  45.2553040  29.9008584
  37.6284997  44.6310924  29.6328649  38.6377079  45.4447313  29.1852663
  38.1631260  45.1912091  29.7559015  37.5291954  27.1592903  26.6920079
  36.7237918  27.0490633  27.0087918  37.3998690  27.2605359  25.8349945
  37.3912087  27.1576573  26.6128120  40.9857915  33.3238395  27.2859776
  40.4020904  33.8247601  26.8737344  41.3062209  32.8167951  26.6524100
  40.9471090  33.3230230  27.1318284  33.5252714  32.2378990  17.5618451
  34.3468409  32.4077303  17.3200146  33.0622365  32.3926251  16.8384749
  33.5783876  32.2860723  17.4190095  32.1148046  30.2321752  28.3416880
  32.6592459  29.8912879  28.9321222  32.1684982  31.0907214  28.4838165
  32.2037165  30.3077011  28.4498753  27.9278605  43.9938168  25.2155688
  28.5323462  43.9534002  24.5869509  27.7205917  44.8409320  25.2459744
  27.9867502  44.1126171  25.1271804  37.7422377  46.2604113  26.4317925
  38.5620751  46.1167079  26.6934220  37.4616455  46.8850312  26.9734363
  37.8219120  46.3314465  26.5505865  23.1629887  42.9772786  25.0854611
  23.0654165  42.1669057  25.3944668  23.9458757  42.9564579  24.7000879
  23.2646024  42.8539876  25.0741474  19.5462509   8.4414849   6.8491010
  18.7945408   8.0630387   6.6207055  19.9948520   8.4733283   6.1009821
  19.5012176   8.3900456   6.7048513  28.4715086   5.1738657  20.6914235
  29.1781853   4.6790688  20.8201169  28.6603021   5.6147738  19.9616893
  28.6042991   5.1657007  20.6023280  24.5391760  10.8154487   8.2187669
  24.9231139  11.3841386   7.6792444  24.4750901  10.0903998   7.7393485
  24.5865187  10.7929951   8.0681532  28.0073190   0.9644175  13.7285430
  28.5529150   1.6429262  13.7879400  27.9490066   0.8231636  12.8687012
  28.0789104   1.0436177  13.6097491  21.1247265   8.4533241   9.1153783
  21.2257628   7.6433595   9.4250911  20.5289010   8.3590188   8.4853461
  21.0519804   8.3198269   9.0680021  20.9648005  13.3710830  10.5168639
  21.6085460  13.8123994  10.9064797  21.2904260  12.5664257  10.4298898
  21.1079833  13.3176025  10.5614116  16.3471530   0.1891540  13.8833993
  16.2230227   0.7753986  14.5183812  16.9989814  -0.3048264  14.1846268
  16.4245179   0.2030345  14.0219923  21.3729871   3.3653257  13.1621504
  22.0178873   2.8725700  12.8432453  21.6131648   3.5078044  13.9887583
  21.5040456   3.3130699  13.2371038  23.9115962   6.2108163  12.8128397
  24.1939205   5.4159569  12.5915153  24.6402122   6.6888750  12.8333458
  24.0605526   6.1642760  12.7831412  33.8934050   5.3167525   9.7864228
  33.0631753   5.5278169   9.9497644  33.8443303   4.4904580   9.5106511
  33.7640786   5.2257131   9.7701593  15.8829634   9.3539199  10.0162323
  15.3997212  10.0789688   9.9921906  16.6952952   9.6515329  10.1272480
  15.9320382   9.5041552  10.0289602  21.9543788   8.1471379  12.6212137
  21.4370730   7.7878794  12.0173445  22.6518179   7.6233554  12.6318203
  21.9809369   8.0169067  12.5342396  25.6107380   8.5966193  18.5828310
  25.6990726   8.4092334  19.4306521  26.0397092   7.9503623  18.1833157
  25.6869482   8.4729201  18.6500062  23.1777840   7.8797353  17.5645972
  22.6148674   7.4669963  18.0885634  23.9398863   7.8050259  17.9839116
  23.2072288   7.8074754  17.7038973  18.7373831   9.8695374  10.1682603
  19.4394410   9.3547364  10.2255359  18.6571314  10.1969526  10.9729478
  18.8297592   9.8409601  10.2955395  19.7852738   0.1070961  19.2963018
  19.9573241  -0.0023144  20.1448299  20.3222095   0.7525367  19.0594210
  19.8897742   0.1862963  19.3868114  18.0624607   6.0601726   9.6768211
  18.9013506   6.2924659   9.7241972  18.0936376   5.1906038   9.6075246
  18.1906324   5.9658673   9.6732855  18.6877310   6.4802602  13.9781516
  19.2275535   6.3373733  14.6484888  18.0047256   6.8799352  14.3465542
  18.6669463   6.5182273  14.1315938  28.1118194   2.1593602   9.1726540
  28.8675709   2.5925117   9.2115449  28.2180519   1.5098372   9.7461177
  28.2388365   2.1271086   9.2624566  31.1498366   5.9866880   9.9228943
  30.7133597   5.9903622  10.6787915  30.8161281   6.6672379   9.4908521
  31.0360986   6.0879335   9.9709776  25.7227439   8.0275212  21.2472094
  26.5067856   8.1406060  21.6127836  25.5224034   7.2016349  21.4430780
  25.8093465   7.9221932  21.3306480  14.0914455   2.7002892  14.1315938
  13.8252870   1.8842009  14.2906928  14.1053019   2.7456048  13.2611453
  14.0539177   2.5859797  14.0269420  25.8797833   9.9385314  14.8938549
  25.0813078   9.6984814  15.1512418  26.3283844   9.9899707  15.6405597
  25.8272444   9.9107706  15.0423474  30.5707542   3.7213182   8.5560569
  30.8063132   3.8658381   7.7287420  30.7197106   4.4855590   8.9492083
  30.6273346   3.8552236   8.4924173  17.5653620   0.2046675  17.9209791
  18.2893592   0.1899705  18.4074685  17.6669756   0.9142030  17.4231759
  17.6871829   0.3071378  17.9188577  32.3997999   2.5614848   6.3930173
  32.7306216   3.0942488   5.7870268  32.9731087   2.6153736   7.0492124
  32.5331678   2.6484417   6.4007955  24.9398569   3.6845759  22.7858738
  24.1471550   3.9989271  22.9711357  25.0547496   3.8997228  21.9479522
  24.8393980   3.7629596  22.6897072  25.8682362   3.5865963  17.7244034
  26.4421224   2.9493207  17.8792598  25.7897166   3.5870046  16.8553692
  25.9415597   3.4931075  17.6190445  21.2246081   2.0189228   9.7765232
  20.9665325   1.1860963   9.7496531  21.2794564   2.2446841   8.9357732
  21.1945859   1.9286999   9.6485368  31.1902510   4.9574941  17.7328888
  30.9541147   4.1263005  17.6140948  31.8345739   4.9060548  18.3183732
  31.2497181   4.8272629  17.8014781  20.8400928   5.7470462   8.4471624
  21.4774875   5.5082210   8.9923417  21.2656000   5.9507621   7.7124785
  20.9977094   5.7421472   8.4188781  15.5313571   7.9858799  12.3305928
  15.5717716   8.2573650  11.5025707  16.0908095   8.5100707  12.7463716
  15.6196916   8.1034554  12.2697816  32.2138931   4.7419389  13.7957182
  31.9084748   5.4747446  14.1570498  31.4945146   4.3357319  13.5149968
  32.0626273   4.7901122  13.8070319  23.2222400   6.2242885  10.1265410
  23.2961408   6.0618057  10.9807260  24.0391906   6.4133074   9.8825892
  23.3538759   6.2279627  10.2163436  22.3521731   3.9895374  15.9432014
  21.8533425   4.7011141  16.0216903  23.1621955   4.3096040  15.9050177
  22.3977838   4.1422222  15.9488583  19.7032901  11.1645010   7.9239033
  19.4833197  10.8742365   8.7165700  19.4827423  10.5059965   7.3956946
  19.6380496  11.0244718   7.9627942  18.6149849   3.2518327  10.1894735
  18.3263097   2.6255798  10.7240462  19.4833197   3.1938614  10.2559415
  18.7010100   3.1505871  10.2785690  21.8700857  12.5374400   6.7069726
  22.5224915  12.0050842   6.9360752  21.1726466  12.1843052   7.0937600
  21.8631575  12.4063923   6.7981893  29.8640775   4.8578814   6.0500705
  30.4298808   5.5172024   5.9659248  29.2168679   5.2028512   6.5217107
  29.8519532   5.0060755   6.1073461  20.1380349   6.0622139  11.4877215
  19.6161102   6.2022431  12.1729080  20.5254369   5.3032803  11.6779333
  20.1184049   5.9707663  11.6178292  26.3347354   7.8017598   5.4737784
  26.0934029   7.0685459   5.0664849  26.5148686   8.3504455   4.8204118
  26.3254977   7.7739989   5.3168007  17.6132821   2.3838968  16.1093715
  18.1253918   2.6623222  15.4602474  17.3269163   3.1228262  16.4756528
  17.6467684   2.5341322  16.0683593  29.5650100   5.5506788  12.0809842
  29.4264460   6.2487834  12.5858585  28.7850098   5.3955444  11.7246024
  29.4293327   5.6306955  12.1036116  27.9028186   1.8503163  18.3332224
  27.8976224   0.9782980  18.3374650  28.6089179   2.0491332  17.8601680
  28.0073190   1.7507038  18.2639259  21.6299079   1.5780147  17.7046044
  21.7742455   2.1581355  17.0689154  21.9774727   1.9556444  18.4095899
  21.7026540   1.7200851  17.7145039  23.8018996   0.7770316  15.4871176
  23.0542310   0.9701330  15.0819454  23.9560522  -0.0484465  15.2495297
  23.7141424   0.6835427  15.3916582  20.7026834   9.7682919  14.5707071
  20.8516398   9.2085835  13.9180475  21.4826836   9.8474921  14.9539590
  20.8400928   9.6968485  14.5304020  23.2280135   9.9397562  15.8491562
  23.1523806   9.2706372  16.4042350  23.1569994  10.6415350  16.3632228
  23.2060741   9.9442469  16.0068410  23.8850381   8.4598561   6.6815168
  24.6500273   8.1908205   6.3597832  23.7828471   7.9748571   7.3985231
  23.9831877   8.3488125   6.7394995  27.3046838   4.2965400  10.9467849
  26.6291839   4.0650633  11.4481236  27.3139214   3.6886583  10.3209954
  27.2065342   4.1724326  10.9284002  29.3063572   7.1530533   3.1778027
  29.3883410   7.9597519   2.8539478  29.7913314   7.1726492   3.9018801
  29.3900730   7.2751195   3.2364926  23.1160075   1.8315369  11.8448105
  22.6922325   2.0319868  11.1087124  22.9404931   0.9844217  11.9572405
  23.0270956   1.7364150  11.7521795  22.6171769  13.3465882  14.3069563
  23.1067699  12.6476671  14.1245227  22.0456001  13.0489752  14.8945620
  22.6056299  13.1992105  14.3670603  28.8138772   5.9127951  23.2596353
  29.6273638   5.6413100  23.4201486  28.6533739   5.6135491  22.4556549
  28.9108721   5.8282877  23.1641759  27.5015602   9.5180357   7.6445962
  27.1095394   9.2147072   6.9268829  27.6568675  10.3549446   7.4550916
  27.4669192   9.5964193   7.5102459  27.6655277   6.0830345   7.5851993
  27.3069932   6.2544988   8.3616025  27.1793988   6.5443551   7.0279991
  27.5413974   6.1769316   7.6177262  28.8260016   6.9734241  18.5319194
  29.4639737   6.4794437  18.1981650  28.1834108   6.9011642  17.9471421
  28.8254243   6.8893250  18.3961549  28.8814273   7.6654050  15.1724551
  29.6706651   7.3143114  15.2926632  29.0557871   8.4790438  14.9101184
  29.0234555   7.7339907  15.1512419  18.6207583   1.0762775  12.2252339
  17.7795590   0.9766650  12.4331233  18.8297591   1.8458256  12.5766660
  18.5272276   1.1754819  12.3079654  22.4324248  -0.9955825  11.4749937
  22.1287386  -1.5499837  12.0760345  21.7303669  -0.8163615  10.9877971
  22.2840458  -1.0511043  11.4919643  20.4942599   6.2193895  16.1822035
  20.3862954   6.2295957  17.0484093  20.7038381   7.0448676  15.9926988
  20.5092710   6.3434970  16.2826126  18.5116391   3.4706538  13.6443972
  17.9204325   4.1116036  13.6146987  19.2737415   3.8944155  13.6175272
  18.5364652   3.6282376  13.6359120  34.6306813   3.3012307  14.6421251
  34.6889937   3.7498956  15.3881227  33.9973280   3.7111120  14.2051331
  34.5458108   3.4286042  14.6873799  28.2705908   8.9215849  11.0775997
  28.0725596   9.4106664  10.3832208  27.6493619   9.1257091  11.6560130
  28.1493472   9.0232387  11.0599220  15.6964792  -1.7402274  16.6863706
  16.5590405  -1.8406565  16.6001036  15.3656575  -2.3207565  16.1249278
  15.7749988  -1.8410647  16.5909112  30.1879709   2.4880002  16.6121245
  30.9113908   2.0352528  16.4332265  29.9229672   2.7684667  15.8293573
  30.2560983   2.4630970  16.4699960  15.7692253   5.1440635  14.7877889
  15.2392178   4.4533074  14.8372863  16.0417347   5.1350821  13.9590597
  15.7316976   5.0407767  14.6725305  25.9698499   2.5863880  14.7616260
  25.3555492   2.0421930  15.0564895  26.4865784   2.0728116  14.2822076
  25.9554161   2.4300289  14.7340489  25.2094796   3.6568150  12.4960559
  24.7822404   3.0317868  12.0625994  25.2019740   3.3743072  13.3219566
  25.1453937   3.5220930  12.5540386  18.3257323  -1.3066677  15.5648993
  18.4850810  -2.0623353  15.9700715  18.1450217  -0.7575738  16.2189730
  18.3222682  -1.3372863  15.7211699  22.0011441   2.8268463  20.1929132
  21.1507071   2.9640177  20.3286777  22.1639569   2.0932241  20.6376833
  21.8995304   2.7382564  20.2784731  21.2396191  -0.2231768  14.3882736
  20.4088121  -0.0557950  14.1817984  21.1847709  -0.5995817  15.1731621
  21.1085606  -0.2542036  14.4731264  24.4508413   5.8723785  15.7409689
  23.9433504   6.4259632  16.1850319  24.1535059   5.9332075  14.9228463
  24.3313298   5.9630096  15.6858145  27.0616194   9.7887042   3.6713632
  26.3445503   9.6147905   3.2060870  27.7122931   9.5539615   3.1389118
  27.0518044   9.7282835   3.5242850  23.6950899  10.8048343  12.6466696
  23.4716553  10.0467172  13.0150722  23.2060742  10.8346364  11.9247135
  23.5894348  10.6970568  12.5943437  25.7521888   4.9730075  20.1978629
  25.7117743   4.3279752  19.6123785  26.5645206   4.9166693  20.5104041
  25.8665041   4.8689042  20.1575579  22.3429355  11.0248801  10.1003780
  21.9289754  10.3622931   9.7107622  23.0276730  11.1726660   9.5799474
  22.3827727  10.9489459   9.9660277  25.7094650  10.1838886  10.8527397
  25.3110933  10.2941157  10.0848217  25.0945869  10.3920953  11.4353957
  25.5593539  10.2312454  10.8258696  21.4399597  -1.3972988  16.7528387
  20.9278500  -2.0051805  17.1113418  21.2679093  -0.6816396  17.2202363
  21.3389234  -1.3809689  16.8744611  16.2865311  -2.9535413  19.4030749
  16.1167902  -2.2934038  18.8578955  15.8431261  -2.7428852  20.1243238
  16.1964645  -2.8249431  19.4292378  33.4436492   4.7590853   4.2370487
  33.8270098   5.5082209   4.4668585  32.6480606   5.0056673   3.9782477
  33.3830275   4.9060547   4.2328061  13.1867376  -0.0488547  14.6619239
  12.6394095  -0.7187902  14.7800107  13.9759754  -0.4158699  14.7262706
  13.2219560  -0.2023561  14.6887939  23.0351784  -0.3881090  20.1582650
  23.7863111  -0.0729413  20.4722204  23.2274361  -0.5901919  19.3316571
  23.1743198  -0.3713708  20.0826045  29.6729745   3.1693665  13.7419781
  30.0984817   2.6468087  13.1890206  29.3086665   3.7674503  13.2208404
  29.6816348   3.1803892  13.5828791  19.3083825  11.4657883  12.5017126
  19.6230384  12.2794271  12.5094908  19.7177238  11.0808101  13.1699285
  19.4151923  11.5286585  12.6021218  26.2608345   6.8827930  10.0720938
  26.7319523   7.5968192  10.2410923  26.5968523   6.2826680  10.6080808
  26.3803460   6.8999394  10.1753314  28.3485329   8.4929243  22.2513010
  28.4582295   7.7037804  22.6069758  28.6776226   8.4035179  21.4487348
  28.4137735   8.3635096  22.1855401  26.8982291   6.6745864  16.8348631
  26.3503237   6.0503747  16.5668696  27.3595320   6.8640136  16.1192710
  26.8849501   6.6104914  16.6899062  16.6496845   5.4130991  12.1495735
  17.2541703   5.3726825  11.5209555  16.4424158   6.2602143  12.1799791
  16.7085743   5.5318994  12.0611851  26.4640617   7.6796936  13.3657972
  27.2838991   7.5359902  13.6274267  26.1834695   8.3043135  13.9074410
  26.5437361   7.7507288  13.4845911  11.8848128   4.3965609  12.0194658
  11.7872406   3.5861880  12.3284714  12.6676997   4.3757402  11.6340926
  11.9864264   4.2732699  12.0081521  42.9354268  15.3361788   6.3300848
  42.9048272  16.1906425   6.5019118  43.5335616  15.0357081   6.8886992
  43.0191426  15.4178285   6.4375651  36.1353953  14.4237439  11.0853779
  35.2791848  14.5845937  11.1362896  36.1821606  13.5529503  11.1058840
  36.0153064  14.3188241  11.0959845  30.5195092  23.9600157   6.8491010
  29.7677992  23.5815695   6.6207055  30.9681104  23.9918591   6.1009821
  30.4744759  23.9085764   6.7048513  39.4447669  20.6923965  20.6914235
  40.1514436  20.1975995  20.8201169  39.6335605  21.1333046  19.9616893
  39.5775575  20.6842315  20.6023280  35.9720052  24.3825527   2.2776558
  35.6371421  25.0602448   1.8420780  36.4846923  23.9930838   1.6893429
  35.9985633  24.4250105   2.1263349  35.5124343  26.3339795   8.2187669
  35.8963723  26.9026694   7.6792444  35.4483485  25.6089306   7.7393485
  35.5597771  26.3115259   8.0681532  38.9805774  16.4829483  13.7285430
  39.5261734  17.1614570  13.7879400  38.9222650  16.3416944  12.8687012
  39.0521688  16.5621485  13.6097491  32.0979848  23.9718549   9.1153783
  32.1990211  23.1618903   9.4250911  31.5021594  23.8775496   8.4853461
  32.0252387  23.8383577   9.0680021  40.7570842  17.9114090   4.6019158
  40.6410368  18.6621776   5.0311296  41.5526729  17.6538043   4.8515245
  40.8575432  17.9848937   4.7023250  31.9380588  28.8896138  10.5168639
  32.5818044  29.3309302  10.9064797  32.2636844  28.0849565  10.4298898
  32.0812417  28.8361333  10.5614116  25.2944893  19.9938836   8.7406117
  25.0595077  19.1606488   8.6338385  25.4330534  20.2743501   7.9267318
  25.2800555  19.9122339   8.6048472  27.5934980  12.1624566  11.6390424
  26.9740012  11.5717214  11.4700439  27.4918844  12.7536002  11.0054747
  27.4872656  12.1628649  11.5195414  32.6401168  21.9008113   5.8888501
  32.9617009  22.4413320   5.2849809  33.2873264  21.3304885   6.0210790
  32.7827223  21.8967288   5.8195536  34.6902876  13.9024108   5.9722887
  35.3883041  14.0812236   6.4644351  35.0055208  13.3794447   5.3493277
  34.8398213  13.8517880   5.9524898  27.3204113  15.7076848  13.8833993
  27.1962810  16.2939294  14.5183812  27.9722398  15.2137044  14.1846268
  27.3977763  15.7215652  14.0219923  34.8790811  20.2894553   5.9602679
  35.3184447  19.6811654   6.4057452  34.7295474  19.9101926   5.1888144
  34.9212277  20.1433024   5.9121846  34.8848546  21.7293471  12.8128397
  35.1671788  20.9344877  12.5915153  35.6134706  22.2074058  12.8333458
  35.0338109  21.6828068  12.7831412  32.8629739   9.2716505  10.0544162
  32.5333069   9.7227648   9.3847861  32.1874741   9.1932668  10.6017168
  32.7140176   9.3267640  10.0367385  38.4800148  18.6421734   2.9133448
  38.3951443  19.4982701   3.0583017  38.9684531  18.3666059   3.5815607
  38.5389045  18.7279056   3.0335530  39.4118581  15.2606529   4.4131183
  38.8830052  15.4766162   5.0728489  39.9343601  15.9542667   4.3332153
  39.4107034  15.3949666   4.4986782  44.8666634  20.8352833   9.7864228
  44.0364337  21.0463477   9.9497644  44.8175886  20.0089888   9.5106511
  44.7373369  20.7442439   9.7701593  31.3018189  19.1569745   3.2138651
  30.7175404  19.6619777   3.6204515  30.8988284  18.9312132   2.4735243
  31.1557493  19.1977994   3.1643676  26.8562217  24.8724507  10.0162323
  26.3729796  25.5974996   9.9921906  27.6685536  25.1700637  10.1272480
  26.9052965  25.0226860  10.0289602  32.9276371  23.6656687  12.6212137
  32.4103313  23.3064102  12.0173445  33.6250763  23.1418862  12.6318203
  32.9541953  23.5354375  12.5342396  36.5839963  24.1151501  18.5828310
  36.6723309  23.9277642  19.4306521  37.0129676  23.4688931  18.1833157
  36.6602066  23.9914509  18.6500062  34.1510423  23.3982661  17.5645972
  33.5881258  22.9855271  18.0885634  34.9131447  23.3235567  17.9839116
  34.1804872  23.3260062  17.7038973  35.7595403  15.4035397   1.6907572
  35.9991407  15.6113381   0.8782915  36.0811244  14.5992906   1.7996516
  35.8432561  15.3149499   1.5868125  31.0685694   7.3328793   5.5367110
  31.8231662   7.7007110   5.2984160  30.8913228   7.7068348   6.3046289
  31.1540172   7.4426981   5.6151998  29.7106415  25.3880682  10.1682603
  30.4126994  24.8732671  10.2255359  29.6303898  25.7154834  10.9729478
  29.8030175  25.3594909  10.2955395  44.3620592  13.4823234  13.5814649
  43.5249013  13.5525421  13.8162244  44.3308823  13.4847729  12.7088951
  44.2338875  13.4933461  13.4874197  30.7585321  15.6256269  19.2963018
  30.9305825  15.5162164  20.1448299  31.2954679  16.2710675  19.0594210
  30.8630325  15.7048271  19.3868114  29.4242758   9.7399112   2.2345223
  29.2418331   9.9570993   1.4086215  30.2868371   9.8538125   2.2903837
  29.5247348   9.7889010   2.1199710  29.0357190  21.5787034   9.6768211
  29.8746090  21.8109967   9.7241972  29.0668959  20.7091346   9.6075246
  29.1638908  21.4843981   9.6732855  39.0850778  17.6778910   9.1726540
  39.8408293  18.1110425   9.2115449  39.1913102  17.0283680   9.7461177
  39.2120949  17.6456394   9.2624566  42.1230949  21.5052188   9.9228943
  41.6866181  21.5088930  10.6787915  41.7893865  22.1857686   9.4908521
  42.0093569  21.6064643   9.9709776  36.6960023  23.5460520  21.2472094
  37.4800439  23.6591368  21.6127836  36.4956617  22.7201657  21.4430780
  36.7826048  23.4407240  21.3306480  25.0647038  18.2188200  14.1315938
  24.7985453  17.4027317  14.2906928  25.0785602  18.2641356  13.2611453
  25.0271761  18.1045105  14.0269420  42.0428432   8.5466015  12.1658371
  42.6854340   8.6164120  12.7520287  42.2951453   7.8795238  11.6637913
  42.1750564   8.4592364  12.1785651  28.9704785  13.0173285   0.7467696
  28.2562962  12.7311464   1.1590128  29.4548754  13.3569911   1.3874083
  28.9364149  13.0254934   0.9023331  29.8145645  11.7566579  16.7782945
  29.1217441  11.2863558  17.0243677  30.4305972  11.5304883  17.3524653
  29.8030175  11.6533711  16.8992098  36.8530416  25.4570622  14.8938549
  36.0545662  25.2170122  15.1512418  37.3016428  25.5085015  15.6405597
  36.8005027  25.4293014  15.0423474  45.2575295  18.2233107   8.8148581
  45.9191729  17.6623776   8.7144489  44.6166707  17.7285138   9.1401272
  45.2604163  18.0669516   8.8480921  36.1452103  21.5203239   1.1229504
  36.5603252  21.1888263   0.4314000  35.3144033  21.2872141   0.9949641
  36.0840112  21.4374495   1.0020351  25.4740452  19.0046980  11.4127682
  25.2916025  18.9793866  10.5599974  26.2090121  19.4745918  11.4516591
  25.5554516  19.0708342  11.2925600  41.5440126  19.2398490   8.5560569
  41.7795715  19.3843689   7.7287420  41.6929690  20.0040898   8.9492083
  41.6005929  19.3737544   8.4924173  28.5386204  15.7231983  17.9209791
  29.2626176  15.7085013  18.4074685  28.6402340  16.4327338  17.4231759
  28.6604413  15.8256686  17.9188577  43.3730583  18.0800156   6.3930173
  43.7038800  18.6127796   5.7870268  43.9463671  18.1339043   7.0492124
  43.5064262  18.1669725   6.4007955  35.9131153  19.2031067  22.7858738
  35.1204134  19.5174579  22.9711357  36.0280080  19.4182536  21.9479522
  35.8126563  19.2814904  22.6897072  38.5862472  15.9265058   7.0753753
  38.6809326  16.6654353   7.5293379  37.9621315  15.4982534   7.5088318
  38.5071502  15.9726379   7.2061901  36.8414946  19.1051271  17.7244034
  37.4153807  18.4678515  17.8792598  36.7629749  19.1055353  16.8553692
  36.9148181  19.0116382  17.6190445  25.4411362  15.8840481  11.5626749
  26.0184865  15.7476931  12.2018994  24.7425424  15.4276265  11.8172333
  25.4232384  15.7962747  11.6949038  32.1978664  17.5374536   9.7765232
  31.9397909  16.7046271   9.7496531  32.2527147  17.7632149   8.9357732
  32.1678442  17.4472307   9.6485368  37.2779715   9.6402987   9.8769324
  36.5736041   9.1512172  10.0353244  37.3264689   9.6525461   9.0057769
  37.1809766   9.5692635   9.7708664  31.1713377  15.0912299  10.2630126
  30.5962968  15.2504467  10.8994087  30.7949053  14.4547708   9.7998577
  31.0316189  15.0210112  10.2884685  34.8386665  13.5635648  15.1222505
  34.4501098  13.1389866  14.4674696  34.1741364  13.8117798  15.6299532
  34.6833593  13.5374369  15.1010373  20.9170195  14.7352373   8.2774567
  21.0030447  14.3584242   9.0588097  21.5445993  14.3612819   7.7994525
  21.0226746  14.6237856   8.3220044  38.6613027   7.2610277  12.6346489
  39.0423538   6.5788448  13.0214363  37.8576311   6.9719879  12.4522154
  38.5989488   7.1177325  12.6650545  35.9425603  17.7934252   3.3199312
  36.7566242  18.0849145   3.2082083  35.8784745  17.1394115   2.7457605
  36.0528342  17.7399447   3.2188149  42.1635094  20.4760249  17.7328888
  41.9273731  19.6448313  17.6140948  42.8078323  20.4245856  18.3183732
  42.2229764  20.3457937  17.8014781  31.8133512  21.2655770   8.4471624
  32.4507459  21.0267517   8.9923417  32.2388583  21.4692929   7.7124785
  31.9709678  21.2606780   8.4188781  26.5046154  23.5044106  12.3305928
  26.5450299  23.7758958  11.5025707  27.0640678  24.0286015  12.7463716
  26.5929500  23.6219862  12.2697816  32.4536327  16.4858060   2.7846513
  32.8381479  16.2665766   3.5363058  32.2047947  17.3121005   2.9147590
  32.4738399  16.5756206   2.9147590  32.6204867   9.7664475  22.5009098
  32.3058308  10.5364038  22.2378660  32.2994800   9.2034731  21.9161325
  32.5263786   9.7974744  22.3750448  43.1871514  20.2604697  13.7957182
  42.8817331  20.9932754  14.1570498  42.4677730  19.8542627  13.5149968
  43.0358857  20.3086430  13.8070319  34.1954984  21.7428193  10.1265410
  34.2693992  21.5803364  10.9807260  35.0124490  21.9318382   9.8825892
  34.3271342  21.7464935  10.2163436  27.9560740  22.0886055   7.1559854
  27.1298858  22.3347793   7.0294133  28.0172732  22.0098136   8.0221912
  27.8434907  22.1131004   7.2648798  30.1736764   8.1554996   8.1155294
  29.3059190   8.2277596   8.1812903  30.4611968   8.9577075   8.3043269
  30.0876512   8.2849143   8.1530060  39.2969653   8.3032856  16.4466616
  40.0423245   8.1142666  16.0330041  38.8806957   8.8291094  15.8880472
  39.3454627   8.3535001  16.3031189  32.7359569  24.7062936   4.8578884
  33.0257868  24.3151917   4.1338110  33.4663050  24.8879641   5.2984159
  32.8866454  24.6756749   4.8161691  46.6731924  15.6742084  11.3972121
  47.2239845  15.0410153  11.6369213  46.6576039  16.2057477  12.0887625
  46.7517120  15.6591032  11.5350979  30.6765485  26.6830318   7.9239033
  30.4565780  26.3927673   8.7165700  30.4560007  26.0245273   7.3956946
  30.6113079  26.5430026   7.9627942  29.5882432  18.7703635  10.1894735
  29.2995681  18.1441106  10.7240462  30.4565780  18.7123922  10.2559415
  29.6742684  18.6691179  10.2785690  40.3760330  13.9138418  10.5076717
  40.0325096  13.1928753  10.8583967  40.4753372  13.7052269   9.6655075
  40.3402373  13.7762621  10.4348397  32.8433441  28.0559708   6.7069726
  33.4957499  27.5236150   6.9360752  32.1459049  27.7028360   7.0937600
  32.8364159  27.9249231   6.7981893  29.7914705  20.4098886   6.1137100
  30.5460673  20.7911925   6.3272563  29.1985318  20.8610029   6.5683797
  29.8151419  20.5327713   6.2119978  40.8373359  20.3764122   6.0500705
  41.4031392  21.0357332   5.9659248  40.1901262  20.7213820   6.5217107
  40.8252115  20.5246063   6.1073461  32.2521373  12.3661726  21.2394312
  31.4421148  12.6719506  21.1284155  32.7296059  13.0867308  21.3546896
  32.2024851  12.5176327  21.2401383  31.1112932  21.5807447  11.4877215
  30.5893686  21.7207739  12.1729080  31.4986952  20.8218111  11.6779333
  31.0916633  21.4892971  11.6178292  28.1004116  11.6313256   5.5572170
  27.8128912  11.2614526   4.8204117  28.7874584  12.1008111   5.2955875
  28.1593013  11.6460225   5.4087246  37.3079937  23.3202906   5.4737784
  37.0666613  22.5870767   5.0664849  37.4881270  23.8689763   4.8204118
  37.2987561  23.2925297   5.3168007  32.5379258  18.6111466   6.8858706
  32.3422040  19.2186201   6.2919009  32.7613603  17.9179410   6.4050380
  32.5413899  18.5988991   6.7274787  30.9357788  15.4966204   7.0039575
  31.6580440  15.6607362   6.5443381  30.4565781  16.2175869   6.8978915
  30.9721518  15.6264433   6.9205189  38.8951295  11.8330003  12.3836260
  38.0562396  11.8591282  12.1474523  38.9655663  12.4800738  12.9641606
  38.7819689  11.9326129  12.4345377  37.3420574   8.7315380   7.1163876
  38.0446926   8.5323128   6.6383834  37.0764762   7.9591322   7.4232719
  37.4067206   8.5878346   7.0909317  42.7708819  17.0397989   9.6697502
  42.6842794  17.1953416  10.5232280  42.3159299  17.6836065   9.2956907
  42.6912076  17.1573745   9.7404608  25.6732311  12.4094468   6.4057451
  25.7748447  13.2120630   6.7338427  26.4688198  12.2081804   6.1080532
  25.8060216  12.4980367   6.4092807  32.1049130   9.9950665  16.1694756
  31.9132327  10.0105799  17.0194180  32.9547726  10.1914339  16.1461411
  32.2024852  10.0265016  16.2918051  26.4896043  12.5241646  14.1478573
  26.3481535  11.6725587  14.2723081  26.7736606  12.5670307  13.3240779
  26.5103889  12.4041396  14.0446197  36.6434635  14.3608737   8.2923061
  36.3969350  14.2804487   9.1259850  36.9719758  13.5762204   8.0985589
  36.6555879  14.2335002   8.3870584  40.5382684  21.0692096  12.0809842
  40.3997043  21.7673142  12.5858585  39.7582682  20.9140752  11.7246024
  40.4025911  21.1492263  12.1036116  38.8760769  17.3688471  18.3332224
  38.8708808  16.4968288  18.3374650  39.5821763  17.5676640  17.8601680
  38.9805773  17.2692345  18.2639259  32.6031663  17.0965455  17.7046044
  32.7475038  17.6766663  17.0689154  32.9507311  17.4741752  18.4095899
  32.6759124  17.2386159  17.7145039  34.7751580  16.2955624  15.4871176
  34.0274894  16.4886638  15.0819454  34.9293105  15.4700843  15.2495297
  34.6874007  16.2020735  15.3916582  31.6759417  25.2868227  14.5707071
  31.8248981  24.7271143  13.9180475  32.4559420  25.3660229  14.9539590
  31.8133511  25.2153792  14.5304020  42.0336057  20.4270350   2.8426342
  41.6542866  19.6407488   2.8355631  41.3702302  20.9757207   2.6997986
  41.8794532  20.3915174   2.8207138  34.2012718  25.4582870  15.8491562
  34.1256389  24.7891680  16.4042350  34.1302577  26.1600658  16.3632228
  34.1793325  25.4627777  16.0068410  35.0153357  10.1906174  16.3766579
  35.4725971  10.9230149  16.5039372  35.0909686   9.7672640  17.1353835
  35.0944327  10.2363412  16.5067656  27.2586348  10.4371994  17.4656023
  26.7228538   9.8252352  17.7816790  27.3204113  11.0120130  18.1189690
  27.1881981  10.4318922  17.6091450  34.8582965  23.9783869   6.6815168
  35.6232856  23.7093512   6.3597832  34.7561055  23.4933879   7.3985231
  34.9564461  23.8673433   6.7394995  32.8935735  12.1808278  13.2208403
  32.1031810  11.9999738  13.5425739  33.2896358  11.4035231  13.2038698
  32.8352611  12.0395739  13.2660952  38.2779421  19.8150708  10.9467849
  37.6024423  19.5835941  11.4481236  38.2871797  19.2071891  10.3209954
  38.1797926  19.6909634  10.9284002  35.4073565  14.6568537  17.7031902
  35.3432706  15.5178494  17.5752039  35.5470753  14.3400531  16.9027454
  35.4189035  14.7368704  17.5660115  40.2796156  22.6715841   3.1778027
  40.3615993  23.4782827   2.8539478  40.7645898  22.6911800   3.9018801
  40.3633314  22.7936503   3.2364926  34.0892659  17.3500677  11.8448105
  33.6654908  17.5505176  11.1087124  33.9137514  16.5029525  11.9572405
  34.0003540  17.2549458  11.7521795  33.5904352  28.8651190  14.3069563
  34.0800283  28.1661979  14.1245227  33.0188585  28.5675060  14.8945620
  33.5788882  28.7177413  14.3670603  29.3775104  17.8452728   7.2776078
  29.5339723  17.7799531   8.1332070  29.7175697  18.6201281   7.0654757
  29.4508339  17.9501926   7.3730672  35.9154249  17.2210612   6.1469441
  36.4569794  16.7180993   6.6108062  36.2300808  17.1675806   5.3358926
  36.0418646  17.1390033   6.0953253  39.7871356  21.4313259  23.2596353
  40.6006221  21.1598408  23.4201486  39.6266322  21.1320799  22.4556549
  39.8841304  21.3468185  23.1641759  34.0840698  22.6127963   3.4309469
  34.1533519  21.7542502   3.5702469  34.8629153  22.8299844   3.1028494
  34.2093548  22.5180827   3.4026626  37.0643518  12.1146916  16.1991742
  37.2785487  11.4757830  15.6455095  36.4477417  12.5592740  15.7699603
  37.0048847  12.0857060  16.0542173  38.4748186  25.0365664   7.6445962
  38.0827978  24.7332380   6.9268829  38.6301258  25.8734754   7.4550916
  38.4401776  25.1149501   7.5102459  25.9509365  15.0287679   7.5936845
  26.3308330  15.4472223   6.9297112  25.3764730  15.6101134   7.9005688
  25.9220690  15.1765537   7.5413586  39.2282606  13.7235981  17.1375049
  38.4159288  13.4161872  17.2188221  39.6872541  13.2434981  17.7017761
  39.1762991  13.6072474  17.2329643  38.6387861  21.6015653   7.5851993
  38.2802515  21.7730296   8.3616025  38.1526571  22.0628859   7.0279991
  38.5146558  21.6954624   7.6177262  36.4558247   5.2246852  11.1879084
  35.5851805   5.1985573  11.1412394  36.7098588   5.0524044  10.3704930
  36.3651807   5.1956996  11.0599221  33.4276226  17.2814819   0.1252227
  33.7168751  18.0579701   0.3995802  33.5148025  16.7703550   0.8266727
  33.4830482  17.3206737   0.2694725  36.3236113  15.1296053  21.9203751
  36.7935745  15.7538169  22.3071625  36.3697994  14.4613028  22.4796966
  36.4003989  15.1230733  22.0603822  33.4807387   7.2353080  12.6452555
  32.9645876   6.5433272  12.7704134  32.9201316   7.9023857  12.5915153
  33.3213900   7.2316338  12.6558621  35.5499621   7.7746040  14.4745407
  35.1631374   7.7995072  15.2558937  35.0632558   7.2087719  14.0219924
  35.4212129   7.6941791  14.5233311  39.7992600  22.4919549  18.5319194
  40.4372320  21.9979745  18.1981650  39.1566692  22.4196950  17.9471421
  39.7986826  22.4078558  18.3961549  41.5249600  14.3408695  13.0985109
  41.0977208  14.2535044  12.3433209  40.8875653  14.4486471  13.6839954
  41.3679207  14.3441355  13.0730551  35.2156762   4.6613026  16.7655667
  35.8449880   5.1973326  16.4876738  35.3842625   4.5690385  17.6169233
  35.3334557   4.7274388  16.8504195  35.0170677   9.4484220  19.0382079
  35.8444106   9.1769369  19.0940693  35.0378523  10.2445062  19.3945897
  35.1423527   9.5263975  19.0997262  39.8546857  23.1839358  15.1724551
  40.6439235  22.8328422  15.2926632  40.0290454  23.9975746  14.9101184
  39.9967138  23.2525215  15.1512419  29.5940167  16.5948083  12.2252339
  28.7528174  16.4951957  12.4331233  29.8030175  17.3643564  12.5766660
  29.5004860  16.6940127  12.3079654  27.0715734  14.2167620  10.0537090
  26.6772432  14.2910632   9.2787200  26.5155851  14.6025567  10.6045452
  26.9318546  14.2849395  10.0204750  38.7080681   7.1948914   9.7340969
  38.9130274   7.1271222  10.5797966  38.3807105   8.0007735   9.6662146
  38.6895929   7.3034855   9.8500624  33.4056832  14.5229482  11.4749937
  33.1019969  13.9685471  12.0760345  32.7036253  14.7021692  10.9877971
  33.2573042  14.4674265  11.4919643  32.4622929  11.8330002   6.0394639
  32.7382663  11.1148915   5.6272206  33.0621598  12.4314922   5.8315745
  32.5916194  11.8150373   5.9475400  29.8809598  10.1493843  14.3111990
  30.3411079  10.2232773  15.0487114  29.9265704  10.9475097  13.9611811
  29.9560153  10.2787990  14.3684746  31.5292947  10.8160538  18.8784017
  31.1378513  10.1693885  19.3139795  31.6978810  11.4071973  19.4978272
  31.4963858  10.8074806  19.0346723  45.6039396  18.8197615  14.6421251
  45.6622520  19.2684264  15.3881227  44.9705864  19.2296428  14.2051331
  45.5190692  18.9471350  14.6873799  39.2438491  24.4401157  11.0775997
  39.0458180  24.9291972  10.3832208  38.6226202  24.6442399  11.6560130
  39.1226056  24.5417695  11.0599220  33.3046469  16.2086054   5.4186241
  34.0488514  16.5960330   5.6569191  33.4507166  15.3643479   5.5826729
  33.4357055  16.1416527   5.4780211  35.2226045   8.0036313  10.4518102
  34.3762090   8.1759121  10.3259452  35.2197177   7.1985657  10.7883931
  35.0973195   7.9097342  10.4829229  36.2924345  11.7811527  11.3180160
  35.8184300  11.2553289  11.8285471  36.6642481  11.2341000  10.7495022
  36.2774234  11.6227524  11.3095308  26.6697375  13.7783034  16.6863706
  27.5322988  13.6778743  16.6001036  26.3389158  13.1977743  16.1249278
  26.7482572  13.6774661  16.5909112  42.5561076  16.8413903  12.7286941
  42.3159299  16.0020318  12.7329367  43.0353083  16.9214070  13.4527714
  42.5913260  16.7295303  12.8361743  38.2207845  12.6748082   4.3805914
  37.6930864  12.7576826   3.6911623  38.6803553  13.4165953   4.3770559
  38.2109695  12.7968744   4.2780609  44.5566263  13.6215360  10.6816200
  44.3176033  13.5811194   9.8436985  44.7200164  14.4686512  10.8081921
  44.5456566  13.7407445  10.5769682  41.1612293  18.0065309  16.6121245
  41.8846492  17.5537836  16.4332265  40.8962255  18.2869975  15.8293573
  41.2293566  17.9816278  16.4699960  30.0299161  12.6025483  13.3474124
  29.4052232  12.6143875  12.7400077  29.6944756  13.0785658  13.9965365
  29.8884653  12.6744000  13.3530693  37.7744927  21.2451645   3.5115571
  38.4979126  21.7109758   3.3680144  37.3345518  21.3125255   2.7613168
  37.8160620  21.3235482   3.3800353  36.9431083  18.1049188  14.7616260
  36.3288076  17.5607238  15.0564895  37.4598367  17.5913424  14.2822076
  36.9286745  17.9485597  14.7340489  36.1827380  19.1753458  12.4960559
  35.7554988  18.5503176  12.0625994  36.1752324  18.8928380  13.3219566
  36.1186521  19.0406238  12.5540386  29.2989907  14.2118631  15.5648993
  29.4583394  13.4561955  15.9700715  29.1182800  14.7609570  16.2189730
  29.2955266  14.1812445  15.7211699  37.2410210   6.3779866  16.1199782
  36.7450771   6.5743541  15.4291349  37.9979272   6.7772535  15.9488584
  37.2797034   6.4657600  15.9919919  34.5113089  10.0522212  12.7103093
  34.5355577   9.5182325  12.0215873  34.7624563   9.5439521  13.3728683
  34.5523008   9.8983116  12.7067737  22.0220679  17.3353707  12.1446237
  21.9164128  17.2900552  11.2798321  21.2720899  17.6807488  12.4260522
  21.8956282  17.3794615  12.0583567  30.7914412   8.7793031  12.0908837
  30.8312783   9.2802237  12.8043545  29.9664076   8.8703424  11.8214760
  30.6753938   8.8674847  12.1559375  32.9744024  18.3453771  20.1929132
  32.1239655  18.4825485  20.3286777  33.1372152  17.6117549  20.6376833
  32.8727888  18.2567872  20.2784731  32.2128775  15.2953540  14.3882736
  31.3820705  15.4627358  14.1817984  32.1580292  14.9189491  15.1731621
  32.0818190  15.2643272  14.4731264  30.0212558   8.7862433  20.0239147
  30.6465262   8.2424566  20.2968579  29.5663038   8.3057351  19.4546937
  30.0460819   8.6351915  19.9800741  30.5864819  13.5709132   4.9172854
  30.7267780  14.0681596   5.6201495  31.0847352  12.8695426   5.0587068
  30.6805900  13.5411111   5.0424433  30.6165041  14.4376243   2.2465431
  31.2510121  15.0336668   2.1814892  30.6990652  14.1379701   3.0611301
  30.7221592  14.4817151   2.3568517  43.5947607  16.9691720  15.1151795
  44.1865447  17.6088971  15.1469993  44.0306602  16.2714757  15.4043862
  43.7466038  16.9610071  15.1632627  32.1944024  10.3690218   2.2210873
  32.5159865   9.8893301   1.5670135  32.4570968  11.1789864   2.0301684
  32.2810049  10.4180116   2.0966365  35.4240997  21.3909093  15.7409689
  34.9166088  21.9444940  16.1850319  35.1267643  21.4517383  14.9228463
  35.3045882  21.4815404  15.6858145  37.5903179   9.7562412  14.5834352
  38.0158251   9.3034939  13.9717878  36.9760172   9.2022483  14.8599139
  37.5631824   9.6076389  14.5339377  27.1218029  16.6344084   5.5154977
  27.6310258  17.2308591   5.8966282  27.5952301  16.3670057   4.8331396
  27.2661405  16.6829899   5.4709499  38.0348777  25.3072350   3.6713632
  37.3178087  25.1333213   3.2060870  38.6855515  25.0724923   3.1389118
  38.0250628  25.2468143   3.5242850  36.0297402   6.2277512   7.9924929
  35.3865720   6.0775158   8.5610067  35.6896809   5.9819857   7.2274033
  35.8842479   6.1689635   7.9627944  40.6196748  14.1836939   7.4154937
  39.9487938  14.7266641   7.2868003  41.3136499  14.6531794   7.1736632
  40.6225616  14.3335210   7.3610465  34.6683482  26.3233651  12.6466696
  34.4449137  25.5652480  13.0150722  34.1793325  26.3531672  11.9247135
  34.5626931  26.2155875  12.5943437  40.7824876  10.6392823  10.3245311
  41.1352486  10.2122545  10.9991109  39.9239677  10.5543666  10.4546387
  40.7074320  10.5637563  10.4440321  29.4808561  13.2700342   8.3828157
  28.7620550  13.6864475   8.6501021  29.8520923  13.8354581   7.8319795
  29.4300493  13.4149624   8.3410964  38.7808142  13.9028191  14.2730153
  38.7606069  13.7211486  15.1264932  38.8287342  14.7740210  14.2489736
  38.7842783  14.0044729  14.3953448  36.7254471  20.4915383  20.1978629
  36.6850326  19.8465060  19.6123785  37.5377790  20.4352001  20.5104041
  36.8397625  20.3874350  20.1575579  33.3161939  26.5434109  10.1003780
  32.9022338  25.8808239   9.7107622  34.0009313  26.6911968   9.5799474
  33.3560311  26.4674767   9.9660277  36.6827233  25.7024194  10.8527397
  36.2843516  25.8126465  10.0848217  36.0678453  25.9106261  11.4353957
  36.5326122  25.7497762  10.8258696  35.2555135  12.3098342   3.7201537
  34.6619974  12.6315339   3.1686104  35.2930413  11.4639438   3.5122643
  35.1729524  12.2322670   3.6084308  38.1312952  12.2677847   7.1503287
  37.9026645  12.2910548   6.3081645  38.3911028  11.4435314   7.2698297
  38.1359140  12.1493927   7.0428485  32.4132180  14.1212320  16.7528387
  31.9011083  13.5133503  17.1113418  32.2411676  14.8368912  17.2202363
  32.3121817  14.1375619  16.8744611  27.2597895  12.5649895  19.4030749
  27.0900485  13.2251270  18.8578955  26.8163845  12.7756456  20.1243238
  27.1697229  12.6935877  19.4292378  31.1857714  10.8054393   8.4457482
  31.6615081  11.1671473   7.8107664  30.6846314  11.4610861   8.7257625
  31.1823073  10.9548582   8.3934223  44.4169076  20.2776161   4.2370487
  44.8002682  21.0267517   4.4668585  43.6213189  20.5241981   3.9782477
  44.3562858  20.4245855   4.2328061  36.2901251  12.0436564  19.1930643
  36.8472681  11.8150374  18.5609108  35.9662316  12.8042230  18.9165855
  36.3247661  12.1220401  19.0587140  24.1599959  15.4696761  14.6619239
  23.6126679  14.7997406  14.7800107  24.9492338  15.1026608  14.7262706
  24.1952143  15.3161747  14.6887939  34.0084368  15.1304218  20.1582650
  34.7595695  15.4455894  20.4722204  34.2006944  14.9283389  19.3316571
  34.1475782  15.1471599  20.0826045  33.2284367  12.9495593   1.8130866
  33.6083332  12.9675222   1.0281981  32.4876963  13.3949582   1.6921714
  33.1753205  13.0177367   1.6794435  40.8569658  11.2577784   7.4006445
  40.8563884  11.1026441   8.2590721  40.6525838  12.1040771   7.3447831
  40.8269436  11.3598405   7.5194385  22.9186929  14.6817568  11.8165262
  22.7408690  14.2294177  12.5420177  22.6305951  15.4843730  12.0003739
  22.8499882  14.7340126  11.9508765  38.5810510  15.9375286  11.0542652
  39.0764175  15.2198281  11.0146672  37.7710286  15.6346083  10.9397139
  38.5354403  15.7872932  11.0316378  34.0269122  19.7873099   3.2039656
  33.2180444  19.4639773   3.1572966  34.5344030  19.0806321   3.1367905
  33.9818788  19.6354415   3.1869951  24.6559399  17.2145292   8.9287021
  23.7904918  17.2030983   8.8169792  24.7558215  17.0275515   9.7758160
  24.5433566  17.1851353   9.0375965  40.6462329  18.6878973  13.7419781
  41.0717400  18.1653395  13.1890206  40.2819249  19.2859811  13.2208404
  40.6548931  18.6989200  13.5828791  30.2816409  26.9843191  12.5017126
  30.5962968  27.7979579  12.5094908  30.6909822  26.5993409  13.1699285
  30.3884507  27.0471893  12.6021218  37.2340928  22.4013237  10.0720938
  37.7052107  23.1153500  10.2410923  37.5701107  21.8011988  10.6080808
  37.3536043  22.4184702  10.1753314  39.3217913  24.0114551  22.2513010
  39.4314878  23.2223111  22.6069758  39.6508810  23.9220487  21.4487348
  39.3870319  23.8820404  22.1855401  34.1510423   7.1740708  17.0279033
  34.2838329   6.3771701  17.3560009  34.5355576   7.7007111  17.6077309
  34.2266752   7.1340625  17.1622536  37.8714875  22.1931172  16.8348631
  37.3235821  21.5689055  16.5668696  38.3327903  22.3825444  16.1192710
  37.8582084  22.1290222  16.6899062  37.2242778   4.0971034  13.6260126
  36.4188742   3.9868764  13.9427965  37.0949514   4.1983490  12.7689992
  37.0862911   4.0954704  13.5468167  40.6808739  10.2616526  14.2199823
  40.0971728  10.7625733  13.8077391  41.0013033   9.7546082  13.5864146
  40.6421914  10.2608361  14.0658330  33.2203538   9.1757121   4.4958498
  34.0419232   9.3455434   4.2540193  32.7573189   9.3304382   3.7724796
  33.2734700   9.2238854   4.3530142  31.8098870   7.1699883  15.2756927
  32.3543283   6.8291010  15.8661268  31.8635806   8.0285345  15.4178211
  31.8987989   7.2455142  15.3838800  27.6229429  20.9316299  12.1495735
  28.2274286  20.8912133  11.5209555  27.4156741  21.7787451  12.1799791
  27.6818326  21.0504302  12.0611851  37.4373201  23.1982244  13.3657972
  38.2571575  23.0545210  13.6274267  37.1567279  23.8228443  13.9074410
  37.5169944  23.2692596  13.4845911  22.8580711  19.9150917  12.0194658
  22.7604989  19.1047188  12.3284714  23.6409581  19.8942710  11.6340926
  22.9596848  19.7918007  12.0081521  47.1086536  29.9422747  11.0853779
  46.2524432  30.1031245  11.1362896  47.1554190  29.0714811  11.1058840
  46.9885648  29.8373549  11.0959845  36.2677476  35.5124144   8.7406117
  36.0327661  34.6791796   8.6338385  36.4063117  35.7928809   7.9267318
  36.2533139  35.4307647   8.6048472  38.5667564  27.6809874  11.6390424
  37.9472595  27.0902522  11.4700439  38.4651427  28.2721309  11.0054747
  38.4605239  27.6813957  11.5195414  38.2936697  31.2262156  13.8833993
  38.1695394  31.8124601  14.5183812  38.9454981  30.7322352  14.1846268
  38.3710346  31.2400960  14.0219923  43.3195038  34.4023873  13.1621504
  43.9644040  33.9096316  12.8432453  43.5596815  34.5448660  13.9887583
  43.4505623  34.3501315  13.2371038  45.8581129  37.2478779  12.8128397
  46.1404372  36.4530185  12.5915153  46.5867290  37.7259366  12.8333458
  46.0070693  37.2013376  12.7831412  43.8362323  24.7901813  10.0544162
  43.5065653  25.2412956   9.3847861  43.1607325  24.7117976  10.6017168
  43.6872759  24.8452948  10.0367385  43.9008955  39.1841995  12.6212137
  43.3835897  38.8249410  12.0173445  44.5983346  38.6604170  12.6318203
  43.9274536  39.0539683  12.5342396  45.1243007  38.9167969  17.5645972
  44.5613842  38.5040579  18.0885634  45.8864030  38.8420875  17.9839116
  45.1537455  38.8445370  17.7038973  42.0418277  22.8514101   5.5367110
  42.7964245  23.2192418   5.2984160  41.8645812  23.2253655   6.3046289
  42.1272755  22.9612289   5.6151998  41.7317905  31.1441577  19.2963018
  41.9038409  31.0347472  20.1448299  42.2687262  31.7895983  19.0594210
  41.8362909  31.2233579  19.3868114  40.0089774  37.0972342   9.6768211
  40.8478673  37.3295275   9.7241972  40.0401543  36.2276654   9.6075246
  40.1371491  37.0029289   9.6732855  40.6342477  37.5173218  13.9781516
  41.1740702  37.3744349  14.6484888  39.9512423  37.9169968  14.3465542
  40.6134631  37.5552888  14.1315938  36.0379622  33.7373508  14.1315938
  35.7718037  32.9212625  14.2906928  36.0518186  33.7826664  13.2611453
  36.0004344  33.6230413  14.0269420  40.7878228  27.2751887  16.7782945
  40.0950025  26.8048866  17.0243677  41.4038555  27.0490191  17.3524653
  40.7762758  27.1719018  16.8992098  36.4473035  34.5232288  11.4127682
  36.2648609  34.4979174  10.5599974  37.1822704  34.9931226  11.4516591
  36.5287099  34.5893650  11.2925600  39.5118787  31.2417291  17.9209791
  40.2358759  31.2270321  18.4074685  39.6134924  31.9512646  17.4231759
  39.6336996  31.3441994  17.9188577  46.8863737  34.7216375  22.7858738
  46.0936717  35.0359887  22.9711357  47.0012664  34.9367844  21.9479522
  46.7859147  34.8000212  22.6897072  36.4143946  31.4025788  11.5626749
  36.9917448  31.2662239  12.2018994  35.7158007  30.9461573  11.8172333
  36.3964967  31.3148055  11.6949038  43.1711248  33.0559844   9.7765232
  42.9130492  32.2231579   9.7496531  43.2259731  33.2817457   8.9357732
  43.1411026  32.9657615   9.6485368  42.1445960  30.6097607  10.2630126
  41.5695551  30.7689775  10.8994087  41.7681636  29.9733016   9.7998577
  42.0048772  30.5395419  10.2884685  45.8119249  29.0820956  15.1222505
  45.4233681  28.6575174  14.4674696  45.1473947  29.3303105  15.6299532
  45.6566177  29.0559677  15.1010373  31.8902779  30.2537681   8.2774567
  31.9763031  29.8769550   9.0588097  32.5178576  29.8798127   7.7994525
  31.9959330  30.1423163   8.3220044  37.4778738  39.0229414  12.3305928
  37.5182883  39.2944265  11.5025707  38.0373262  39.5471322  12.7463716
  37.5662084  39.1405169  12.2697816  43.5937451  25.2849783  22.5009098
  43.2790892  26.0549346  22.2378660  43.2727383  24.7220039  21.9161325
  43.4996370  25.3160052  22.3750448  41.1469348  23.6740304   8.1155294
  40.2791773  23.7462904   8.1812903  41.4344552  24.4762383   8.3043269
  41.0609096  23.8034451   8.1530060  44.2986898  35.0265989  15.9432014
  43.7998592  35.7381757  16.0216903  45.1087122  35.3466656  15.9050177
  44.3443005  35.1792838  15.9488583  40.5615016  34.2888942  10.1894735
  40.2728264  33.6626414  10.7240462  41.4298364  34.2309230  10.2559415
  40.6475268  34.1876487  10.2785690  43.2253956  27.8847034  21.2394312
  42.4153732  28.1904814  21.1284155  43.7028643  28.6052616  21.3546896
  43.1757435  28.0361635  21.2401383  42.0845516  37.0992755  11.4877215
  41.5626269  37.2393047  12.1729080  42.4719536  36.3403419  11.6779333
  42.0649217  37.0078279  11.6178292  39.0736700  27.1498564   5.5572170
  38.7861495  26.7799834   4.8204117  39.7607168  27.6193419   5.2955875
  39.1325597  27.1645533   5.4087246  39.5597988  33.4209584  16.1093715
  40.0719085  33.6993838  15.4602474  39.2734331  34.1598878  16.4756528
  39.5932851  33.5711938  16.0683593  36.6464894  27.9279776   6.4057451
  36.7481031  28.7305937   6.7338427  37.4420781  27.7267112   6.1080532
  36.7792800  28.0165675   6.4092807  43.0781713  25.5135973  16.1694756
  42.8864910  25.5291107  17.0194180  43.9280309  25.7099647  16.1461411
  43.1757435  25.5450324  16.2918051  37.4628626  28.0426954  14.1478573
  37.3214118  27.1910895  14.2723081  37.7469190  28.0855615  13.3240779
  37.4836473  27.9226704  14.0446197  43.5764246  32.6150763  17.7046044
  43.7207622  33.1951971  17.0689154  43.9239895  32.9927060  18.4095899
  43.6491707  32.7571467  17.7145039  45.7484163  31.8140931  15.4871176
  45.0007477  32.0071946  15.0819454  45.9025689  30.9886151  15.2495297
  45.6606591  31.7206043  15.3916582  42.6492001  40.8053535  14.5707071
  42.7981565  40.2456451  13.9180475  43.4292003  40.8845537  14.9539590
  42.7866095  40.7339100  14.5304020  45.1745302  40.9768178  15.8491562
  45.0988973  40.3076988  16.4042350  45.1035161  41.6785966  16.3632228
  45.1525909  40.9813085  16.0068410  45.9885940  25.7091482  16.3766579
  46.4458555  26.4415457  16.5039372  46.0642269  25.2857947  17.1353835
  46.0676910  25.7548720  16.5067656  38.2318932  25.9557302  17.4656023
  37.6961121  25.3437660  17.7816790  38.2936696  26.5305438  18.1189690
  38.1614564  25.9504230  17.6091450  43.8668318  27.6993586  13.2208403
  43.0764393  27.5185046  13.5425739  44.2628941  26.9220539  13.2038698
  43.8085195  27.5581047  13.2660952  46.3806149  30.1753845  17.7031902
  46.3165290  31.0363802  17.5752039  46.5203336  29.8585838  16.9027454
  46.3921619  30.2554012  17.5660115  45.0625243  32.8685985  11.8448105
  44.6387492  33.0690484  11.1087124  44.8870098  32.0214833  11.9572405
  44.9736123  32.7734766  11.7521795  36.9241949  30.5472986   7.5936845
  37.3040914  30.9657531   6.9297112  36.3497314  31.1286442   7.9005688
  36.8953274  30.6950845   7.5413586  47.4290830  20.7432160  11.1879084
  46.5584388  20.7170881  11.1412394  47.6831171  20.5709352  10.3704930
  47.3384390  20.7142303  11.0599221  47.2968697  30.6481361  21.9203751
  47.7668328  31.2723477  22.3071625  47.3430577  29.9798336  22.4796966
  47.3736573  30.6416041  22.0603822  44.4539971  22.7538388  12.6452555
  43.9378459  22.0618580  12.7704134  43.8933900  23.4209165  12.5915153
  44.2946484  22.7501646  12.6558621  46.5232204  23.2931348  14.4745407
  46.1363957  23.3180380  15.2558937  46.0365141  22.7273027  14.0219924
  46.3944713  23.2127099  14.5233311  46.1889346  20.1798334  16.7655667
  46.8182464  20.7158634  16.4876738  46.3575209  20.0875693  17.6169233
  46.3067140  20.2459696  16.8504195  45.9903261  24.9669528  19.0382079
  46.8176690  24.6954677  19.0940693  46.0111107  25.7630370  19.3945897
  46.1156111  25.0449283  19.0997262  40.5672751  32.1133391  12.2252339
  39.7260757  32.0137265  12.4331233  40.7762759  32.8828872  12.5766660
  40.4737443  32.2125435  12.3079654  38.0448318  29.7352928  10.0537090
  37.6505015  29.8095940   9.2787200  37.4888434  30.1210875  10.6045452
  37.9051130  29.8034703  10.0204750  44.3789415  30.0414790  11.4749937
  44.0752553  29.4870779  12.0760345  43.6768836  30.2207000  10.9877971
  44.2305625  29.9859573  11.4919643  43.4355513  27.3515310   6.0394639
  43.7115247  26.6334223   5.6272206  44.0354182  27.9500230   5.8315745
  43.5648777  27.3335681   5.9475400  42.4407766  37.2564511  16.1822035
  42.3328121  37.2666573  17.0484093  42.6503548  38.0819292  15.9926988
  42.4557877  37.3805586  16.2826126  40.4581558  34.5077154  13.6443972
  39.8669492  35.1486652  13.6146987  41.2202582  34.9314771  13.6175272
  40.4829819  34.6652992  13.6359120  40.8542181  25.6679151  14.3111990
  41.3143663  25.7418081  15.0487114  40.8998288  26.4660405  13.9611811
  40.9292737  25.7973298  14.3684746  42.5025531  26.3345846  18.8784017
  42.1111096  25.6879193  19.3139795  42.6711394  26.9257281  19.4978272
  42.4696441  26.3260114  19.0346723  46.1958628  23.5221621  10.4518102
  45.3494674  23.6944429  10.3259452  46.1929761  22.7170965  10.7883931
  46.0705778  23.4282650  10.4829229  47.2656929  27.2996835  11.3180160
  46.7916883  26.7738597  11.8285471  47.6375065  26.7526308  10.7495022
  47.2506818  27.1412832  11.3095308  37.6429959  29.2968342  16.6863706
  38.5055572  29.1964051  16.6001036  37.3121742  28.7163051  16.1249278
  37.7215155  29.1959969  16.5909112  41.0031745  28.1210791  13.3474124
  40.3784815  28.1329183  12.7400077  40.6677340  28.5970966  13.9965365
  40.8617237  28.1929308  13.3530693  37.7157421  36.1811251  14.7877889
  37.1857345  35.4903690  14.8372863  37.9882514  36.1721436  13.9590597
  37.6782143  36.0778383  14.6725305  47.1559963  34.6938766  12.4960559
  46.7287571  34.0688484  12.0625994  47.1484908  34.4113688  13.3219566
  47.0919104  34.5591546  12.5540386  40.2722490  29.7303939  15.5648993
  40.4315977  28.9747263  15.9700715  40.0915384  30.2794878  16.2189730
  40.2687849  29.6997753  15.7211699  45.4845673  25.5707520  12.7103093
  45.5088160  25.0367633  12.0215873  45.7357147  25.0624829  13.3728683
  45.5255592  25.4168424  12.7067737  32.9953263  32.8539015  12.1446237
  32.8896712  32.8085860  11.2798321  32.2453483  33.1992796  12.4260522
  32.8688866  32.8979923  12.0583567  41.7646995  24.2978338  12.0908837
  41.8045367  24.7987545  12.8043545  40.9396660  24.3888732  11.8214760
  41.6486521  24.3860155  12.1559375  43.9476608  33.8639078  20.1929132
  43.0972239  34.0010793  20.3286777  44.1104736  33.1302857  20.6376833
  43.8460472  33.7753180  20.2784731  43.1861359  30.8138848  14.3882736
  42.3553288  30.9812666  14.1817984  43.1312876  30.4374799  15.1731621
  43.0550773  30.7828580  14.4731264  40.9945142  24.3047741  20.0239147
  41.6197845  23.7609874  20.2968579  40.5395622  23.8242659  19.4546937
  41.0193402  24.1537223  19.9800741  46.3973580  36.9094401  15.7409689
  45.8898672  37.4630247  16.1850319  46.1000227  36.9702691  14.9228463
  46.2778465  37.0000712  15.6858145  47.0029985  21.7462820   7.9924929
  46.3598303  21.5960466   8.5610067  46.6629392  21.5005165   7.2274033
  46.8575063  21.6874943   7.9627944  40.4541144  28.7885650   8.3828157
  39.7353134  29.2049783   8.6501021  40.8253507  29.3539889   7.8319795
  40.4033076  28.9334932   8.3410964  43.3864764  29.6397628  16.7528387
  42.8743667  29.0318811  17.1113418  43.2144260  30.3554220  17.2202363
  43.2854401  29.6560927  16.8744611  38.2330479  28.0835203  19.4030749
  38.0633069  28.7436578  18.8578955  37.7896428  28.2941764  20.1243238
  38.1429812  28.2121185  19.4292378  42.1590298  26.3239701   8.4457482
  42.6347664  26.6856781   7.8107664  41.6578897  26.9796168   8.7257625
  42.1555657  26.4733890   8.3934223  35.1332543  30.9882068  14.6619239
  34.5859262  30.3182714  14.7800107  35.9224921  30.6211916  14.7262706
  35.1684727  30.8347055  14.6887939  44.9816951  30.6489526  20.1582650
  45.7328278  30.9641202  20.4722204  45.1739528  30.4468696  19.3316571
  45.1208366  30.6656907  20.0826045  33.8919512  30.2002876  11.8165262
  33.7141274  29.7479485  12.5420177  33.6038535  31.0029038  12.0003739
  33.8232466  30.2525434  11.9508765  35.6291982  32.7330600   8.9287021
  34.7637502  32.7216291   8.8169792  35.7290798  32.5460823   9.7758160
  35.5166149  32.7036661   9.0375965  45.1243007  22.6926016  17.0279033
  45.2570912  21.8957009  17.3560009  45.5088160  23.2192419  17.6077309
  45.1999336  22.6525933  17.1622536  44.1936122  24.6942429   4.4958498
  45.0151816  24.8640742   4.2540193  43.7305773  24.8489690   3.7724796
  44.2467284  24.7424162   4.3530142  42.7831454  22.6885191  15.2756927
  43.3275867  22.3476318  15.8661268  42.8368389  23.5470653  15.4178211
  42.8720573  22.7640450  15.3838800  38.5962012  36.4501607  12.1495735
  39.2006870  36.4097441  11.5209555  38.3889325  37.2972759  12.1799791
  38.6550910  36.5689610  12.0611851  33.8313295  35.4336225  12.0194658
  33.7337573  34.6232496  12.3284714  34.6142164  35.4128018  11.6340926
  33.9329431  35.3103315  12.0081521   1.6651009  28.1056049  22.5789541
   0.8348712  28.3166693  22.7422958   1.6160261  27.2793104  22.3031825
   1.5357744  28.0145655  22.5626907   1.1604967  20.7526450  26.3739963
   0.3233388  20.8228637  26.6087557   1.1293198  20.7550945  25.5014265
   1.0323250  20.7636677  26.2799511   2.0559670  25.4936323  21.6073894
   2.7176104  24.9326992  21.5069803   1.4151082  24.9988354  21.9326586
   2.0588538  25.3372733  21.6406235   1.2794309  20.5913869  20.6895649
   1.0230874  19.7793810  20.4993531   2.1223623  20.5991436  20.4625836
   1.3660335  20.4725866  20.6280466   5.6857681  24.1700914  25.9150840
   5.6182182  24.1896873  25.0453426   5.6713344  25.0131241  26.1406510
   5.6736438  24.2974649  25.8203317   3.4716299  22.9445300  24.1897434
   4.0224220  22.3113369  24.4294526   3.4560414  23.4760693  24.8812939
   3.5501495  22.9294249  24.3276293   2.4023771  26.0900831  27.4346564
   2.4606895  26.5387480  28.1806541   1.7690239  26.4999644  26.9976644
   2.3175067  26.2174566  27.4799113   1.3550638  20.8918576  23.4741514
   1.1160408  20.8514410  22.6362298   1.5184539  21.7389728  23.6007235
   1.3440941  21.0110661  23.3694996   0.3931982  24.2394936  27.9077108
   0.9849822  24.8792187  27.9395307   0.8290977  23.5417973  28.1969175
   0.5450413  24.2313287  27.9557941   1.2153451  27.5479377  17.0295801
   1.5987057  28.2970733  17.2593898   0.4197564  27.7945197  16.7707790
   1.1547233  27.6949071  17.0253375  10.7071226  38.1250312  19.1226162
  10.6765231  38.9794949  19.2944431  11.3052575  37.8245605  19.6812306
  10.7908384  38.2066809  19.2300964   3.9070911  37.2125963  23.8779092
   3.0508807  37.3734461  23.9288209   3.9538565  36.3418027  23.8984154
   3.7870023  37.1076765  23.8885159   6.7522732  39.2718007  26.5210744
   7.2978692  39.9503094  26.5804714   6.6939609  39.1305468  25.6612326
   6.8238647  39.3510009  26.4022805   8.5287801  40.7002614  17.3944472
   8.4127327  41.4510300  17.8236610   9.3243688  40.4426567  17.6440559
   8.6292390  40.7737461  17.4948564   2.4619834  36.6912632  18.7648201
   3.1599999  36.8700760  19.2569664   2.7772167  36.1682971  18.1418590
   2.6115172  36.6406404  18.7450211   6.2517106  41.4310258  15.7058762
   6.1668402  42.2871225  15.8508331   6.7401490  41.1554583  16.3740921
   6.3106004  41.5167580  15.8260843   7.8423106  28.0490552  21.0919086
   7.5276547  28.7394030  21.5239509   7.3250047  27.9935334  20.3904587
   7.7187576  28.1425440  21.0516035   7.1835540  38.0495053  17.2056497
   6.6547011  38.2654686  17.8653803   7.7060560  38.7431191  17.1257466
   7.1823993  38.1838190  17.2912096  12.6383593  43.6241357  22.5789541
  11.8081296  43.8352001  22.7422958  12.5892845  42.7978412  22.3031825
  12.5090328  43.5330963  22.5626907   3.5312362  38.1923921  14.4832885
   3.7708366  38.4001905  13.6708229   3.8528203  37.3881430  14.5921830
   3.6149520  38.1038023  14.3793438  12.1337551  36.2711758  26.3739963
  11.2965972  36.3413945  26.6087557  12.1025782  36.2736253  25.5014265
  12.0055833  36.2821985  26.2799511   2.8759436  29.5314047  18.0619560
   3.6045596  29.3530002  17.6157716   2.9654329  30.3732127  18.2726738
   2.9966098  29.6297925  18.0273078   6.8567737  40.4667434  21.9651854
   7.6125252  40.8998949  22.0040763   6.9630061  39.8172204  22.5386490
   6.9837907  40.4344918  22.0549880   9.8145391  31.3354539  24.9583685
  10.4571299  31.4052644  25.5445600  10.0668411  30.6683762  24.4563227
   9.9467523  31.2480888  24.9710964  13.0292254  41.0121631  21.6073894
  13.6908688  40.4512300  21.5069803  12.3883666  40.5173662  21.9326586
  13.0321121  40.8558040  21.6406235   9.3157085  42.0287014  21.3485883
   9.5512674  42.1732213  20.5212734   9.4646648  42.7929422  21.7417397
   9.3722888  42.1626068  21.2849487  11.1447541  40.8688680  19.1855487
  11.4755759  41.4016320  18.5795582  11.7180630  40.9227568  19.8417438
  11.2781221  40.9558249  19.1933269   6.3579431  38.7153582  19.8679067
   6.4526285  39.4542877  20.3218693   5.7338274  38.2871058  20.3013632
   6.2788461  38.7614903  19.9987215   4.6131904  41.8939795  30.5169348
   5.1870766  41.2567039  30.6717912   4.5346708  41.8943877  29.6479006
   4.6865139  41.8004906  30.4115759   6.6102452  40.5602322  13.1016019
   6.5282614  40.6304509  13.9671006   7.2482172  41.1232066  12.9099760
   6.6922289  40.6541293  13.2005969   5.0496673  32.4291511  22.6694638
   4.3453000  31.9400696  22.8278557   5.0981647  32.4413985  21.7983082
   4.9526725  32.3581159  22.5633978   2.6103624  36.3524172  27.9147819
   2.2218057  35.9278390  27.2600010   1.9458322  36.6006322  28.4224845
   2.4550552  36.3262893  27.8935687  12.2526893  36.1099177  20.6895649
  11.9963458  35.2979118  20.4993531  13.0956207  36.1176744  20.4625836
  12.3392918  35.9911174  20.6280466   6.4329985  30.0498801  25.4271803
   6.8140497  29.3676972  25.8139677   5.6293270  29.7608403  25.2447467
   6.3706447  29.9065849  25.4575859   3.7142562  40.5822777  16.1124626
   4.5283201  40.8737669  16.0007397   3.6501703  39.9282639  15.5382919
   3.8245301  40.5287971  16.0113463   9.9352052  43.2648773  30.5254201
   9.6990690  42.4336837  30.4066262  10.5795281  43.2134380  31.1109045
   9.9946723  43.1346461  30.5940095  10.9588473  43.0493221  26.5882496
  10.6534290  43.7821278  26.9495811  10.2394689  42.6431151  26.3075282
  10.8075815  43.0974954  26.5995633  16.6590265  39.6886222  25.9150840
  16.5914765  39.7082181  25.0453426  16.6445927  40.5316549  26.1406510
  16.6469021  39.8159957  25.8203317   7.0686611  31.0921380  29.2391929
   7.8140203  30.9031190  28.8255355   6.6523916  31.6179618  28.6805786
   7.1171586  31.1423525  29.0956503  14.4448882  38.4630608  24.1897434
  14.9956804  37.8298677  24.4294526  14.4292998  38.9946001  24.8812939
  14.5234079  38.4479556  24.3276293   8.1477289  36.7026942  23.3002031
   7.8042054  35.9817277  23.6509280   8.2470331  36.4940793  22.4580389
   8.1119331  36.5651145  23.2273711   6.6668254  34.6218527  25.1761573
   5.8279355  34.6479806  24.9399837   6.7372621  35.2689262  25.7566920
   6.5536647  34.7214653  25.2270690   5.1137532  31.5203904  19.9089189
   5.8163885  31.3211652  19.4309148   4.8481721  30.7479846  20.2158033
   5.1784165  31.3766870  19.8834631  10.5425778  39.8286514  22.4622815
  10.4559752  39.9841940  23.3157594  10.0876258  40.4724589  22.0882220
  10.4629034  39.9462269  22.5329922   4.4151594  37.1497261  21.0848375
   4.1686308  37.0693012  21.9185164   4.7436717  36.3650728  20.8910902
   4.4272837  37.0223526  21.1795898   6.6477728  40.1576995  31.1257538
   6.6425766  39.2856812  31.1299964   7.3538722  40.3565164  30.6526993
   6.7522732  40.0580869  31.0564573   0.3748621  39.8853979  30.4971358
   0.5191997  40.4655187  29.8614468   0.7224270  40.2630276  31.2021212
   0.4476082  40.0274683  30.5070353   2.5468538  39.0844148  28.2796489
   1.7991853  39.2775162  27.8744767   2.7010064  38.2589367  28.0420611
   2.4590966  38.9909259  28.1841895   9.8053015  43.2158874  15.6351655
   9.4259824  42.4296012  15.6280945   9.1419261  43.7645731  15.4923299
   9.6511490  43.1803698  15.6132452   2.7870315  32.9794698  29.1691893
   3.2442930  33.7118673  29.2964685   2.8626644  32.5561164  29.9279149
   2.8661285  33.0251936  29.2992970   7.2597641  26.1584573  23.0385736
   7.3781210  26.6161037  22.3053039   7.0859817  25.3529835  22.7521954
   7.2516812  26.1078346  22.8886670   6.0496380  42.6039232  23.7393163
   5.3741382  42.3724465  24.2406550   6.0588756  41.9960415  23.1135268
   5.9514884  42.4798158  23.7209315   3.1790524  37.4457061  30.4957216
   3.1149665  38.3067018  30.3677353   3.3187711  37.1289055  29.6952767
   3.1905994  37.5257228  30.3585429   1.8609618  40.1389201  24.6373419
   1.4371867  40.3393700  23.9012437   1.6854473  39.2918049  24.7497719
   1.7720498  40.0437982  24.5447109   3.6871207  40.0099136  18.9394755
   4.2286753  39.5069517  19.4033375   4.0017766  39.9564330  18.1284240
   3.8135604  39.9278557  18.8878567   4.8360477  34.9035440  28.9917055
   5.0502446  34.2646354  28.4380409   4.2194376  35.3481264  28.5624917
   4.7765806  34.8745584  28.8467486   6.9999565  36.5124505  29.9300362
   6.1876246  36.2050396  30.0113535   7.4589499  36.0323506  30.4943074
   6.9479949  36.3960998  30.0254956   4.2275205  28.0135376  23.9804398
   3.3568763  27.9874097  23.9337707   4.4815546  27.8412568  23.1630244
   4.1368765  27.9845520  23.8524535   4.0953072  37.9184577  34.7129065
   4.5652703  38.5426693  35.0996939   4.1414952  37.2501552  35.2722279
   4.1720948  37.9119257  34.8529136   1.2524346  30.0241604  25.4377868
   0.7362834  29.3321796  25.5629447   0.6918275  30.6912381  25.3840467
   1.0930859  30.0204862  25.4483934   3.3216579  30.5634564  27.2670721
   2.9348332  30.5883596  28.0484251   2.8349516  29.9976243  26.8145237
   3.1929088  30.4830315  27.3158625   9.2966559  37.1297219  25.8910423
   8.8694167  37.0423568  25.1358523   8.6592612  37.2374995  26.4765267
   9.1396166  37.1329879  25.8655865   2.9873721  27.4501550  29.5580981
   3.6166839  27.9861850  29.2802051   3.1559584  27.3578909  30.4094546
   3.1051515  27.5162912  29.6429509   2.7887636  32.2372745  31.8307392
   3.6161065  31.9657893  31.8866007   2.8095482  33.0333586  32.1871211
   2.9140486  32.3152499  31.8922575   6.4797639  29.9837438  22.5266283
   6.6847233  29.9159746  23.3723280   6.1524063  30.7896260  22.4587460
   6.4612887  30.0923379  22.6425938   1.1773790  37.3118007  24.2675251
   0.8736928  36.7573995  24.8685658   0.4753211  37.4910216  23.7803285
   1.0290000  37.2562789  24.2844956   9.7331327  30.5369203  22.0069048
   9.1205641  31.0239605  22.3922780   9.8295502  29.8612693  22.5506699
   9.6569225  30.5087511  22.1447906   3.7350408  32.2932044  17.1066547
   4.1894155  32.4642604  17.8314392   4.2090454  31.6800154  16.7064323
   3.8718728  32.2282929  17.1540309  13.3756355  41.6086139  27.4346564
  13.4339479  42.0572788  28.1806541  12.7422823  42.0184952  26.9976644
  13.2907650  41.7359874  27.4799113   1.0763428  38.9974578  18.2111555
   1.8205473  39.3848854  18.4494505   1.2224124  38.1532003  18.3752042
   1.2074013  38.9305051  18.2705524   2.9943004  30.7924837  23.2443416
   2.1479049  30.9647645  23.1184766   2.9914136  29.9874181  23.5809244
   2.8690153  30.6985866  23.2754543   4.0641304  34.5700051  24.1105474
   3.5901258  34.0441813  24.6210785   4.4359440  34.0229524  23.5420336
   4.0491193  34.4116048  24.1020621  10.3278034  39.6302427  25.5212255
  10.0876257  38.7908842  25.5254681  10.8070042  39.7102594  26.2453028
  10.3630218  39.5183827  25.6287057   5.9924804  35.4636606  17.1731228
   5.4647822  35.5465350  16.4836937   6.4520512  36.2054477  17.1695872
   5.9826654  35.5857268  17.0705923  12.3283222  36.4103884  23.4741514
  12.0892991  36.3699718  22.6362298  12.4917123  37.2575036  23.6007235
  12.3173525  36.5295969  23.3694996   8.9329252  40.7953833  29.4046559
   9.6563451  40.3426360  29.2257579   8.6679214  41.0758499  28.6218887
   9.0010525  40.7704802  29.2625274   4.7148041  40.8937712  27.5541574
   4.1005034  40.3495762  27.8490209   5.2315326  40.3801948  27.0747390
   4.7003704  40.7374121  27.5265802   3.9544338  41.9641982  25.2885872
   3.5271946  41.3391700  24.8551308   3.9469283  41.6816904  26.1144880
   3.8903479  41.8294762  25.3465700   5.0127168  29.1668390  28.9125096
   4.5167730  29.3632065  28.2216663   5.7696230  29.5661059  28.7413898
   5.0513993  29.2546124  28.7845233   2.2830048  32.8410736  25.5028406
   2.3072535  32.3070849  24.8141186   2.5341522  32.3328045  26.1653997
   2.3239967  32.6871640  25.4993051  11.3664566  39.7580244  27.9077108
  11.9582406  40.3977495  27.9395307  11.8023560  39.0603281  28.1969175
  11.5182997  39.7498595  27.9557941   5.3620138  32.5450936  27.3759665
   5.7875209  32.0923463  26.7643192   4.7477131  31.9911007  27.6524453
   5.3348783  32.3964913  27.3264691   3.8014361  29.0166036  20.7850242
   3.1582678  28.8663682  21.3535381   3.4613768  28.7708381  20.0199347
   3.6559438  28.9578159  20.7553258   8.3913707  36.9725463  20.2080251
   7.7204897  37.5155165  20.0793317   9.0853457  37.4420318  19.9661946
   8.3942574  37.1223734  20.1535779   8.5541834  33.4281347  23.1170624
   8.9069445  33.0011069  23.7916423   7.6956636  33.3432190  23.2471701
   8.4791279  33.3526087  23.2365635   6.5525100  36.6916715  27.0655466
   6.5323028  36.5100010  27.9190245   6.6004301  37.5628734  27.0415050
   6.5559741  36.7933253  27.1878761   3.0272094  35.0986866  16.5126850
   2.4336933  35.4203863  15.9611417   3.0647372  34.2527962  16.3047956
   2.9446483  35.0211194  16.4009622   9.9865895  28.5499758  24.0454937
   9.4796759  27.8428898  23.9776114  10.7833328  28.2192947  24.1756013
  10.0293134  28.3972910  24.0553932   5.9029910  35.0566371  19.9428600
   5.6743603  35.0799072  19.1006959   6.1627987  34.2323838  20.0623611
   5.9076098  34.9382451  19.8353798  12.1886034  43.0664685  17.0295801
  12.5719640  43.8156041  17.2593898  11.3930148  43.3130505  16.7707790
  12.1279817  43.2134379  17.0253375   4.0618209  34.8325088  31.9855956
   4.6189639  34.6038898  31.3534422   3.7379274  35.5930754  31.7091169
   4.0964619  34.9108925  31.8512453   1.7801326  37.9192742  32.9507963
   2.5312653  38.2344418  33.2647517   1.9723903  37.7171913  32.1241885
   1.9192741  37.9360123  32.8751359   8.6286617  34.0466308  20.1931759
   8.6280843  33.8914965  21.0516035   8.4242797  34.8929295  20.1373144
   8.5986394  34.1486929  20.3119698   6.3527469  38.7263810  23.8467966
   6.8481134  38.0086805  23.8071986   5.5427244  38.4234607  23.7322453
   6.3071362  38.5761456  23.8241691   8.4179287  41.4767497  26.5345094
   8.8434359  40.9541919  25.9815519   8.0536207  42.0748335  26.0133717
   8.4265890  41.4877724  26.3754104   1.9227382  29.9629232  29.8204347
   2.0555287  29.1660226  30.1485322   2.3072535  30.4895635  30.4002622
   1.9983711  29.9229149  29.9547850   4.9959737  26.8859558  26.4185440
   4.1905701  26.7757288  26.7353278   4.8666473  26.9872014  25.5615306
   4.8579870  26.8843228  26.3393480   8.4525698  33.0505050  27.0125137
   7.8688686  33.5514257  26.6002704   8.7729992  32.5434606  26.3789460
   8.4138873  33.0496885  26.8583644   0.9920497  31.9645645  17.2883812
   1.8136191  32.1343958  17.0465507   0.5290148  32.1192906  16.5650109
   1.0451659  32.0127378  17.1455456  18.8155689  43.5675860  21.0919086
  18.5009130  44.2579338  21.5239509  18.2982631  43.5120642  20.3904587
  18.6920160  43.6610748  21.0516035  20.7877974  46.8539847  24.9583685
  21.4303883  46.9237952  25.5445600  21.0400995  46.1869070  24.4563227
  20.9200106  46.7666196  24.9710964  17.4062569  45.5684109  25.4271803
  17.7873081  44.8862280  25.8139677  16.6025853  45.2793711  25.2447467
  17.3439031  45.4251157  25.4575859  18.2330225  41.6769881  23.0385736
  18.3513793  42.1346345  22.3053039  18.0592401  40.8715143  22.7521954
  18.2249396  41.6263654  22.8886670  15.2007789  43.5320684  23.9804398
  14.3301347  43.5059405  23.9337707  15.4548130  43.3597876  23.1630244
  15.1101349  43.5030827  23.8524535  13.9606304  42.9686858  29.5580981
  14.5899422  43.5047158  29.2802051  14.1292167  42.8764217  30.4094546
  14.0784099  43.0348220  29.6429509  17.4530223  45.5022746  22.5266283
  17.6579816  45.4345054  23.3723280  17.1256647  46.3081567  22.4587460
  17.4345471  45.6108687  22.6425938  20.7063911  46.0554510  22.0069048
  20.0938224  46.5424913  22.3922780  20.8028086  45.3798001  22.5506699
  20.6301808  46.0272819  22.1447906  15.9859752  44.6853698  28.9125096
  15.4900313  44.8817373  28.2216663  16.7428814  45.0846367  28.7413898
  16.0246577  44.7731432  28.7845233  14.7746944  44.5351344  20.7850242
  14.1315262  44.3848990  21.3535381  14.4346351  44.2893689  20.0199347
  14.6292021  44.4763467  20.7553258  20.9598478  44.0685066  24.0454937
  20.4529343  43.3614206  23.9776114  21.7565912  43.7378255  24.1756013
  21.0025717  43.9158218  24.0553932  15.9692321  42.4044866  26.4185440
  15.1638284  42.2942596  26.7353278  15.8399056  42.5057322  25.5615306
  15.8312453  42.4028536  26.3393480  10.4022050  15.0628443   6.0566209
  10.3716055  15.9173080   6.2284478  11.0003399  14.7623736   6.6152353
  10.4859208  15.1444940   6.1641011   3.6021735  14.1504094  10.8119139
   2.7459631  14.3112593  10.8628256   3.6489389  13.2796158  10.8324200
   3.4820847  14.0454896  10.8225205   6.9115452  20.4190620  20.4179595
   7.6182219  19.9242651  20.5466530   7.1003387  20.8599701  19.6882253
   7.0443357  20.4108970  20.3288641   2.9792126  26.0606450   7.9453030
   3.3631505  26.6293349   7.4057805   2.9151267  25.3355961   7.4658846
   3.0265553  26.0381914   7.7946892   6.4473556  16.2096138  13.4550791
   6.9929516  16.8881225  13.5144761   6.3890432  16.0683599  12.5952372
   6.5189471  16.2888140  13.3362852   2.3516328  21.4560126  12.5393757
   2.6339571  20.6611532  12.3180513   3.0802489  21.9340713  12.5598818
   2.5005892  21.4094723  12.5096773  12.3334416  20.5619488   9.5129588
  11.5032120  20.7730132   9.6763005  12.2843669  19.7356543   9.2371872
  12.2041152  20.4709095   9.4966954   4.0507746  23.8418156  18.3093671
   4.1391092  23.6544297  19.1571881   4.4797459  23.1955586  17.9098517
   4.1269848  23.7181164  18.3765422   1.6178206  23.1249316  17.2911333
   1.0549041  22.7121926  17.8150994   2.3799229  23.0502222  17.7104476
   1.6472654  23.0526717  17.4304333  11.8288375  13.2089889  13.3080010
  10.9916796  13.2792076  13.5427604  11.7976606  13.2114384  12.4354312
  11.7006657  13.2200116  13.2139557   6.5518561  17.4045565   8.8991901
   7.3076076  17.8377080   8.9380810   6.6580885  16.7550335   9.4726537
   6.6788731  17.3723049   8.9889927   9.5898732  21.2318843   9.6494304
   9.1533964  21.2355585  10.4053275   9.2561647  21.9124342   9.2173881
   9.4761352  21.3331298   9.6975137   4.1627805  23.2727176  20.9737454
   4.9468222  23.3858023  21.3393196   3.9624400  22.4468313  21.1696140
   4.2493831  23.1673895  21.0571840   9.5096215   8.2732670  11.8923732
  10.1522123   8.3430775  12.4785647   9.7619235   7.6061893  11.3903274
   9.6418347   8.1859019  11.9051011   4.3198199  25.1837278  14.6203910
   3.5213444  24.9436778  14.8777778   4.7684210  25.2351670  15.3670958
   4.2672810  25.1559669  14.7688834  12.7243078  17.9499763   8.5413941
  13.3859512  17.3890431   8.4409850  12.0834490  17.4551793   8.8666632
  12.7271945  17.7936172   8.5746281   9.0107909  18.9665145   8.2825930
   9.2463498  19.1110344   7.4552781   9.1597472  19.7307553   8.6757444
   9.0673712  19.1004199   8.2189534  10.8398365  17.8066811   6.1195534
  11.1706582  18.3394451   5.5135629  11.4131453  17.8605699   6.7757485
  10.9732044  17.8936380   6.1273316   3.3798936  18.9297722  22.5124098
   2.5871916  19.2441234  22.6976718   3.4947863  19.1449191  21.6744883
   3.2794346  19.0081559  22.4162433   4.3082728  18.8317926  17.4509395
   4.8821590  18.1945170  17.6057959   4.2297532  18.8322009  16.5819052
   4.3815963  18.7383038  17.3455806   2.3054448  13.2902303  14.8487865
   1.9168880  12.8656521  14.1940057   1.6409146  13.5384453  15.3564892
   2.1501376  13.2641024  14.8275733  11.9477717  13.0477308   7.6235695
  11.6914282  12.2357249   7.4333578  12.7907031  13.0554875   7.3965883
  12.0343742  12.9289305   7.5620513   9.6302876  20.2026904  17.4594248
   9.3941514  19.3714969  17.3406309  10.2746105  20.1512511  18.0449092
   9.6897547  20.0724592  17.5280142  10.6539297  19.9871353  13.5222543
  10.3485114  20.7199409  13.8835858   9.9345512  19.5809282  13.2415329
  10.5026639  20.0353086  13.5335680   1.6622766  21.4694848   9.8530771
   1.7361774  21.3070020  10.7072621   2.4792273  21.6585037   9.6091252
   1.7939125  21.4731590   9.9428796  16.3541089  16.6264353  12.8490887
  16.2865589  16.6460312  11.9793473  16.3396751  17.4694680  13.0746557
  16.3419845  16.7538088  12.7543364   6.7637435   8.0299511  16.1731976
   7.5091027   7.8409321  15.7595402   6.3474740   8.5557749  15.6145833
   6.8122410   8.0801656  16.0296549  14.1399706  15.4008739  11.1237481
  14.6907628  14.7676809  11.3634573  14.1243822  15.9324132  11.8152985
  14.2184903  15.3857688  11.2616339   7.8428112  13.6405073  10.2342077
   7.4992878  12.9195408  10.5849327   7.9421155  13.4318924   9.3920436
   7.8070155  13.5029276  10.1613757   8.3041142  20.1030777   5.7766065
   8.8699174  20.7623987   5.6924608   7.6569045  20.4480475   6.2482468
   8.2919898  20.2512719   5.8338822   4.7747720  23.0469561   5.2003145
   4.5334396  22.3137422   4.7930210   4.9549053  23.5956418   4.5469478
   4.7655344  23.0191953   5.0433368   6.3619078  11.5596658  12.1101620
   5.5230179  11.5857937  11.8739884   6.4323445  12.2067393  12.6906967
   6.2487471  11.6592784  12.1610737  10.2376602  16.7664645   9.3962862
  10.1510576  16.9220071  10.2497641   9.7827082  17.4102720   9.0222267
  10.1579858  16.8840400   9.4669969   8.0050467  20.7958751  11.8075203
   7.8664826  21.4939797  12.3123945   7.2250464  20.6407408  11.4511385
   7.8693693  20.8758918  11.8301477   6.3428552  17.0955126  18.0597584
   6.3376590  16.2234943  18.0640011   7.0489546  17.2943296  17.5867040
   6.4473556  16.9959001  17.9904620   2.2419362  16.0222279  15.2136536
   1.4942676  16.2153293  14.8084814   2.3960888  15.1967498  14.9760657
   2.1541790  15.9287390  15.1181942   1.6680501  25.1849525  15.5756922
   1.5924172  24.5158336  16.1307711   1.5970360  25.8867313  16.0897588
   1.6461108  25.1894432  15.7333770   2.4821139   9.9172829  16.1031940
   2.9393754  10.6496804  16.2304732   2.5577468   9.4939295  16.8619196
   2.5612109   9.9630068  16.2333016   2.3250748  23.7050524   6.4080528
   3.0900639  23.4360168   6.0863192   2.2228838  23.2200534   7.1250591
   2.4232243  23.5940089   6.4660356   5.7447204  19.5417364  10.6733210
   5.0692205  19.3102596  11.1746597   5.7539580  18.9338546  10.0475315
   5.6465708  19.4176289  10.6549362   2.8741348  14.3835193  17.4297263
   2.8100489  15.2445149  17.3017400   3.0138535  14.0667186  16.6292814
   2.8856818  14.4635359  17.2925476   7.7463938  22.3982496   2.9043388
   7.8283776  23.2049482   2.5804839   8.2313680  22.4178455   3.6284161
   7.8301096  22.5203158   2.9630286   1.5560442  17.0767332  11.5713466
   1.1322691  17.2771831  10.8352484   1.3805297  16.2296180  11.6837766
   1.4671322  16.9816113  11.4787156   1.0572135  28.5917845  14.0334923
   1.5468065  27.8928634  13.8510588   0.4856367  28.2941715  14.6210980
   1.0456665  28.4444068  14.0935964   7.2539139  21.1579914  22.9861714
   8.0674004  20.8865063  23.1466846   7.0934105  20.8587454  22.1821910
   7.3509087  21.0734840  22.8907120   4.5311301  11.8413571  15.9257102
   4.7453270  11.2024486  15.3720456   3.9145200  12.2859395  15.4964964
   4.4716630  11.8123715  15.7807533   5.9415968  24.7632320   7.3711323
   5.5495760  24.4599035   6.6534189   6.0969041  25.6001410   7.1816277
   5.9069558  24.8416156   7.2367820   6.6950389  13.4502637  16.8640409
   5.8827070  13.1428527  16.9453582   7.1540323  12.9701637  17.4283121
   6.6430773  13.3339129  16.9595003   6.1055643  21.3282309   7.3117353
   5.7470298  21.4996951   8.0881386   5.6194354  21.7895514   6.7545352
   5.9814340  21.4221280   7.3442622   3.7903896  14.8562708  21.6469111
   4.2603527  15.4804824  22.0336985   3.8365776  14.1879684  22.2062326
   3.8671772  14.8497388  21.7869183   3.0167403   7.5012695  14.2010768
   2.6299156   7.5261727  14.9824298   2.5300340   6.9354374  13.7485284
   2.8879912   7.4208446  14.2498671   7.2660383  22.2186204  18.2584554
   7.9040103  21.7246400  17.9247010   6.6234474  22.1463605  17.6736781
   7.2654609  22.1345213  18.1226909   8.9917383  14.0675350  12.8250470
   8.5644991  13.9801699  12.0698569   8.3543436  14.1753126  13.4105314
   8.8346990  14.0708010  12.7995911   2.4838460   9.1750876  18.7647439
   3.3111889   8.9036025  18.8206054   2.5046306   9.9711717  19.1211257
   2.6091310   9.2530630  18.8262622   7.3214639  22.9106013  14.8989911
   8.1107017  22.5595077  15.0191993   7.4958237  23.7242401  14.6366545
   7.4634921  22.9791870  14.8777779  13.0707179  18.5464270  14.3686611
  13.1290303  18.9950919  15.1146588  12.4373647  18.9563083  13.9316691
  12.9858474  18.6738005  14.4139159   6.7106274  24.1667812  10.8041357
   6.5125962  24.6558627  10.1097569   6.0893985  24.3709054  11.3825491
   6.5893838  24.2684351  10.7864580  10.0228858  16.5680558  12.4552301
   9.7827081  15.7286973  12.4594728  10.5020866  16.6480725  13.1793075
  10.0581042  16.4561958  12.5627104  12.0234045  13.3482015  10.4081560
  11.7843815  13.3077850   9.5702345  12.1867947  14.1953167  10.5347282
  12.0124349  13.4674100  10.3035042   8.6280076  17.7331965  16.3386606
   9.3514274  17.2804491  16.1597626   8.3630038  18.0136630  15.5558933
   8.6961349  17.7082933  16.1965321   4.4098865  17.8315843  14.4881621
   3.7955858  17.2873893  14.7830256   4.9266150  17.3180079  14.0087437
   4.3954528  17.6752252  14.4605849   3.6495162  18.9020113  12.2225919
   3.2222770  18.2769832  11.7891355   3.6420107  18.6195035  13.0484927
   3.5854303  18.7672894  12.2805747   4.7077992   6.1046522  15.8465143
   4.2118554   6.3010196  15.1556709   5.4647054   6.5039190  15.6753944
   4.7464817   6.1924255  15.7185279  11.0615390  16.6958376  14.8417155
  11.6533230  17.3355626  14.8735353  11.4974384  15.9981412  15.1309222
  11.2133821  16.6876726  14.8897988   2.8908779  21.1175748  15.4675049
   2.3833870  21.6711595  15.9115680   2.5935426  21.1784038  14.6493824
   2.7713664  21.2082059  15.4123506   5.0570962   9.4829068  14.3099712
   5.4826033   9.0301594  13.6983239   4.4427955   8.9289138  14.5864500
   5.0299607   9.3343044  14.2604737   5.5016560  25.0339006   3.3978993
   4.7845869  24.8599868   2.9326230   6.1523297  24.7991578   2.8654479
   5.4918410  24.9734798   3.2508211   2.1351265  26.0500306  12.3732056
   1.9116919  25.2919135  12.7416082   1.6461108  26.0798327  11.6512496
   2.0294714  25.9422531  12.3208797   8.2492658  10.3659478  10.0510671
   8.6020268   9.9389201  10.7256470   7.3907460  10.2810321  10.1811747
   8.1742103  10.2904218  10.1705681   6.2475924  13.6294846  13.9995513
   6.2273852  13.4478142  14.8530292   6.2955125  14.5006865  13.9755097
   6.2510565  13.7311385  14.1218808   4.1922254  20.2182038  19.9243990
   4.1518109  19.5731715  19.3389146   5.0045572  20.1618656  20.2369402
   4.3065408  20.1141005  19.8840939   0.7829722  26.2700764   9.8269141
   0.3690120  25.6074894   9.4372982   1.4677096  26.4178623   9.3064835
   0.8228093  26.1941422   9.6925638   4.1495016  25.4290850  10.5792757
   3.7511299  25.5393120   9.8113578   3.5346235  25.6372916  11.1619317
   3.9993905  25.4764418  10.5524057  11.8836858  20.0042816   3.9635848
  12.2670464  20.7534172   4.1933945  11.0880972  20.2508636   3.7047837
  11.8230641  20.1512510   3.9593422   3.7569033  11.7703220  18.9196003
   4.3140463  11.5417029  18.2874468   3.4330098  12.5308885  18.6431215
   3.7915443  11.8487056  18.7852500   1.4752150  14.8570873  19.8848010
   2.2263477  15.1722550  20.1987564   1.6674727  14.6550044  19.0581932
   1.6143565  14.8738255  19.8091406   6.0478293  15.6641941  10.7808012
   6.5431958  14.9464936  10.7412033   5.2378068  15.3612739  10.6662499
   6.0022186  15.5139587  10.7581738   8.1130111  18.4145628  13.4685141
   8.5385183  17.8920050  12.9155566   7.7487031  19.0126466  12.9473764
   8.1216714  18.4255855  13.3094151   4.7008711  22.1279893   9.7986299
   5.1719889  22.8420155   9.9676284   5.0368889  21.5278643  10.3346168
   4.8203826  22.1451357   9.9018675   6.7885695  23.7381206  21.9778371
   6.8982661  22.9489767  22.3335118   7.1176592  23.6487142  21.1752709
   6.8538101  23.6087059  21.9120761   5.3382657  21.9197827  16.5613991
   4.7903603  21.2955710  16.2934057   5.7995686  22.1092099  15.8458071
   5.3249867  21.8556877  16.4164422   8.1476522   9.9883181  13.9465184
   7.5639510  10.4892388  13.5342751   8.4680816   9.4812738  13.3129507
   8.1089697   9.9875016  13.7923691   4.9040984  22.9248900  13.0923333
   5.7239357  22.7811866  13.3539628   4.6235061  23.5495098  13.6339770
   4.9837727  22.9959252  13.2111272  21.3754634  30.5813751   6.0566209
  21.3448638  31.4358388   6.2284478  21.9735983  30.2809044   6.6152353
  21.4591792  30.6630248   6.1641011  14.5754319  29.6689402  10.8119139
  13.7192214  29.8297901  10.8628256  14.6221972  28.7981466  10.8324200
  14.4553430  29.5640204  10.8225205  17.8848035  35.9375928  20.4179595
  18.5914803  35.4427959  20.5466530  18.0735971  36.3785009  19.6882253
  18.0175941  35.9294278  20.3288641  13.9524710  41.5791758   7.9453030
  14.3364089  42.1478657   7.4057805  13.8883851  40.8541269   7.4658846
  13.9998137  41.5567222   7.7946892  17.4206140  31.7281446  13.4550791
  17.9662100  32.4066533  13.5144761  17.3623016  31.5868907  12.5952372
  17.4922054  31.8073448  13.3362852  10.5380215  39.2170512   8.8419143
  10.6390578  38.4070866   9.1516271   9.9421960  39.1227459   8.2118822
  10.4652753  39.0835540   8.7945382  19.1971208  33.1566053   4.3284519
  19.0810734  33.9073739   4.7576657  19.9927095  32.8990007   4.5780606
  19.2975798  33.2300900   4.4288610  10.3780954  44.1348101  10.2433999
  11.0218410  44.5761266  10.6330158  10.7037210  43.3301528  10.1564258
  10.5212783  44.0813296  10.2879477   6.0335346  27.4076529  11.3655785
   5.4140378  26.8169177  11.1965800   5.9319210  27.9987965  10.7320108
   5.9273022  27.4080612  11.2460774  11.0801534  37.1460076   5.6153861
  11.4017375  37.6865284   5.0115169  11.7273630  36.5756848   5.7476151
  11.2227589  37.1419251   5.5460896  13.1303242  29.1476071   5.6988248
  13.8283407  29.3264199   6.1909711  13.4455575  28.6246411   5.0758637
  13.2798579  29.0969843   5.6790258   5.7604479  30.9528811  13.6099354
   5.6363176  31.5391257  14.2449173   6.4122764  30.4589007  13.9111629
   5.8378129  30.9667616  13.7485283  13.3191177  35.5346516   5.6868039
  13.7584813  34.9263617   6.1322812  13.1695840  35.1553890   4.9153504
  13.3612643  35.3884987   5.6387207  10.7862820  34.1290528  12.8886865
  11.4311823  33.6362971  12.5697813  11.0264597  34.2715315  13.7152943
  10.9173405  34.0767970  12.9636398  13.3248912  36.9745434  12.5393757
  13.6072155  36.1796840  12.3180513  14.0535072  37.4526021  12.5598818
  13.4738475  36.9280031  12.5096773  11.3030106  24.5168468   9.7809522
  10.9733436  24.9679611   9.1113221  10.6275107  24.4384631  10.3282529
  11.1540542  24.5719603   9.7632746  16.9200514  33.8873698   2.6398809
  16.8351809  34.7434664   2.7848377  17.4084897  33.6118022   3.3080968
  16.9789411  33.9731019   2.7600890  18.5106513  20.5053991   8.0259133
  18.1959954  21.1957469   8.4579555  17.9933455  20.4498773   7.3244634
  18.3870984  20.5988879   7.9856082  17.8518947  30.5058492   4.1396544
  17.3230419  30.7218125   4.7993850  18.3743967  31.1994630   4.0597513
  17.8507400  30.6401629   4.2252143  23.3067000  36.0804796   9.5129588
  22.4764703  36.2915440   9.6763005  23.2576252  35.2541851   9.2371872
  23.1773735  35.9894402   9.4966954  11.3676738  38.9108650  12.3477498
  10.8503679  38.5516065  11.7438806  12.0651129  38.3870825  12.3583564
  11.3942319  38.7806338  12.2607756  15.0240330  39.3603464  18.3093671
  15.1123675  39.1729605  19.1571881  15.4530042  38.7140894  17.9098517
  15.1002432  39.2366472  18.3765422  12.5910789  38.6434624  17.2911333
  12.0281624  38.2307234  17.8150994  13.3531813  38.5687530  17.7104476
  12.6205238  38.5712025  17.4304333  14.1995769  30.6487361   1.4172932
  14.4391773  30.8565344   0.6048275  14.5211610  29.8444869   1.5261877
  14.2832927  30.5601462   1.3133485   9.5086060  22.5780756   5.2632470
  10.2632028  22.9459073   5.0249520   9.3313594  22.9520311   6.0311650
   9.5940538  22.6878944   5.3417359   8.1506781  40.6332646   9.8947963
   8.8527360  40.1184635   9.9520720   8.0704264  40.9606797  10.6994838
   8.2430541  40.6046872  10.0220755  22.8020958  28.7275197  13.3080010
  21.9649379  28.7977384  13.5427604  22.7709189  28.7299692  12.4354312
  22.6739241  28.7385424  13.2139557   9.1985687  30.8708232  19.0228378
   9.3706191  30.7614127  19.8713660   9.7355045  31.5162638  18.7859570
   9.3030691  30.9500234  19.1133475   7.8643124  24.9851075   1.9610583
   7.6818698  25.2022956   1.1351576   8.7268737  25.0990088   2.0169198
   7.9647714  25.0340973   1.8465070   7.4757556  36.8238998   9.4033571
   8.3146456  37.0561930   9.4507333   7.5069325  35.9543309   9.3340606
   7.6039274  36.7295944   9.3998216   8.1010259  37.2439873  13.7046877
   8.6408484  37.1011004  14.3750249   7.4180206  37.6436624  14.0730903
   8.0802413  37.2819544  13.8581298  13.5442843  21.9877486   4.9959607
  14.2729004  21.8093441   4.5497763  13.6337736  22.8295566   5.2066785
  13.6649506  22.0861364   4.9613125  17.5251144  32.9230873   8.8991901
  18.2808659  33.3562388   8.9380810  17.6313469  32.2735643   9.4726537
  17.6521315  32.8908357   8.9889927  20.5631315  36.7504151   9.6494304
  20.1266547  36.7540893  10.4053275  20.2294231  37.4309650   9.2173881
  20.4493935  36.8516606   9.6975137  15.1360389  38.7912483  20.9737454
  15.9200806  38.9043331  21.3393196  14.9356983  37.9653621  21.1696140
  15.2226414  38.6859203  21.0571840   3.5047404  33.4640164  13.8581298
   3.2385820  32.6479280  14.0172288   3.5185968  33.5093319  12.9876814
   3.4672127  33.3497068  13.7534780  20.4828798  23.7917978  11.8923732
  21.1254707  23.8616083  12.4785647  20.7351819  23.1247201  11.3903274
  20.6150930  23.7044327  11.9051011   8.2546011  27.0018542  16.5048306
   7.5617807  26.5315522  16.7509037   8.8706338  26.7756846  17.0790013
   8.2430541  26.8985674  16.6257458  15.2930782  40.7022585  14.6203910
  14.4946028  40.4622086  14.8777778  15.7416794  40.7536978  15.3670958
  15.2405393  40.6744977  14.7688834  23.6975661  33.4685070   8.5413941
  24.3592096  32.9075739   8.4409850  23.0567073  32.9737101   8.8666632
  23.7004529  33.3121480   8.5746281   3.9140818  34.2498943  11.1393042
   3.7316391  34.2245829  10.2865335   4.6490487  34.7197881  11.1781951
   3.9954882  34.3160305  11.0190961  19.9840492  34.4850453   8.2825930
  20.2196081  34.6295652   7.4552781  20.1330056  35.2492861   8.6757444
  20.0406295  34.6189507   8.2189534   6.9786570  30.9683946  17.6475151
   7.7026542  30.9536976  18.1340046   7.0802706  31.6779301  17.1497119
   7.1004779  31.0708649  17.6453938  21.8130949  33.3252119   6.1195534
  22.1439166  33.8579759   5.5135629  22.3864037  33.3791007   6.7757485
  21.9464628  33.4121688   6.1273316  14.3531519  34.4483030  22.5124098
  13.5604500  34.7626542  22.6976718  14.4680446  34.6634499  21.6744883
  14.2526930  34.5266867  22.4162433  17.0262838  31.1717022   6.8019114
  17.1209692  31.9106316   7.2558739  16.4021682  30.7434497   7.2353678
  16.9471868  31.2178342   6.9327261  15.2815312  34.3503234  17.4509395
  15.8554174  33.7130478  17.6057959  15.2030116  34.3507317  16.5819052
  15.3548547  34.2568346  17.3455806   3.8811728  31.1292444  11.2892109
   4.4585231  30.9928894  11.9284354   3.1825790  30.6728228  11.5437693
   3.8632750  31.0414710  11.4214399  17.2785859  33.0165761   0.0356066
  17.1966022  33.0867948   0.9011053  17.9165580  33.5795505  -0.1560193
  17.3605697  33.1104732   0.1346015  10.6379030  32.7826499   9.5030592
  10.3798275  31.9498234   9.4761892  10.6927513  33.0084112   8.6623093
  10.6078808  32.6924271   9.3750729  15.7180081  24.8854950   9.6034685
  15.0136407  24.3964135   9.7618604  15.7665055  24.8977424   8.7323129
  15.6210132  24.8144598   9.4974025   9.6113743  30.3364262   9.9895487
   9.0363334  30.4956430  10.6259448   9.2349419  29.6999671   9.5263938
   9.4716555  30.2662075  10.0150045  13.2787031  28.8087611  14.8487865
  12.8901464  28.3841829  14.1940057  12.6141730  29.0569761  15.3564892
  13.1233959  28.7826332  14.8275733  22.9210300  28.5662616   7.6235695
  22.6646865  27.7542557   7.4333578  23.7639614  28.5740183   7.3965883
  23.0076326  28.4474613   7.5620513  17.1013393  22.5062240  12.3611850
  17.4823905  21.8240411  12.7479724  16.2976677  22.2171842  12.1787514
  17.0389855  22.3629288  12.3915906  14.3825970  33.0386216   3.0464672
  15.1966608  33.3301108   2.9347444  14.3185111  32.3846078   2.4722965
  14.4928709  32.9851410   2.9453510  20.6035460  35.7212212  17.4594248
  20.3674097  34.8900277  17.3406309  21.2478689  35.6697819  18.0449092
  20.6630130  35.5909900  17.5280142  10.2533878  36.5107733   8.1736984
  10.8907825  36.2719481   8.7188778  10.6788949  36.7144892   7.4390145
  10.4110044  36.5058743   8.1454142   4.9446520  38.7496070  12.0571288
   4.9850665  39.0210921  11.2291068   5.5041044  39.2737978  12.4729076
   5.0329866  38.8671825  11.9963176  10.8936693  31.7310023   2.5111874
  11.2781846  31.5117730   3.2628419  10.6448313  32.5572968   2.6412950
  10.9138765  31.8208169   2.6412950  11.0605233  25.0116438  22.2274458
  10.7458674  25.7816001  21.9644021  10.7395166  24.4486694  21.6426685
  10.9664152  25.0426707  22.1015808  21.6271880  35.5056661  13.5222543
  21.3217697  36.2384717  13.8835858  20.9078096  35.0994590  13.2415329
  21.4759223  35.5538394  13.5335680  12.6355350  36.9880156   9.8530771
  12.7094358  36.8255328  10.7072621  13.4524856  37.1770345   9.6091252
  12.7671708  36.9916898   9.9428796  27.3273672  32.1449661  12.8490887
  27.2598173  32.1645620  11.9793473  27.3129335  32.9879988  13.0746557
  27.3152429  32.2723396  12.7543364   8.6137130  23.4006960   7.8420654
   7.7459556  23.4729559   7.9078264   8.9012335  24.2029038   8.0308629
   8.5276878  23.5301107   7.8795421  17.7370019  23.5484819  16.1731976
  18.4823611  23.3594629  15.7595402  17.3207324  24.0743057  15.6145833
  17.7854993  23.5986964  16.0296549  25.1132290  30.9194047  11.1237481
  25.6640211  30.2862116  11.3634573  25.0976405  31.4509440  11.8152985
  25.1917486  30.9042996  11.2616339  11.7654681  34.7532645  15.6697375
  11.2666374  35.4648412  15.7482263  12.5754905  35.0733311  15.6315537
  11.8110787  34.9059493  15.6753943   8.0282798  34.0155598   9.9160095
   7.7396047  33.3893069  10.4505823   8.8966146  33.9575885   9.9824776
   8.1143050  33.9143142  10.0051050  18.8160696  29.1590381  10.2342077
  18.4725462  28.4380716  10.5849327  18.9153739  28.9504232   9.3920436
  18.7802739  29.0214584  10.1613757   8.2315072  35.6550849   5.8402461
   8.9861040  36.0363888   6.0537923   7.6385684  36.1061992   6.2949157
   8.2551785  35.7779676   5.9385339  19.2773725  35.6216085   5.7766065
  19.8431758  36.2809295   5.6924608  18.6301629  35.9665783   6.2482468
  19.2652482  35.7698026   5.8338822  10.6921739  27.6113689  20.9659673
   9.8821514  27.9171469  20.8549515  11.1696425  28.3319271  21.0812257
  10.6425217  27.7628290  20.9666744   9.5513298  36.8259410  11.2142576
   9.0294052  36.9659702  11.8994441   9.9387319  36.0670074  11.4044693
   9.5316999  36.7344934  11.3443652   6.5404482  26.8765219   5.2837531
   6.2529278  26.5066489   4.5469478   7.2274951  27.3460074   5.0221236
   6.5993380  26.8912188   5.1352606  15.7480303  38.5654869   5.2003145
  15.5066979  37.8322730   4.7930210  15.9281636  39.1141726   4.5469478
  15.7387927  38.5377260   5.0433368  10.9779624  33.8563429   6.6124067
  10.7822406  34.4638164   6.0184370  11.2013969  33.1631373   6.1315741
  10.9814265  33.8440955   6.4540148   9.3758154  30.7418167   6.7304935
  10.0980806  30.9059325   6.2708741   8.8966147  31.4627832   6.6244275
   9.4121885  30.8716397   6.6470549  17.3351661  27.0781966  12.1101620
  16.4962762  27.1043245  11.8739884  17.4056029  27.7252701  12.6906967
  17.2220055  27.1778092  12.1610737   7.0265771  33.1476239  15.8359075
   7.5386868  33.4260493  15.1867835   6.7402113  33.8865533  16.2021888
   7.0600634  33.2978593  15.7948953  15.7820940  23.9767343   6.8429236
  16.4847293  23.7775091   6.3649194  15.5165128  23.2043285   7.1498080
  15.8467572  23.8330309   6.8174678  21.2109185  32.2849953   9.3962862
  21.1243160  32.4405379  10.2497641  20.7559665  32.9288028   9.0222267
  21.1312442  32.4025708   9.4669969   4.1132677  27.6546431   6.1322812
   4.2148813  28.4572593   6.4603787   4.9088564  27.4533767   5.8345892
   4.2460583  27.7432330   6.1358167  10.5449496  25.2402628  15.8960117
  10.3532693  25.2557762  16.7459540  11.3948092  25.4366302  15.8726772
  10.6425218  25.2716979  16.0183412   4.9296409  27.7693609  13.8743933
   4.7881901  26.9177550  13.9988441   5.2136972  27.8122270  13.0506139
   4.9504255  27.6493360  13.7711557  15.0835001  29.6060700   8.0188422
  14.8369716  29.5256451   8.8525210  15.4120124  28.8214168   7.8250949
  15.0956245  29.4786965   8.1135945  18.9783050  36.3144059  11.8075203
  18.8397409  37.0125105  12.3123945  18.1983048  36.1592716  11.4511385
  18.8426277  36.3944226  11.8301477  17.3161135  32.6140434  18.0597584
  17.3109174  31.7420251  18.0640011  18.0222129  32.8128604  17.5867040
  17.4206139  32.5144309  17.9904620  11.0432029  32.3417418  17.4311405
  11.1875404  32.9218626  16.7954515  11.3907677  32.7193715  18.1361259
  11.1159490  32.4838122  17.4410400  13.2151946  31.5407587  15.2136536
  12.4675260  31.7338601  14.8084814  13.3693471  30.7152806  14.9760657
  13.1274374  31.4472698  15.1181942  10.1159784  40.5320190  14.2972431
  10.2649347  39.9723106  13.6445836  10.8959786  40.6112192  14.6804950
  10.2533877  40.4605756  14.2569381  20.4736423  35.6722313   2.5691702
  20.0943232  34.8859451   2.5620991  19.8102668  36.2209170   2.4263346
  20.3194898  35.6367137   2.5472499  12.6413084  40.7034833  15.5756922
  12.5656755  40.0343644  16.1307711  12.5702943  41.4052621  16.0897588
  12.6193691  40.7079740  15.7333770  13.4553723  25.4358137  16.1031940
  13.9126337  26.1682112  16.2304732  13.5310052  25.0124603  16.8619196
  13.5344693  25.4815375  16.2333016   5.6986714  25.6823957  17.1921384
   5.1628904  25.0704315  17.5082151   5.7604479  26.2572093  17.8455050
   5.6282347  25.6770885  17.3356810  17.9281049  18.6148013   9.9725783
  18.0464617  19.0724476   9.2393086  17.7543225  17.8093274   9.6862000
  17.9200220  18.5641785   9.8226716  13.2983331  39.2235832   6.4080528
  14.0633222  38.9545476   6.0863192  13.1961421  38.7385842   7.1250591
  13.3964827  39.1125397   6.4660356  11.3336101  27.4260241  12.9473764
  10.5432176  27.2451701  13.2691100  11.7296724  26.6487194  12.9304058
  11.2752977  27.2847702  12.9926312  16.7179787  35.0602671  10.6733210
  16.0424789  34.8287904  11.1746597  16.7272163  34.4523854  10.0475315
  16.6198292  34.9361597  10.6549362  13.8473931  29.9020500  17.4297263
  13.7833072  30.7630457  17.3017400  13.9871119  29.5852494  16.6292814
  13.8589401  29.9820667  17.2925476  18.7196522  37.9167804   2.9043388
  18.8016359  38.7234790   2.5804839  19.2046264  37.9363763   3.6284161
  18.8033680  38.0388466   2.9630286  12.5293025  32.5952640  11.5713466
  12.1055274  32.7957139  10.8352484  12.3537880  31.7481488  11.6837766
  12.4403906  32.5001421  11.4787156  12.0304719  44.1103153  14.0334923
  12.5200649  43.4113942  13.8510588  11.4588951  43.8127023  14.6210980
  12.0189249  43.9629376  14.0935964   7.8175470  33.0904691   7.0041438
   7.9740089  33.0251494   7.8597430   8.1576063  33.8653244   6.7920118
   7.8908705  33.1953889   7.0996032  14.3554615  32.4662575   5.8734802
  14.8970160  31.9632956   6.3373422  14.6701174  32.4127769   5.0624287
  14.4819012  32.3841996   5.8218614  18.2271722  36.6765222  22.9861714
  19.0406587  36.4050371  23.1466846  18.0666688  36.3772762  22.1821910
  18.3241671  36.5920148  22.8907120  12.5241064  37.8579926   3.1574830
  12.5933885  36.9994465   3.2967830  13.3029520  38.0751807   2.8293854
  12.6493914  37.7632790   3.1291987  15.5043884  27.3598879  15.9257102
  15.7185854  26.7209794  15.3720456  14.8877783  27.8044703  15.4964964
  15.4449213  27.3309023  15.7807533  16.9148552  40.2817628   7.3711323
  16.5228344  39.9784343   6.6534189  17.0701624  41.1186718   7.1816277
  16.8802142  40.3601464   7.2367820   4.3909732  30.2739642   7.3202205
   4.7708696  30.6924187   6.6562473   3.8165096  30.8553097   7.6271049
   4.3621056  30.4217500   7.2678946  17.6682972  28.9687944  16.8640409
  16.8559654  28.6613835  16.9453582  18.1272907  28.4886945  17.4283121
  17.6163357  28.8524437  16.9595003  17.0788227  36.8467616   7.3117353
  16.7202881  37.0182259   8.0881386  16.5926938  37.3080822   6.7545352
  16.9546924  36.9406588   7.3442622  14.8958613  20.4698815  10.9144445
  14.0252171  20.4437536  10.8677754  15.1498954  20.2976007  10.0970290
  14.8052173  20.4408959  10.7864582  14.7636480  30.3748016  21.6469111
  15.2336111  30.9990132  22.0336985  14.8098360  29.7064991  22.2062326
  14.8404355  30.3682696  21.7869183  11.9207753  22.4805043  12.3717915
  11.4046242  21.7885235  12.4969494  11.3601682  23.1475820  12.3180514
  11.7614266  22.4768301  12.3823981  13.9899987  23.0198003  14.2010768
  13.6031740  23.0447035  14.9824298  13.5032924  22.4539682  13.7485284
  13.8612496  22.9393754  14.2498671  18.2392966  37.7371512  18.2584554
  18.8772687  37.2431708  17.9247010  17.5967058  37.6648913  17.6736781
  18.2387193  37.6530521  18.1226909  19.9649966  29.5860658  12.8250470
  19.5377574  29.4987007  12.0698569  19.3276019  29.6938434  13.4105314
  19.8079573  29.5893318  12.7995911  13.6557128  19.9064989  16.4921028
  14.2850246  20.4425289  16.2142098  13.8242991  19.8142348  17.3434593
  13.7734923  19.9726351  16.5769556  13.4571043  24.6936184  18.7647439
  14.2844473  24.4221332  18.8206054  13.4778889  25.4897025  19.1211257
  13.5823893  24.7715938  18.8262622  18.2947223  38.4291321  14.8989911
  19.0839601  38.0780385  15.0191993  18.4690821  39.2427709  14.6366545
  18.4367504  38.4977178  14.8777779   8.0340533  31.8400046  11.9517700
   7.1928540  31.7403921  12.1596594   8.2430541  32.6095527  12.3032021
   7.9405226  31.9392090  12.0345015   5.5116100  29.4619583   9.7802451
   5.1172798  29.5362595   9.0052560   4.9556217  29.8477530  10.3310812
   5.3718912  29.5301358   9.7470110  17.1481047  22.4400877   9.4606329
  17.3530640  22.3723185  10.3063327  16.8207471  23.2459699   9.3927507
  17.1296295  22.5486818   9.5765985  11.8457198  29.7681446  11.2015297
  11.5420335  29.2137434  11.8025705  11.1436619  29.9473656  10.7143332
  11.6973408  29.7126228  11.2185003  10.9023295  27.0781965   5.7659999
  11.1783029  26.3600878   5.3537567  11.5021964  27.6766885   5.5581105
  11.0316560  27.0602336   5.6740760   9.9075549  36.9831166  15.9087395
   9.7995904  36.9933228  16.7749453  10.1171330  37.8085947  15.7192349
   9.9225660  37.1072241  16.0091487  20.4014735  22.9932642   8.9409095
  19.7889048  23.4803044   9.3262827  20.4978909  22.3176132   9.4846746
  20.3252632  22.9650950   9.0787953  14.4033816  24.7495483   4.0406594
  14.8577562  24.9206043   4.7654439  14.8773861  24.1363593   3.6404370
  14.5402136  24.6846368   4.0880356   7.9249341  34.2343809  13.3709333
   7.3337274  34.8753307  13.3412348   8.6870365  34.6581426  13.3440632
   7.9497602  34.3919647  13.3624480   8.3209964  25.3945806  14.0377350
   8.7811445  25.4684736  14.7752474   8.3666071  26.1927061  13.6877172
   8.3960519  25.5239954  14.0950107   9.9693314  26.0612501  18.6049377
   9.5778879  25.4145848  19.0405155  10.1379176  26.6523937  19.2243633
   9.9364224  26.0526769  18.7612083  24.0439763  34.0649578  14.3686611
  24.1022886  34.5136227  15.1146588  23.4106230  34.4748391  13.9316691
  23.9591058  34.1923313  14.4139159  17.6838857  39.6853120  10.8041357
  17.4858546  40.1743935  10.1097569  17.0626568  39.8894362  11.3825491
  17.5626422  39.7869659  10.7864580  11.7446836  31.4538017   5.1451601
  12.4888881  31.8412293   5.3834551  11.8907532  30.6095442   5.3092089
  11.8757421  31.3868490   5.2045571  13.6626411  23.2488276  10.1783463
  12.8162456  23.4211084  10.0524813  13.6597543  22.4437620  10.5149291
  13.5373561  23.1549305  10.2094590  14.7324711  27.0263490  11.0445521
  14.2584666  26.5005252  11.5550832  15.1042847  26.4792963  10.4760382
  14.7174600  26.8679487  11.0360668   5.1097742  29.0234997  16.4129067
   5.9723355  28.9230706  16.3266396   4.7789525  28.4429706  15.8514639
   5.1882938  28.9226624  16.3174472  20.9961442  32.0865866  12.4552301
  20.7559665  31.2472281  12.4594728  21.4753449  32.1666033  13.1793075
  21.0313626  31.9747266  12.5627104  16.6608211  27.9200045   4.1071275
  16.1331230  28.0028789   3.4176983  17.1203919  28.6617916   4.1035919
  16.6510062  28.0420707   4.0045970  22.9966629  28.8667323  10.4081560
  22.7576399  28.8263157   9.5702345  23.1600530  29.7138475  10.5347282
  22.9856932  28.9859408  10.3035042  19.6012659  33.2517273  16.3386606
  20.3246858  32.7989799  16.1597626  19.3362621  33.5321938  15.5558933
  19.6693932  33.2268241  16.1965321   8.4699528  27.8477446  13.0739485
   7.8452598  27.8595838  12.4665437   8.1345122  28.3237621  13.7230725
   8.3285019  27.9195963  13.0796053   5.1825203  35.9077906  14.5143249
   4.6525128  35.2170345  14.5638224   5.4550296  35.8988092  13.6855958
   5.1449925  35.8045038  14.3990665  16.2145294  36.4903609   3.2380932
  16.9379492  36.9561722   3.0945505  15.7745885  36.5577218   2.4878529
  16.2560986  36.5687445   3.1065713  15.3831449  33.3501151  14.4881621
  14.7688442  32.8059201  14.7830256  15.8998734  32.8365387  14.0087437
  15.3687111  33.1937560  14.4605849  14.6227746  34.4205421  12.2225919
  14.1955354  33.7955140  11.7891355  14.6152690  34.1380343  13.0484927
  14.5586887  34.2858202  12.2805747   7.7390273  29.4570594  15.2914353
   7.8983760  28.7013918  15.6966075   7.5583167  30.0061533  15.9455091
   7.7355632  29.4264408  15.4477059  15.6810576  21.6231830  15.8465143
  15.1851137  21.8195504  15.1556709  16.4379638  22.0224498  15.6753944
  15.7197401  21.7109563  15.7185279  12.9513456  25.2974175  12.4368453
  12.9755943  24.7634288  11.7481233  13.2024929  24.7891484  13.0994044
  12.9923374  25.1435079  12.4333098   9.2314778  24.0244994  11.8174198
   9.2713149  24.5254200  12.5308905   8.4064442  24.1155387  11.5480121
   9.1154304  24.1126810  11.8824736  11.4144391  33.5905734  19.9194492
  10.5640021  33.7277448  20.0552137  11.5772518  32.8569512  20.3642194
  11.3128254  33.5019835  20.0050091  10.6529141  30.5405503  14.1148097
   9.8221071  30.7079321  13.9083345  10.5980658  30.1641454  14.8996982
  10.5218556  30.5095235  14.1996625   8.4612924  24.0314396  19.7504507
   9.0865628  23.4876529  20.0233940   8.0063404  23.5509314  19.1812298
   8.4861185  23.8803878  19.7066101   9.0265185  28.8161095   4.6438214
   9.1668146  29.3133559   5.3466856   9.5247718  28.1147389   4.7852428
   9.1206266  28.7863074   4.7689793   9.0565407  29.6828206   1.9730791
   9.6910487  30.2788631   1.9080253   9.1391018  29.3831664   2.7876661
   9.1621958  29.7269114   2.0833878  22.0347973  32.2143683  14.8417155
  22.6265813  32.8540934  14.8735353  22.4706968  31.5166720  15.1309222
  22.1866404  32.2062034  14.8897988  10.6344390  25.6142181   1.9476233
  10.9560231  25.1345264   1.2935495  10.8971334  26.4241828   1.7567045
  10.7210416  25.6632079   1.8231725  13.8641363  36.6361056  15.4675049
  13.3566454  37.1896903  15.9115680  13.5668009  36.6969346  14.6493824
  13.7446248  36.7267367  15.4123506  16.0303545  25.0014375  14.3099712
  16.4558617  24.5486902  13.6983239  15.4160538  24.4474446  14.5864500
  16.0032191  24.8528352  14.2604737   5.5618395  31.8796047   5.2420337
   6.0710625  32.4760554   5.6231643   6.0352668  31.6122020   4.5596757
   5.7061771  31.9281862   5.1974860  16.4749143  40.5524314   3.3978993
  15.7578453  40.3785176   2.9326230  17.1255881  40.3176886   2.8654479
  16.4650994  40.4920106   3.2508211  14.4697768  21.4729475   7.7190289
  13.8266086  21.3227122   8.2875428  14.1297175  21.2271820   6.9539394
  14.3242845  21.4141598   7.6893304  19.0597114  29.4288902   7.1420298
  18.3888304  29.9718604   7.0133363  19.7536865  29.8983757   6.9001993
  19.0625982  29.5787173   7.0875826  13.1083848  41.5685614  12.3732056
  12.8849503  40.8104443  12.7416082  12.6193692  41.5983635  11.6512496
  13.0027297  41.4607839  12.3208797  19.2225242  25.8844786  10.0510671
  19.5752852  25.4574509  10.7256470  18.3640043  25.7995629  10.1811747
  19.1474687  25.8089526  10.1705681   7.9208927  28.5152305   8.1093518
   7.2020916  28.9316438   8.3766381   8.2921289  29.0806544   7.5585156
   7.8700859  28.6601587   8.0676325  17.2208508  29.1480154  13.9995513
  17.2006435  28.9663449  14.8530292  17.2687708  30.0192173  13.9755097
  17.2243149  29.2496693  14.1218808  15.1654838  35.7367346  19.9243990
  15.1250692  35.0917023  19.3389146  15.9778156  35.6803964  20.2369402
  15.2797991  35.6326313  19.8840939  11.7562305  41.7886072   9.8269141
  11.3422704  41.1260202   9.4372982  12.4409679  41.9363931   9.3064835
  11.7960677  41.7126730   9.6925638  15.1227599  40.9476157  10.5792757
  14.7243883  41.0578428   9.8113578  14.5078819  41.1558224  11.1619317
  14.9726489  40.9949725  10.5524057  13.6955501  27.5550305   3.4466897
  13.1020341  27.8767302   2.8951464  13.7330779  26.7091401   3.2388003
  13.6129890  27.4774634   3.3349668  20.6549302  21.0063198  10.9794984
  20.1480167  20.2992337  10.9116161  21.4516736  20.6756386  11.1096060
  20.6976541  20.8536349  10.9893978  16.5713318  27.5129810   6.8768647
  16.3427011  27.5362511   6.0347005  16.8311394  26.6887277   6.9963658
  16.5759506  27.3945890   6.7693845  10.8532546  29.3664283  16.4793747
  10.3411449  28.7585466  16.8378779  10.6812042  30.0820875  16.9467723
  10.7522183  29.3827582  16.6009971   5.6998261  27.8101858  19.1296109
   5.5300851  28.4703233  18.5844316   5.2564211  28.0208419  19.8508598
   5.6097595  27.9387840  19.1557739   9.6258080  26.0506356   8.1722843
  10.1015447  26.4123436   7.5373024   9.1246680  26.7062824   8.4522986
   9.6223439  26.2000545   8.1199584  22.8569442  35.5228124   3.9635848
  23.2403048  36.2719480   4.1933945  22.0613555  35.7693944   3.7047837
  22.7963224  35.6697818   3.9593422  14.7301617  27.2888527  18.9196003
  15.2873047  27.0602337  18.2874468  14.4062682  28.0494193  18.6431215
  14.7648027  27.3672364  18.7852500   2.6000326  30.7148724  14.3884599
   2.0527045  30.0449369  14.5065467   3.3892704  30.3478572  14.4528066
   2.6352509  30.5613710  14.4153300  12.4484734  30.3756181  19.8848010
  13.1996061  30.6907858  20.1987564  12.6407310  30.1735352  19.0581932
  12.5876148  30.3923563  19.8091406  11.6684734  28.1947556   1.5396227
  12.0483698  28.2127185   0.7547342  10.9277330  28.6401545   1.4187074
  11.6153571  28.2629330   1.4059795  19.2970024  26.5029747   7.1271806
  19.2964251  26.3478404   7.9856082  19.0926204  27.3492734   7.0713191
  19.2669802  26.6050368   7.2459745   1.3587295  29.9269531  11.5430622
   1.1809056  29.4746140  12.2685538   1.0706317  30.7295693  11.7269100
   1.2900248  29.9792089  11.6774125  17.0210876  31.1827249  10.7808012
  17.5164541  30.4650244  10.7412033  16.2110652  30.8798047  10.6662499
  16.9754769  31.0324895  10.7581738  12.4669488  35.0325062   2.9305017
  11.6580810  34.7091736   2.8838326  12.9744397  34.3258284   2.8633266
  12.4219154  34.8806378   2.9135311   3.0959765  32.4597255   8.6552381
   2.2305284  32.4482946   8.5435152   3.1958581  32.2727478   9.5023520
   2.9833932  32.4303316   8.7641326  19.0862695  33.9330936  13.4685141
  19.5117767  33.4105358  12.9155566  18.7219615  34.5311774  12.9473764
  19.0949298  33.9441163  13.3094151   8.7216775  42.2295154  12.2282487
   9.0363334  43.0431542  12.2360268   9.1310188  41.8445373  12.8964646
   8.8284873  42.2923856  12.3286578  15.6741294  37.6465201   9.7986299
  16.1452473  38.3605463   9.9676284  16.0101473  37.0463951  10.3346168
  15.7936409  37.6636665   9.9018675  17.7618279  39.2566514  21.9778371
  17.8715245  38.4675075  22.3335118  18.0909176  39.1672450  21.1752709
  17.8270685  39.1272367  21.9120761  12.5910789  22.4192671  16.7544393
  12.7238695  21.6223665  17.0825369  12.9755942  22.9459074  17.3342669
  12.6667118  22.3792588  16.8887896  16.3115241  37.4383135  16.5613991
  15.7636187  36.8141018  16.2934057  16.7728269  37.6277407  15.8458071
  16.2982450  37.3742185  16.4164422  15.6643145  19.3422997  13.3525487
  14.8589108  19.2320727  13.6693325  15.5349880  19.4435453  12.4955353
  15.5263277  19.3406667  13.2733527  19.1209105  25.5068489  13.9465184
  18.5372094  26.0077696  13.5342751  19.4413399  24.9998045  13.3129507
  19.0822280  25.5060324  13.7923691  11.6603904  24.4209084   4.2223858
  12.4819599  24.5907397   3.9805553  11.1973555  24.5756345   3.4990156
  11.7135067  24.4690817   4.0795503  10.2499236  22.4151846  15.0022287
  10.7943649  22.0742973  15.5926629  10.3036172  23.2737308  15.1443572
  10.3388356  22.4907106  15.1104161   6.0629795  36.1768262  11.8761095
   6.6674652  36.1364096  11.2474916   5.8557107  37.0239414  11.9065151
   6.1218692  36.2956265  11.7877212  15.8773567  38.4434207  13.0923333
  16.6971941  38.2997174  13.3539628  15.5967645  39.0680406  13.6339770
  15.9570310  38.5144560  13.2111272   1.2981077  35.1602880  11.7460018
   1.2005355  34.3499151  12.0550075   2.0809947  35.1394673  11.3606286
   1.3997214  35.0369970  11.7346881  25.5486902  45.1874710  10.8119139
  24.6924798  45.3483208  10.8628256  25.5954556  44.3166774  10.8324200
  25.4286014  45.0825512  10.8225205  28.3938723  47.2466754  13.4550791
  28.9394683  47.9251841  13.5144761  28.3355600  47.1054215  12.5952372
  28.4654638  47.3258756  13.3362852  17.0067930  42.9261837  11.3655785
  16.3872962  42.3354485  11.1965800  16.9051794  43.5173273  10.7320108
  16.9005605  42.9265920  11.2460774  22.2762689  40.0353776   9.7809522
  21.9466019  40.4864919   9.1113221  21.6007691  39.9569939  10.3282529
  22.1273125  40.0904911   9.7632746  29.4839097  36.0239299   8.0259133
  29.1692538  36.7142777   8.4579555  28.9666039  35.9684081   7.3244634
  29.3603567  36.1174187   7.9856082  20.4818643  38.0966064   5.2632470
  21.2364611  38.4644381   5.0249520  20.3046178  38.4705619   6.0311650
  20.5673122  38.2064252   5.3417359  33.7753542  44.2460505  13.3080010
  32.9381963  44.3162692  13.5427604  33.7441773  44.2485000  12.4354312
  33.6471824  44.2570732  13.2139557  20.1718271  46.3893540  19.0228378
  20.3438775  46.2799435  19.8713660  20.7087628  47.0347946  18.7859570
  20.2763275  46.4685542  19.1133475  24.5175427  37.5062794   4.9959607
  25.2461587  37.3278749   4.5497763  24.6070320  38.3480874   5.2066785
  24.6382089  37.6046672   4.9613125  31.4561382  39.3103286  11.8923732
  32.0987290  39.3801391  12.4785647  31.7084402  38.6432509  11.3903274
  31.5883514  39.2229635  11.9051011  19.2278594  42.5203850  16.5048306
  18.5350391  42.0500829  16.7509037  19.8438922  42.2942154  17.0790013
  19.2163124  42.4170982  16.6257458  26.2547895  49.8688542  17.4509395
  26.8286757  49.2315786  17.6057959  26.1762699  49.8692625  16.5819052
  26.3281130  49.7753653  17.3455806  26.6912664  40.4040258   9.6034685
  25.9868991  39.9149443   9.7618604  26.7397639  40.4162732   8.7323129
  26.5942716  40.3329906   9.4974025  20.5846326  45.8549570   9.9895487
  20.0095917  46.0141738  10.6259448  20.2082003  45.2184979   9.5263938
  20.4449139  45.7847383  10.0150045  24.2519615  44.3272919  14.8487865
  23.8634048  43.9027137  14.1940057  23.5874313  44.5755069  15.3564892
  24.0966543  44.3011640  14.8275733  28.0745976  38.0247548  12.3611850
  28.4556488  37.3425719  12.7479724  27.2709261  37.7357150  12.1787514
  28.0122438  37.8814596  12.3915906  31.5768043  51.2397520  17.4594248
  31.3406681  50.4085584  17.3406309  32.2211272  51.1883127  18.0449092
  31.6362714  51.1095208  17.5280142  22.0337817  40.5301746  22.2274458
  21.7191258  41.3001309  21.9644021  21.7127749  39.9672002  21.6426685
  21.9396736  40.5612015  22.1015808  19.5869714  38.9192267   7.8420654
  18.7192139  38.9914867   7.9078264  19.8744918  39.7214346   8.0308629
  19.5009462  39.0486415   7.8795421  28.7102603  39.0670127  16.1731976
  29.4556195  38.8779937  15.7595402  28.2939907  39.5928365  15.6145833
  28.7587577  39.1172272  16.0296549  29.7893280  44.6775689  10.2342077
  29.4458045  43.9566024  10.5849327  29.8886322  44.4689540   9.3920436
  29.7535322  44.5399892  10.1613757  21.6654322  43.1298997  20.9659673
  20.8554098  43.4356777  20.8549515  22.1429009  43.8504579  21.0812257
  21.6157801  43.2813598  20.9666744  17.5137066  42.3950527   5.2837531
  17.2261862  42.0251797   4.5469478  18.2007534  42.8645382   5.0221236
  17.5725963  42.4097496   5.1352606  28.3084245  42.5967274  12.1101620
  27.4695346  42.6228553  11.8739884  28.3788612  43.2438009  12.6906967
  28.1952639  42.6963400  12.1610737  26.7553523  39.4952651   6.8429236
  27.4579876  39.2960399   6.3649194  26.4897712  38.7228593   7.1498080
  26.8200156  39.3515617   6.8174678  15.0865260  43.1731739   6.1322812
  15.1881397  43.9757901   6.4603787  15.8821147  42.9719075   5.8345892
  15.2193166  43.2617638   6.1358167  21.5182080  40.7587936  15.8960117
  21.3265277  40.7743070  16.7459540  22.3680675  40.9551610  15.8726772
  21.6157801  40.7902287  16.0183412  15.9028993  43.2878917  13.8743933
  15.7614484  42.4362858  13.9988441  16.1869556  43.3307578  13.0506139
  15.9236839  43.1678667  13.7711557  28.2893719  48.1325742  18.0597584
  28.2841757  47.2605559  18.0640011  28.9954713  48.3313911  17.5867040
  28.3938723  48.0329617  17.9904620  22.0164612  47.8602726  17.4311405
  22.1607988  48.4403934  16.7954515  22.3640261  48.2379023  18.1361259
  22.0892074  48.0023430  17.4410400  24.1884530  47.0592895  15.2136536
  23.4407844  47.2523909  14.8084814  24.3426055  46.2338114  14.9760657
  24.1006957  46.9658006  15.1181942  24.4286307  40.9543445  16.1031940
  24.8858921  41.6867420  16.2304732  24.5042635  40.5309911  16.8619196
  24.5077276  41.0000683  16.2333016  16.6719298  41.2009265  17.1921384
  16.1361487  40.5889623  17.5082151  16.7337063  41.7757401  17.8455050
  16.6014930  41.1956193  17.3356810  28.9013633  34.1333321   9.9725783
  29.0197201  34.5909784   9.2393086  28.7275808  33.3278582   9.6862000
  28.8932803  34.0827093   9.8226716  22.3068684  42.9445549  12.9473764
  21.5164759  42.7637009  13.2691100  22.7029307  42.1672502  12.9304058
  22.2485561  42.8033010  12.9926312  24.8206515  45.4205808  17.4297263
  24.7565656  46.2815765  17.3017400  24.9603703  45.1037802  16.6292814
  24.8321985  45.5005975  17.2925476  23.5025609  48.1137948  11.5713466
  23.0787858  48.3142447  10.8352484  23.3270464  47.2666796  11.6837766
  23.4136489  48.0186729  11.4787156  26.4776468  42.8784187  15.9257102
  26.6918437  42.2395101  15.3720456  25.8610367  43.3230011  15.4964964
  26.4181797  42.8494331  15.7807533  28.6415556  44.4873252  16.8640409
  27.8292237  44.1799143  16.9453582  29.1005490  44.0072253  17.4283121
  28.5895940  44.3709745  16.9595003  25.8691196  35.9884123  10.9144445
  24.9984754  35.9622844  10.8677754  26.1231538  35.8161315  10.0970290
  25.7784756  35.9594267  10.7864582  25.7369063  45.8933324  21.6469111
  26.2068694  46.5175440  22.0336985  25.7830943  45.2250299  22.2062326
  25.8136939  45.8868004  21.7869183  22.8940337  37.9990351  12.3717915
  22.3778825  37.3070543  12.4969494  22.3334266  38.6661128  12.3180514
  22.7346850  37.9953609  12.3823981  24.9632570  38.5383311  14.2010768
  24.5764323  38.5632343  14.9824298  24.4765508  37.9724990  13.7485284
  24.8345079  38.4579062  14.2498671  30.9382550  45.1045966  12.8250470
  30.5110158  45.0172315  12.0698569  30.3008603  45.2123742  13.4105314
  30.7812157  45.1078626  12.7995911  24.6289712  35.4250297  16.4921028
  25.2582830  35.9610597  16.2142098  24.7975575  35.3327656  17.3434593
  24.7467507  35.4911659  16.5769556  24.4303627  40.2121492  18.7647439
  25.2577056  39.9406640  18.8206054  24.4511473  41.0082333  19.1211257
  24.5556477  40.2901246  18.8262622  16.4848684  44.9804891   9.7802451
  16.0905381  45.0547903   9.0052560  15.9288801  45.3662838  10.3310812
  16.3451496  45.0486666   9.7470110  28.1213630  37.9586185   9.4606329
  28.3263224  37.8908493  10.3063327  27.7940054  38.7645007   9.3927507
  28.1028878  38.0672126   9.5765985  22.8189782  45.2866754  11.2015297
  22.5152919  44.7322742  11.8025705  22.1169202  45.4658964  10.7143332
  22.6705991  45.2311536  11.2185003  21.8755879  42.5967273   5.7659999
  22.1515613  41.8786186   5.3537567  22.4754548  43.1952193   5.5581105
  22.0049143  42.5787644   5.6740760  31.3747318  38.5117950   8.9409095
  30.7621632  38.9988352   9.3262827  31.4711493  37.8361440   9.4846746
  31.2985216  38.4836258   9.0787953  19.2942547  40.9131114  14.0377350
  19.7544029  40.9870044  14.7752474  19.3398654  41.7112368  13.6877172
  19.3693103  41.0425261  14.0950107  20.9425897  41.5797809  18.6049377
  20.5511462  40.9331156  19.0405155  21.1111760  42.1709245  19.2243633
  20.9096807  41.5712077  18.7612083  24.6358995  38.7673584  10.1783463
  23.7895040  38.9396392  10.0524813  24.6330127  37.9622928  10.5149291
  24.5106145  38.6734613  10.2094590  25.7057295  42.5448798  11.0445521
  25.2317249  42.0190560  11.5550832  26.0775431  41.9978271  10.4760382
  25.6907184  42.3864795  11.0360668  16.0830325  44.5420305  16.4129067
  16.9455938  44.4416014  16.3266396  15.7522108  43.9615014  15.8514639
  16.1615522  44.4411932  16.3174472  31.9694026  47.6051174  12.4552301
  31.7292248  46.7657589  12.4594728  32.4486033  47.6851341  13.1793075
  32.0046209  47.4932574  12.5627104  30.5745243  48.7702581  16.3386606
  31.2979442  48.3175107  16.1597626  30.3095205  49.0507246  15.5558933
  30.6426516  48.7453549  16.1965321  19.4432111  43.3662754  13.0739485
  18.8185181  43.3781146  12.4665437  19.1077706  43.8422929  13.7230725
  19.3017603  43.4381271  13.0796053  26.3564032  48.8686459  14.4881621
  25.7421025  48.3244509  14.7830256  26.8731317  48.3550695  14.0087437
  26.3419695  48.7122868  14.4605849  18.7122857  44.9755902  15.2914353
  18.8716343  44.2199226  15.6966075  18.5315750  45.5246841  15.9455091
  18.7088215  44.9449716  15.4477059  26.6543159  37.1417137  15.8465143
  26.1583721  37.3380812  15.1556709  27.4112222  37.5409806  15.6753944
  26.6929984  37.2294871  15.7185279  23.9246039  40.8159483  12.4368453
  23.9488526  40.2819596  11.7481233  24.1757513  40.3076792  13.0994044
  23.9655958  40.6620387  12.4333098  20.2047361  39.5430302  11.8174198
  20.2445733  40.0439508  12.5308905  19.3797026  39.6340695  11.5480121
  20.0886887  39.6312118  11.8824736  21.6261725  46.0590811  14.1148097
  20.7953654  46.2264629  13.9083345  21.5713242  45.6826762  14.8996982
  21.4951140  46.0280543  14.1996625  19.4345508  39.5499704  19.7504507
  20.0598211  39.0061837  20.0233940  18.9795988  39.0694622  19.1812298
  19.4593769  39.3989186  19.7066101  33.0080557  47.7328991  14.8417155
  33.5998397  48.3726242  14.8735353  33.4439551  47.0352028  15.1309222
  33.1598988  47.7247342  14.8897988  27.0036129  40.5199683  14.3099712
  27.4291200  40.0672210  13.6983239  26.3893122  39.9659754  14.5864500
  26.9764774  40.3713660  14.2604737  25.4430352  36.9914783   7.7190289
  24.7998670  36.8412430   8.2875428  25.1029759  36.7457128   6.9539394
  25.2975429  36.9326906   7.6893304  30.1957826  41.4030094  10.0510671
  30.5485436  40.9759817  10.7256470  29.3372627  41.3180937  10.1811747
  30.1207270  41.3274834  10.1705681  18.8941511  44.0337613   8.1093518
  18.1753500  44.4501746   8.3766381  19.2653873  44.5991852   7.5585156
  18.8433442  44.1786895   8.0676325  28.1941091  44.6665462  13.9995513
  28.1739019  44.4848757  14.8530292  28.2420292  45.5377481  13.9755097
  28.1975732  44.7682000  14.1218808  31.6281886  36.5248505  10.9794984
  31.1212750  35.8177645  10.9116161  32.4249319  36.1941694  11.1096060
  31.6709125  36.3721657  10.9893978  21.8265130  44.8849591  16.4793747
  21.3144033  44.2770774  16.8378779  21.6544626  45.6006183  16.9467723
  21.7254767  44.9012890  16.6009971  16.6730845  43.3287166  19.1296109
  16.5033435  43.9888541  18.5844316  16.2296795  43.5393727  19.8508598
  16.5830178  43.4573148  19.1557739  20.5990664  41.5691664   8.1722843
  21.0748030  41.9308744   7.5373024  20.0979264  42.2248132   8.4522986
  20.5956023  41.7185853   8.1199584  25.7034200  42.8073835  18.9196003
  26.2605630  42.5787645  18.2874468  25.3795265  43.5679501  18.6431215
  25.7380610  42.8857672  18.7852500  23.4217318  45.8941489  19.8848010
  24.1728645  46.2093166  20.1987564  23.6139894  45.6920660  19.0581932
  23.5608732  45.9108870  19.8091406  27.9943460  46.7012557  10.7808012
  28.4897125  45.9835552  10.7412033  27.1843235  46.3983354  10.6662499
  27.9487353  46.5510203  10.7581738  30.0595279  49.4516244  13.4685141
  30.4850350  48.9290666  12.9155566  29.6952198  50.0497082  12.9473764
  30.0681881  49.4626471  13.3094151  23.5643373  37.9377979  16.7544393
  23.6971279  37.1408973  17.0825369  23.9488526  38.4644382  17.3342669
  23.6399702  37.8977896  16.8887896  26.6375728  34.8608305  13.3525487
  25.8321692  34.7506035  13.6693325  26.5082464  34.9620761  12.4955353
  26.4995861  34.8591975  13.2733527  30.0941689  41.0253797  13.9465184
  29.5104678  41.5263004  13.5342751  30.4145983  40.5183353  13.3129507
  30.0554864  41.0245632  13.7923691  21.2231820  37.9337154  15.0022287
  21.7676233  37.5928281  15.5926629  21.2768755  38.7922616  15.1443572
  21.3120939  38.0092414  15.1104161  17.5798859  12.8754059   7.3519642
  18.2865626  12.3806090   7.4806577  17.7686795  13.3163141   6.6222300
  17.7126765  12.8672409   7.2628688  14.7191154  16.2981596   5.2433718
  14.8074499  16.1107736   6.0911928  15.1480866  15.6519025   4.8438564
  14.7953256  16.1744603   5.3105469  14.8311213  15.7290615   7.9077501
  15.6151629  15.8421462   8.2733243  14.6307807  14.9031752   8.1036187
  14.9177238  15.6237334   7.9911887  14.0482343  11.3861162   9.4464145
  13.2555324  11.7004673   9.6316765  14.1631270  11.6012630   8.6084930
  13.9477754  11.4644998   9.3502480  20.2986284  12.6590343   4.3934295
  20.0624921  11.8278408   4.2746355  20.9429513  12.6075950   4.9789139
  20.3580954  12.5288031   4.4620188  17.9222546  13.6143353   9.9201761
  18.7357411  13.3428502  10.0806893  17.7617512  13.3150893   9.1161956
  18.0192495  13.5298279   9.8247166  17.9343790  14.6749644   5.1924601
  18.5723511  14.1809839   4.8587057  17.2917882  14.6027044   4.6076828
  17.9338017  14.5908652   5.0566956  14.8605662  12.6745477   6.8584037
  14.8201516  12.0295154   6.2729193  15.6728980  12.6182095   7.1709449
  14.9748815  12.5704444   6.8180986  17.4569103  16.1944645   8.9118418
  17.5666068  15.4053206   9.2675165  17.7860000  16.1050581   8.1092756
  17.5221509  16.0650498   8.8460808  25.2437726  22.1252841  -2.2540814
  24.3875622  22.2861340  -2.2031697  25.2905380  21.2544905  -2.2335753
  25.1236838  22.0203643  -2.2434748  28.5531443  28.3939367   7.3519642
  29.2598210  27.8991398   7.4806577  28.7419378  28.8348448   6.6222300
  28.6859348  28.3857717   7.2628688  28.0889547  24.1844885   0.3890838
  28.6345507  24.8629972   0.4484807  28.0306424  24.0432346  -0.4707581
  28.1605462  24.2636887   0.2702898  16.4287887  23.4092250   0.5439401
  16.3046584  23.9954696   1.1789219  17.0806171  22.9152446   0.8451676
  16.5061536  23.4231055   0.6825330  21.4546228  26.5853967  -0.1773088
  22.0995230  26.0926410  -0.4962140  21.6948005  26.7278754   0.6492990
  21.5856813  26.5331409  -0.1023555  23.9932319  29.4308873  -0.5266196
  24.2755562  28.6360279  -0.7479440  24.7218480  29.9089461  -0.5061135
  24.1421883  29.3843470  -0.5563181  22.0360145  31.3672089  -0.7182456
  21.5187087  31.0079504  -1.3221147  22.7334536  30.8434264  -0.7076389
  22.0625726  31.2369777  -0.8052197  25.6923737  31.8166904   5.2433718
  25.7807083  31.6293044   6.0911928  26.1213450  31.1704333   4.8438564
  25.7685839  31.6929911   5.3105469  23.2594197  31.0998063   4.2251380
  22.6965032  30.6870673   4.7491041  24.0215220  31.0250969   4.6444523
  23.2888646  31.0275464   4.3644380  33.4704366  21.1838636   0.2420056
  32.6332787  21.2540823   0.4767651  33.4392597  21.1863131  -0.6305641
  33.3422648  21.1948863   0.1479604  19.8669095  23.3271672   5.9568425
  20.0389599  23.2177566   6.8053706  20.4038452  23.9726077   5.7199617
  19.9714099  23.4063673   6.0473522  18.1440964  29.2802437  -3.6626382
  18.9829863  29.5125369  -3.6152621  18.1752733  28.4106748  -3.7319347
  18.2722681  29.1859383  -3.6661737  18.7693667  29.7003312   0.6386923
  19.3091892  29.5574443   1.3090296  18.0863613  30.1000063   1.0070950
  18.7485821  29.7382983   0.7921345  25.8043796  31.2475923   7.9077501
  26.5884213  31.3606770   8.2733243  25.6040391  30.4217060   8.1036187
  25.8909822  31.1422642   7.9911887  14.1730812  25.9203603   0.7921345
  13.9069227  25.1042719   0.9512335  14.1869376  25.9656758  -0.0783140
  14.1355534  25.8060507   0.6874827  31.1512206  16.2481418  -1.1736221
  31.7938114  16.3179522  -0.5874306  31.4035226  15.5810640  -1.6756679
  31.2834338  16.1607766  -1.1608942  18.9229418  19.4581981   3.4388353
  18.2301215  18.9878961   3.6849084  19.5389746  19.2320285   4.0130060
  18.9113948  19.3549113   3.5597505  25.9614190  33.1586025   1.5543957
  25.1629435  32.9185525   1.8117825  26.4100201  33.2100417   2.3011004
  25.9088801  33.1308416   1.7028881  17.6469977  23.4247385   4.5815198
  18.3709950  23.4100416   5.0680093  17.7486114  24.1342740   4.0837166
  17.7688186  23.5272088   4.5793985  25.0214927  26.9046470   9.4464145
  24.2287907  27.2189981   9.6316765  25.1363854  27.1197938   8.6084930
  24.9210337  26.9830306   9.3502480  25.9498719  26.8066673   4.3849442
  26.5237581  26.1693917   4.5398006  25.8713523  26.8070756   3.5159099
  26.0231954  26.7131785   4.2795852  21.3062438  25.2389938  -3.5629361
  21.0481682  24.4061673  -3.5898062  21.3610921  25.4647551  -4.4036861
  21.2762216  25.1487710  -3.6909224  23.9470439  21.2651050   1.7827912
  23.5584872  20.8405268   1.1280103  23.2825137  21.5133200   2.2904939
  23.7917367  21.2389771   1.7615780  31.2718867  28.1775651   4.3934295
  31.0357505  27.3463716   4.2746355  31.9162096  28.1261258   4.9789139
  31.3313538  28.0473339   4.4620188  15.6129928  31.2059509  -1.0088665
  15.6534073  31.4774360  -1.8368885  16.1724452  31.7301417  -0.5930877
  15.7013274  31.3235264  -1.0696777  21.7288641  17.4679877   9.1614505
  21.4142082  18.2379440   8.8984068  21.4078573  16.9050133   8.5766732
  21.6347560  17.4990146   9.0355855  28.4053426  16.0048258   3.1072023
  29.1507018  15.8158068   2.6935448  27.9890731  16.5306496   2.5485879
  28.4538401  16.0550403   2.9636596  22.4338088  27.2096084   2.6037421
  21.9349782  27.9211851   2.6822310  23.2438312  27.5296750   2.5655584
  22.4794195  27.3622932   2.6093990  18.6966206  26.4719037  -3.1499858
  18.4079454  25.8456508  -2.6154130  19.5649554  26.4139324  -3.0835177
  18.7826458  26.3706581  -3.0608903  29.4844104  21.6153820  -2.8317876
  29.1408869  20.8944155  -2.4810626  29.5837146  21.4067671  -3.6739518
  29.4486146  21.4778023  -2.9046196  21.3605146  20.0677128   7.8999720
  20.5504922  20.3734908   7.7889562  21.8379833  20.7882711   8.0152304
  21.3108625  20.2191729   7.9006791  20.2196706  29.2822849  -1.8517377
  19.6977459  29.4223141  -1.1665513  20.6070726  28.5233513  -1.6615260
  20.2000407  29.1908373  -1.7216301  28.0035069  19.5345405  -0.9558333
  27.1646170  19.5606684  -1.1920070  28.0739436  20.1816140  -0.3752986
  27.8903462  19.6341531  -0.9049216  17.6949178  25.6039679   2.7699122
  18.2070275  25.8823932   2.1207882  17.4085521  26.3428973   3.1361935
  17.7284041  25.7542032   2.7289000  21.2132903  17.6966067   2.8300164
  21.0216101  17.7121202   3.6799587  22.0631499  17.8929741   2.8066818
  21.3108625  17.7280418   2.9523458  27.9844543  25.0703874   4.9937631
  27.9792581  24.1983690   4.9980058  28.6905537  25.2692043   4.5207087
  28.0889547  24.9707748   4.9244667  21.7115436  24.7980857   4.3651451
  21.8558812  25.3782066   3.7294561  22.0591085  25.1757154   5.0701306
  21.7842897  24.9401561   4.3750446  23.8835353  23.9971026   2.1476583
  23.1358668  24.1902040   1.7424861  24.0376879  23.1716245   1.9100704
  23.7957781  23.9036137   2.0521989  20.7843191  32.9883629   1.2312478
  20.9332755  32.4286545   0.5785883  21.5643193  33.0675631   1.6144997
  20.9217285  32.9169195   1.1909427  23.3096492  33.1598272   2.5096969
  23.2340163  32.4907083   3.0647757  23.2386351  33.8616060   3.0237635
  23.2877099  33.1643179   2.6673817  24.1237131  17.8921576   3.0371987
  24.5809745  18.6245551   3.1644779  24.1993459  17.4688042   3.7959243
  24.2028100  17.9378815   3.1673063  16.3670122  18.1387396   4.1261430
  15.8312311  17.5267754   4.4422198  16.4287886  18.7135532   4.7795097
  16.2965754  18.1334324   4.2696857  22.0019508  19.8823680  -0.1186189
  21.2115583  19.7015141   0.2031147  22.3980131  19.1050633  -0.1355895
  21.9436385  19.7411141  -0.0733641  24.5157339  22.3583940   4.3637310
  24.4516480  23.2193896   4.2357446  24.6554526  22.0415933   3.5632861
  24.5272809  22.4384106   4.2265523  23.1976433  25.0516079  -1.4946487
  22.7738682  25.2520578  -2.2307469  23.0221288  24.2044927  -1.3822188
  23.1087313  24.9564860  -1.5872797  28.8955130  29.1328661   9.9201761
  29.7089995  28.8613810  10.0806893  28.7350096  28.8336201   9.1161956
  28.9925078  29.0483587   9.8247166  26.1727292  19.8162318   2.8597149
  26.3869261  19.1773233   2.3060503  25.5561191  20.2608142   2.4305011
  26.1132621  19.7872462   2.7147580  28.3366380  21.4251384   3.7980456
  27.5243061  21.1177274   3.8793629  28.7956314  20.9450384   4.3623168
  28.2846764  21.3087876   3.8935050  25.4319887  22.8311455   8.5809158
  25.9019518  23.4553571   8.9677032  25.4781767  22.1628431   9.1402373
  25.5087763  22.8246135   8.7209230  24.6583394  15.4761443   1.1350815
  24.2715147  15.5010474   1.9164344  24.1716331  14.9103121   0.6825331
  24.5295903  15.3957193   1.1838718  28.9076374  30.1934951   5.1924601
  29.5456094  29.6995147   4.8587057  28.2650465  30.1212352   4.6076828
  28.9070600  30.1093960   5.0566956  30.6333374  22.0424097  -0.2409483
  30.2060982  21.9550446  -0.9961384  29.9959427  22.1501873   0.3445361
  30.4762981  22.0456757  -0.2664042  24.3240536  12.3628428   3.4261074
  24.9533654  12.8988728   3.1482145  24.4926399  12.2705787   4.2774640
  24.4418330  12.4289790   3.5109603  24.1254451  17.1499623   5.6987486
  24.9527880  16.8784772   5.7546100  24.1462297  17.9460464   6.0551304
  24.2507301  17.2279377   5.7602669  28.9630630  30.8854760   1.8329958
  29.7523008  30.5343825   1.9532039  29.1374228  31.6991148   1.5706592
  29.1050912  30.9540617   1.8117826  18.7023941  24.2963486  -1.1142253
  17.8611947  24.1967360  -0.9063359  18.9113949  25.0658966  -0.7627933
  18.6088633  24.3955529  -1.0314938  22.5140605  22.2244885  -1.8644656
  22.2103743  21.6700873  -1.2634248  21.8120026  22.4037095  -2.3516622
  22.3656815  22.1689667  -1.8474950  20.5758957  29.4394605   2.8427442
  20.4679311  29.4496668   3.7089500  20.7854738  30.2649386   2.6532396
  20.5909068  29.5635680   2.9431534  18.5932748  26.6907248   0.3049380
  18.0020682  27.3316746   0.2752395  19.3553772  27.1144865   0.2780679
  18.6181009  26.8483086   0.2964527  18.9893371  17.8509246   0.9717397
  19.4494853  17.9248175   1.7092521  19.0349478  18.6490500   0.6217219
  19.0643927  17.9803393   1.0290154  20.6376721  18.5175940   5.5389424
  20.2462286  17.8709288   5.9745202  20.8062584  19.1087376   6.1583680
  20.6047631  18.5090208   5.6952130  34.7123170  26.5213018   1.3026658
  34.7706294  26.9699666   2.0486634  34.0789638  26.9311830   0.8656738
  34.6274465  26.6486752   1.3479206  25.4008119  19.4826930  -2.0214432
  24.9268073  18.9568692  -1.5109121  25.7726255  18.9356402  -2.5899571
  25.3858008  19.3242926  -2.0299285  15.7781149  21.4798436   3.3469113
  16.6406762  21.3794145   3.2606443  15.4472932  20.8993146   2.7854686
  15.8566345  21.3790063   3.2514519  31.6644850  24.5429305  -0.6107652
  31.4243072  23.7035720  -0.6065225  32.1436857  24.6229472   0.1133122
  31.6997033  24.4310705  -0.5032850  30.2696067  25.7080712   3.2726652
  30.9930266  25.2553238   3.0937672  30.0046029  25.9885377   2.4898980
  30.3377340  25.6831680   3.1305368  15.8508611  28.3641345   1.4483296
  15.3208535  27.6733784   1.4978271  16.1233704  28.3551531   0.6196004
  15.8133333  28.2608477   1.3330712  26.0514856  25.8064590   1.4221668
  25.4371849  25.2622640   1.7170303  26.5682141  25.2928826   0.9427484
  26.0370519  25.6500999   1.3945896  25.2911153  26.8768860  -0.8434034
  24.8638761  26.2518579  -1.2768598  25.2836098  26.5943782  -0.0175027
  25.2270295  26.7421641  -0.7854206  18.4073680  21.9134033   2.2254400
  18.5667167  21.1577357   2.6306122  18.2266574  22.4624973   2.8795138
  18.4039039  21.8827847   2.3817106  26.3493983  14.0795269   2.7805190
  25.8534545  14.2758943   2.0896756  27.1063045  14.4787937   2.6093991
  26.3880808  14.1673002   2.6525326  22.0827798  26.0469173   6.8534539
  21.2323429  26.1840887   6.9892184  22.2455926  25.3132951   7.2982241
  21.9811662  25.9583274   6.9390138  21.3212549  22.9968943   1.0488143
  20.4904478  23.1642761   0.8423392  21.2664066  22.6204893   1.8337029
  21.1901964  22.9658674   1.1336672  19.1296332  16.4877836   6.6844554
  19.7549035  15.9439968   6.9573986  18.6746812  16.0072753   6.1152345
  19.1544593  16.3367317   6.6406148  32.7031381  24.6707123   1.7757202
  33.2949221  25.3104373   1.8075400  33.1390375  23.9730159   2.0649269
  32.8549812  24.6625473   1.8238035  24.5324770  29.0924495   2.4015096
  24.0249862  29.6460342   2.8455727  24.2351417  29.1532785   1.5833871
  24.4129655  29.1830806   2.3463553  26.6986953  17.4577815   1.2439759
  27.1242024  17.0050341   0.6323285  26.0843946  16.9037885   1.5204547
  26.6715598  17.3091791   1.1944784  29.8908649  18.3408225  -3.0149282
  30.2436260  17.9137948  -2.3403483  29.0323451  18.2559068  -2.8848206
  29.8158094  18.2652965  -2.8954272  27.8891915  21.6043593   0.9335560
  27.8689843  21.4226889   1.7870339  27.9371116  22.4755612   0.9095144
  27.8926556  21.7060132   1.0558855  25.8338245  28.1930785   6.8584037
  25.7934100  27.5480462   6.2729193  26.6461563  28.1367403   7.1709449
  25.9481399  28.0889752   6.8180986  21.5215954  21.8227722   3.4133794
  21.0094857  21.2148905   3.7718826  21.3495450  22.5384314   3.8807770
  21.4205591  21.8391021   3.5350018  16.3681669  20.2665297   6.0636156
  16.1984259  20.9266672   5.5184363  15.9247618  20.4771858   6.7848645
  16.2781002  20.3951279   6.0897786  25.3985024  19.7451967   5.8536050
  25.9556454  19.5165776   5.2214515  25.0746089  20.5057632   5.5771262
  25.4331434  19.8235803   5.7192547  13.2683733  23.1712163   1.3224646
  12.7210453  22.5012808   1.4405514  14.0576111  22.8042011   1.3868113
  13.3035917  23.0177149   1.3493346  23.1168141  22.8319620   6.8188057
  23.8679468  23.1471297   7.1327611  23.3090718  22.6298791   5.9921979
  23.2559556  22.8487002   6.7431453  27.6894284  23.6390688  -2.2851941
  28.1847949  22.9213683  -2.3247920  26.8794059  23.3361486  -2.3997454
  27.6438177  23.4888334  -2.3078215  29.7546103  26.3894375   0.4025188
  30.1801174  25.8668797  -0.1504387  29.3903022  26.9875213  -0.1186189
  29.7632705  26.4004602   0.2434198  28.4301687  31.7129953   8.9118418
  28.5398652  30.9238514   9.2675165  28.7592583  31.6235889   8.1092756
  28.4954092  31.5835806   8.8460808  23.2594197  14.8756110   3.6884440
  23.3922103  14.0787104   4.0165416  23.6439350  15.4022513   4.2682716
  23.3350526  14.8356027   3.8227943  26.9798648  29.8946574   3.4954038
  26.4319594  29.2704458   3.2274103  27.4411677  30.0840846   2.7798118
  26.9665858  29.8305624   3.3504469  29.7892513  17.9631928   0.8805230
  29.2055501  18.4641135   0.4682798  30.1096807  17.4561485   0.2469554
  29.7505688  17.9623763   0.7263738  20.9182644  14.8715285   1.9362334
  21.4627057  14.5306412   2.5266676  20.9719579  15.7300747   2.0783619
  21.0071763  14.9470545   2.0444207  16.7313202  28.6331701  -1.1898858
  17.3358060  28.5927536  -1.8185037  16.5240515  29.4802853  -1.1594802
  16.7902100  28.7519704  -1.2782742  11.9664485  27.6166319  -1.3199935
  11.8688763  26.8062590  -1.0109878  12.7493354  27.5958112  -1.7053667
  12.0680621  27.4933409  -1.3313072  32.7021224  32.9865185   9.1614505
  32.3874665  33.7564748   8.8984068  32.3811157  32.4235441   8.5766732
  32.6080143  33.0175454   9.0355855  32.3337730  35.5862436   7.8999720
  31.5237505  35.8920216   7.7889562  32.8112416  36.3068018   8.0152304
  32.2841209  35.7377037   7.9006791  27.3402705  33.6572704   4.1261430
  26.8044895  33.0453062   4.4422198  27.4020470  34.2320840   4.7795097
  27.2698338  33.6519632   4.2696857  36.4052471  38.3496763   8.5809158
  36.8752102  38.9738879   8.9677032  36.4514351  37.6813738   9.1402373
  36.4820347  38.3431443   8.7209230  35.2973119  27.8813736   3.4261074
  35.9266237  28.4174036   3.1482145  35.4658982  27.7891095   4.2774640
  35.4150914  27.9475098   3.5109603  35.0987034  32.6684931   5.6987486
  35.9260464  32.3970080   5.7546100  35.1194880  33.4645772   6.0551304
  35.2239884  32.7464685   5.7602669  31.6109305  34.0361248   5.5389424
  31.2194870  33.3894595   5.9745202  31.7795167  34.6272684   6.1583680
  31.5780215  34.0275516   5.6952130  30.1028915  32.0063143   6.6844554
  30.7281619  31.4625276   6.9573986  29.6479395  31.5258061   6.1152345
  30.1277176  31.8552625   6.6406148  27.3414252  35.7850605   6.0636156
  27.1716842  36.4451980   5.5184363  26.8980202  35.9957166   6.7848645
  27.2513586  35.9136587   6.0897786  34.2326781  30.3941418   3.6884440
  34.3654686  29.5972412   4.0165416  34.6171933  30.9207821   4.2682716
  34.3083109  30.3541335   3.8227943
  48.3614362  48.3614362  48.3614362 109.4712190 109.4712190 109.4712190
