ACE
  4102
  20.3672379  16.1914833  14.4617890  19.6404592  16.9531764  14.7441298
  18.7452799  16.8468336  14.1313953  20.0711008  17.9423648  14.5887169
  19.2444887  16.8180405  16.2158110  19.7341160  15.9336886  16.9148295
  18.3558765  17.7000297  16.6791560  17.9813519  18.4094461  16.0655120
  17.9001803  17.6774086  18.0544492  17.4250720  16.7191797  18.2646131
  19.0639562  17.8668300  19.0215943  19.5441931  18.8262994  18.8295240
  18.6927074  17.8455835  20.0462031  19.7879653  17.0641905  18.8813097
  16.8925216  18.7876526  18.3161100  16.5659830  19.5584547  17.4162895
  16.3993352  18.8677223  19.5540846  16.6986072  18.2107008  20.2603836
  15.4331847  19.8802836  19.9294178  15.2112503  20.5088699  19.0670229
  14.5173345  19.3996114  20.2733265  15.8431570  20.4951464  20.7306459
  23.1420959  16.6602526  37.5654882  22.6132430  16.8762159  38.2252188
  23.6645979  17.3538664  37.4855851  23.1409412  16.7945662  37.6510481
  15.0320566  20.5565742  36.3662350  14.4477782  21.0615774  36.7728213
  14.6290662  20.3308129  35.6258941  14.8859870  20.5973991  36.3167375
  19.4897781  16.8031394  34.8431270  19.7293785  17.0109378  34.0306613
  19.8113622  15.9988903  34.9520215  19.5734939  16.7145496  34.7391823
  12.7007163  14.4169282  33.8991394  11.9865340  14.1307461  34.3113827
  13.1851131  14.7565908  34.5397782  12.6666526  14.4250931  34.0547029
  19.8754481  22.9199236  34.2753202  20.2905629  22.5884260  33.5837698
  19.0446410  22.6868138  34.1473339  19.8142489  22.8370492  34.1544050
  22.5687871  19.1709795  33.4614404  22.4868033  19.2411982  34.3269391
  23.2067591  19.7339539  33.2698144  22.6507708  19.2648766  33.5604353
  19.6727981  19.1930249  36.4723010  20.4868620  19.4845142  36.3605782
  19.6087122  18.5390112  35.8981303  19.7830720  19.1395444  36.3711848
  16.1838704  17.8854057  35.9370212  16.5683857  17.6661763  36.6886757
  15.9350325  18.7117002  36.0671288  16.2040777  17.9752203  36.0671288
  21.1104003  22.4092049  31.8138815  21.8776988  22.4692174  31.4044667
  20.6635312  21.8372491  31.3295134  21.1577430  22.3328625  31.6816526
  17.1578604  18.6810816  33.2775926  17.4471128  19.4575698  33.5519500
  17.2450402  18.1699547  33.9790425  17.2132860  18.7202734  33.4218423
  21.9510223  14.0744079  37.5329612  21.4233241  14.1572823  36.8435321
  22.4105931  14.8161950  37.5294257  21.9412073  14.1964741  37.4304308
  13.9443288  12.3446598  32.5570508  13.5956092  12.9966324  33.0202057
  13.4639734  12.3303712  31.8294379  13.8213532  12.4389652  32.5181599
  14.3467419  15.8372240  35.3989129  14.9812498  16.4332665  35.3338591
  14.4293030  15.5375698  36.2134999  14.4523970  15.8813148  35.5092216
  18.9857513  13.7094339  36.8725235  18.3922352  14.0311336  36.3209802
  19.0232791  12.8635435  36.6646341  18.9031902  13.6318667  36.7608006
  16.9586745  14.3491590  34.9654565  17.3385710  14.3671219  34.1805680
  16.2179341  14.7945579  34.8445412  16.9055583  14.4173364  34.8318133
  17.7571499  21.1869096  36.3563355  16.9482822  20.8635769  36.3096664
  18.2646408  20.4802318  36.2891603  17.7121166  21.0350412  36.3393649
  13.9448294   2.2974285  26.9354756  13.1931193   1.9189823  26.7070801
  14.3934306   2.3292719  26.1873566  13.8997961   2.2459892  26.7912258
  19.3973254   2.7199655  22.3640303  19.0624622   3.3976576  21.9284525
  19.9100124   2.3304966  21.7757174  19.4238835   2.7624233  22.2127094
  18.9377545   4.6713923  28.3051414  19.3216924   5.2400822  27.7656189
  18.8736686   3.9463434  27.8257230  18.9850972   4.6489387  28.1545277
  15.3633790   7.2270266  30.6032384  16.0071245   7.6683431  30.9928542
  15.6890045   6.4223693  30.5162643  15.5065618   7.1735461  30.6477861
  16.0654369   0.2382241  25.9752246  16.3870210   0.7787449  25.3713554
  16.7126466  -0.3320987  26.1074536  16.2080425   0.2341416  25.9059281
  16.1612771   3.0437064  24.9442629  16.4511069   2.6526045  24.2201855
  16.8916252   3.2253769  25.3847904  16.3119655   3.0130878  24.9025436
  14.1018687   5.0204446  28.0102778  13.8818982   4.7301801  28.8029445
  13.8813209   4.3619401  27.4820691  14.0366281   4.8804155  28.0491687
  16.2686642   6.3933836  26.7933471  16.9210700   5.8610278  27.0224497
  15.5712251   6.0402488  27.1801345  16.2617360   6.2623359  26.8845639
  20.7333139   1.6577034  25.5601529  20.4919815   0.9244895  25.1528594
  20.9134472   2.2063891  24.9067863  20.7240763   1.6299425  25.4031752
  18.2836167   2.3157997  26.7678913  19.0486058   2.0467641  26.4461577
  18.1814257   1.8308007  27.4848976  18.3817662   2.2047562  26.8258740
  17.5093900   0.9502091  23.5173214  17.5786720   0.0916630  23.6566215
  18.2882355   1.1673972  23.1892239  17.6346750   0.8554955  23.4890371
  21.9001387   3.3739793  27.7309708  21.5081179   3.0706508  27.0132574
  22.0554460   4.2108883  27.5414661  21.8654977   3.4523629  27.5966205
  22.6691693   2.7775285  31.1639742  22.4711381   3.2666100  30.4695953
  22.0479404   2.9816527  31.7423875  22.5479257   2.8791824  31.1462965
  21.4601979   3.6446479  23.7577377  20.7431288   3.4707341  23.2924615
  22.1108716   3.4099051  23.2252863  21.4503829   3.5842271  23.6106595
  16.7415141   4.8808237  30.1867525  16.3275539   4.2182367  29.7971367
  17.4262515   5.0286096  29.6663220  16.7813512   4.8048895  30.0524023
  20.1080435   4.0398322  30.9391142  19.7096718   4.1500593  30.1711962
  19.4931654   4.2480389  31.5217702  19.9579324   4.0871890  30.9122441
  24.9180877  17.8159593  26.9354756  24.1663777  17.4375131  26.7070801
  25.3666889  17.8478027  26.1873566  24.8730544  17.7645200  26.7912258
  30.3705837  18.2384963  22.3640303  30.0357206  18.9161884  21.9284525
  30.8832708  17.8490274  21.7757174  30.3971418  18.2809541  22.2127094
  29.9110129  20.1899231  28.3051414  30.2949508  20.7586130  27.7656189
  29.8469270  19.4648742  27.8257230  29.9583556  20.1674695  28.1545277
  26.4965634  17.8277985  29.2017528  26.5975997  17.0178339  29.5114656
  25.9007379  17.7334932  28.5717207  26.4238172  17.6943013  29.1543766
  26.3366373  22.7455574  30.6032384  26.9803829  23.1868738  30.9928542
  26.6622629  21.9409001  30.5162643  26.4798202  22.6920769  30.6477861
  19.6930678  13.8498272  28.8269862  19.4580862  13.0165924  28.7202131
  19.8316319  14.1302937  28.0131063  19.6786340  13.7681775  28.6912217
  21.9920765   6.0184002  31.7254169  21.3725797   5.4276650  31.5564184
  21.8904629   6.6095438  31.0918493  21.8858441   6.0188085  31.6059159
  27.0386953  15.7567549  25.9752246  27.3602794  16.2972757  25.3713554
  27.6859049  15.1864321  26.1074536  27.1813008  15.7526724  25.9059281
  29.0888661   7.7583544  26.0586633  29.7868826   7.9371672  26.5508096
  29.4040994   7.2353884  25.4357022  29.2383998   7.7077316  26.0388643
  21.7189898   9.5636284  33.9697738  21.5948595  10.1498730  34.6047557
  22.3708183   9.0696480  34.2710013  21.7963548   9.5775089  34.1083668
  29.2776596  14.1453989  26.0466424  29.7170232  13.5371090  26.4921197
  29.1281259  13.7661363  25.2751889  29.3198062  13.9992460  25.9985591
  26.7448239  12.7398001  33.2485249  27.3897242  12.2470444  32.9296198
  26.9850016  12.8822788  34.0751328  26.8758824  12.6875443  33.3234783
  29.2834331  15.5852907  32.8992142  29.5657574  14.7904313  32.6778898
  30.0120491  16.0633494  32.9197203  29.4323894  15.5387504  32.8695157
  27.2615525   3.1275941  30.1407907  26.9318855   3.5787084  29.4711606
  26.5860526   3.0492104  30.6880914  27.1125961   3.1827076  30.1231130
  32.8785933  12.4981170  22.9997193  32.7937228  13.3542137  23.1446762
  33.3670316  12.2225495  23.6679352  32.9374830  12.5838492  23.1199275
  33.8104366   9.1165965  24.4994928  33.2815838   9.3325598  25.1592235
  34.3329386   9.8102103  24.4195898  33.8092819   9.2509102  24.5850528
  25.7003974  13.0129181  23.3002396  25.1161189  13.5179213  23.7068260
  25.2974069  12.7871568  22.5598988  25.5543278  13.0537430  23.2507422
  21.2548003  18.7283943  30.1026068  20.7715581  19.4534432  30.0785651
  22.0671321  19.0260073  30.2136226  21.3038750  18.8786296  30.1153347
  27.3262157  17.5216123  32.7075882  26.8089098  17.1623538  32.1037190
  28.0236548  16.9978298  32.7181948  27.3527738  17.3913811  32.6206141
  30.1581188   9.2594834  21.7771317  30.3977192   9.4672817  20.9646660
  30.4797029   8.4552342  21.8860261  30.2418346   9.1708935  21.6731870
  24.1092200  19.2440118  30.2546348  24.8112779  18.7292108  30.3119104
  24.0289683  19.5714270  31.0593223  24.2015960  19.2154345  30.3819140
  23.8228543   3.5958548  22.3208968  23.6404117   3.8130429  21.4949961
  24.6854156   3.7097561  22.3767582  23.9233133   3.6448446  22.2063455
  23.4342975  15.4346470  29.7631956  24.2731875  15.6669403  29.8105717
  23.4654744  14.5650782  29.6938991  23.5624693  15.3403417  29.7596600
  24.0595678  15.8547346  34.0645261  24.5993903  15.7118477  34.7348634
  23.3765625  16.2544096  34.4329288  24.0387832  15.8927017  34.2179683
  33.4836563  11.5338346  29.2590286  34.2394078  11.9669861  29.2979194
  33.5898888  10.8843116  29.8324922  33.6106734  11.5015830  29.3488311
  19.4632823  12.0747636  34.2179683  19.1971239  11.2586753  34.3770673
  19.4771387  12.1200792  33.3475198  19.4257546  11.9604541  34.1133165
  23.3690570   6.8732721  20.8331441  22.6548747   6.5870900  21.2453873
  23.8534539   7.2129347  21.4737828  23.3349934   6.8814371  20.9887076
  30.5437888  15.3762675  21.2093249  30.9589037  15.0447699  20.5177745
  29.7129818  15.1431577  21.0813386  30.4825897  15.2933931  21.0884097
  19.8726237  12.8606416  31.4991427  19.6901810  12.8353302  30.6463719
  20.6075906  13.3305354  31.5380336  19.9540301  12.9267778  31.3789346
  32.9848257   9.7824494  27.1617499  33.0795111  10.5213789  27.6157124
  32.3607101   9.3541970  27.5952063  32.9057287   9.8285815  27.2925646
  19.8397147   9.7399917  31.6490494  20.4170650   9.6036367  32.2882739
  19.1411209   9.2835701  31.9036078  19.8218169   9.6522183  31.7812783
  33.2371278  11.6273234  20.3954451  33.1551441  11.6975421  21.2609438
  33.8750999  12.1902978  20.2038191  33.3191116  11.7212205  20.4944400
  26.5964450  11.3933972  29.8628977  26.3383694  10.5605707  29.8360276
  26.6512932  11.6191585  29.0221477  26.5664227  11.3031743  29.7349114
  25.5699162   8.9471735  30.3493872  24.9948753   9.1063903  30.9857833
  25.1934838   8.3107144  29.8862322  25.4301974   8.8769548  30.3748430
  15.3155981   8.5911809  28.3638312  15.4016232   8.2143678  29.1451842
  15.9431778   8.2172255  27.8858270  15.4212532   8.4797292  28.4083790
  30.3411389  11.6493689  23.4063057  31.1552027  11.9408581  23.2945828
  30.2770530  10.9953551  22.8321350  30.4514128  11.5958883  23.3051894
  26.2119297  15.1215206  28.5335369  26.8493244  14.8826954  29.0787162
  26.6374368  15.3252365  27.7988530  26.3695463  15.1166216  28.5052526
  20.9031939  17.3603543  32.4169673  20.9436084  17.6318394  31.5889452
  21.4626463  17.8845451  32.8327461  20.9915285  17.4779298  32.3561561
  26.8522112  10.3417496  22.8710258  27.2367265  10.1225203  23.6226804
  26.6033732  11.1680441  23.0011335  26.8724184  10.4315642  23.0011335
  28.5940769  15.5987629  30.2129155  28.6679777  15.4362800  31.0671005
  29.4110275  15.7877818  29.9689637  28.7257127  15.6024371  30.3027181
  22.3546525  15.9445491  27.2423599  21.5284643  16.1907229  27.1157878
  22.4158517  15.8657572  28.1085657  22.2420692  15.9690440  27.3512543
  24.5722549   2.0114432  28.2019039  23.7044975   2.0837032  28.2676648
  24.8597754   2.8136511  28.3907014  24.4862297   2.1408580  28.2393806
  27.1345354  18.5622372  24.9442629  27.4243653  18.1711353  24.2201855
  27.8648835  18.7439077  25.3847904  27.2852239  18.5316185  24.9025436
  25.0751270  20.5389754  28.0102778  24.8551565  20.2487109  28.8029445
  24.8545792  19.8804709  27.4820691  25.0098864  20.3989462  28.0491687
  23.9868217  12.6263071  30.2758480  23.6981466  12.0000542  30.8104207
  24.8551565  12.5683358  30.3423161  24.0728469  12.5250615  30.3649435
  27.2419226  21.9119144  26.7933471  27.8943284  21.3795586  27.0224497
  26.5444835  21.5587796  27.1801345  27.2349944  21.7808667  26.8845639
  24.1900491  14.2658322  26.2000845  24.9446459  14.6471361  26.4136308
  23.5971103  14.7169465  26.6547542  24.2137204  14.3887149  26.2983724
  35.2359144  14.2323558  26.1364450  35.8017177  14.8916768  26.0522993
  34.5887048  14.5773256  26.6080852  35.2237901  14.3805499  26.1937207
  25.5098717  15.4366883  31.5740961  24.9879471  15.5767175  32.2592825
  25.8972738  14.6777547  31.7643078  25.4902418  15.3452407  31.7042037
  22.4989901   5.4872692  25.6435915  22.2114697   5.1173962  24.9067863
  23.1860370   5.9567547  25.3819620  22.5578799   5.5019661  25.4950991
  31.7065722  17.1762342  25.5601529  31.4652398  16.4430203  25.1528594
  31.8867055  17.7249199  24.9067863  31.6973346  17.1484733  25.4031752
  26.9365043  12.4670902  26.9722452  26.7407826  13.0745637  26.3782755
  27.1599388  11.7738846  26.4914126  26.9399684  12.4548428  26.8138532
  25.3343573   9.3525640  27.0903320  26.0566225   9.5166798  26.6307126
  24.8551566  10.0735305  26.9842660  25.3707304   9.4823870  27.0068934
  22.9851190  11.7583712  36.1957460  23.4972287  12.0367966  35.5466220
  22.6987532  12.4973006  36.5620273  23.0186053  11.9086066  36.1547338
  20.0718096   6.2653904  26.4921196  20.1734232   7.0680066  26.8202172
  20.8673983   6.0641240  26.1944277  20.2046002   6.3539803  26.4956552
  31.0420420   8.2168173  28.3786806  30.7955135   8.1363924  29.2123595
  31.3705543   7.4321640  28.1849334  31.0541664   8.0894438  28.4734329
  26.0745203  19.1427663  34.6570816  26.2234766  18.5830579  34.0044221
  26.8545205  19.2219665  35.0403335  26.2119296  19.0713229  34.6167765
  29.2568750  17.8343305  26.7678913  30.0218641  17.5652949  26.4461577
  29.1546840  17.3493315  27.4848976  29.3550246  17.7232869  26.8258740
  31.7787411  14.8655489  18.7478862  32.5460396  14.9255614  18.3384714
  31.3318720  14.2935930  18.2635181  31.8260838  14.7892064  18.6156573
  32.6765206  13.6710144  31.0331595  32.0010208  13.4395377  31.5344982
  32.6857582  13.0631327  30.4073700  32.5783711  13.5469070  31.0147747
  34.6781941  16.5275277  23.2641772  34.7601778  17.3342263  22.9403223
  35.1631683  16.5471236  23.9882546  34.7619099  16.6495939  23.3228671
  28.4878444  11.2060113  31.9311850  28.0640693  11.4064612  31.1950869
  28.3123299  10.3588961  32.0436150  28.3989325  11.1108894  31.8385541
  23.7760889  11.7012164  27.3639823  23.9325508  11.6358967  28.2195815
  24.1161482  12.4760717  27.1518503  23.8494124  11.8061362  27.4594417
  30.3140034  11.0770048  26.2333186  30.8555579  10.5740429  26.6971807
  30.6286593  11.0235242  25.4222671  30.4404431  10.9949469  26.1816998
  28.4826483  16.4687399  23.5173214  28.5519304  15.6101938  23.6566215
  29.2614939  16.6859280  23.1892239  28.6079333  16.3740263  23.4890371
  32.8733971  18.8925101  27.7309708  32.4813763  18.5891816  27.0132574
  33.0287043  19.7294190  27.5414661  32.8387561  18.9708937  27.5966205
  20.3495151   8.8847115  27.6800590  20.7294115   9.3031660  27.0160857
  19.7750515   9.4660570  27.9869433  20.3206475   9.0324973  27.6277331
  33.0373646  15.4575089  27.6715738  32.6788300  15.6289732  28.4479770
  32.5512357  15.9188295  27.1143737  32.9132343  15.5514060  27.7041007
  27.8262011  11.1374255  20.2115972  28.1154536  11.9139137  20.4859547
  27.9133810  10.6262986  20.9130472  27.8816267  11.1766173  20.3558470
  23.9925952  10.4507519  32.3116085  23.1513959  10.3511394  32.5194978
  24.2015960  11.2203000  32.6630405  23.8990645  10.5499563  32.3943399
  21.4701519   8.0727056  30.1400835  21.0758217   8.1470068  29.3650945
  20.9141636   8.4585003  30.6909197  21.3304331   8.1408831  30.1068495
  27.8042617   8.3788919  31.5613682  27.5005755   7.8244907  32.1624090
  27.1022038   8.5581129  31.0741716  27.6558827   8.3233701  31.5783388
  26.8608714   5.6889438  26.1258384  27.1368448   4.9708351  25.7135951
  27.4607383   6.2874358  25.9179490  26.9901979   5.6709809  26.0339145
  25.8660968  15.5938639  36.2685780  25.7581323  15.6040701  37.1347838
  26.0756749  16.4193420  36.0790734  25.8811079  15.7179714  36.3689871
  23.8834760  12.8451282  33.7307717  23.2922693  13.4860780  33.7010733
  24.6455784  13.2688899  33.7039017  23.9083021  13.0027120  33.7222865
  33.6424276  18.2960593  31.1639742  33.4443965  18.7851408  30.4695953
  33.0211987  18.5001835  31.7423875  33.5211841  18.3977131  31.1462965
  27.7032255  10.0645490  25.5049986  28.4474300  10.4519766  25.7432936
  27.8492951   9.2202915  25.6690474  27.8342840   9.9975963  25.5643956
  32.6193630   6.5307518  24.4669659  32.0916649   6.6136262  23.7775368
  33.0789338   7.2725389  24.4634304  32.6095481   6.6528180  24.3644354
  24.4284947   6.4584919  33.4337869  23.8038017   6.4703311  32.8263822
  24.0930541   6.9345094  34.0829110  24.2870438   6.5303436  33.4394438
  24.6126695   4.8010038  19.4910554  24.2639500   5.4529763  19.9542104
  24.1323141   4.7867151  18.7634426  24.4896939   4.8953091  19.4521646
  21.1410622  14.5185379  34.8741634  20.6110547  13.8277818  34.9236608
  21.4135715  14.5095565  34.0454342  21.1035344  14.4152511  34.7589050
  32.1730713  15.1011082  23.5979316  32.8964911  15.5669195  23.4543890
  31.7331304  15.1684691  22.8476913  32.2146405  15.1794918  23.4664098
  30.5813165  13.0312894  32.5824304  30.1540773  12.4062612  32.1489739
  30.5738109  12.7487816  33.4083311  30.5172306  12.8965674  32.6404132
  16.4206464  11.1913143  32.2309982  16.3149913  11.1459988  31.3662066
  15.6706684  11.5366924  32.5124267  16.2942067  11.2354051  32.1447312
  24.9850604   7.4268568  25.0036599  25.1253565   7.9241032  25.7065240
  25.4833137   6.7254862  25.1450813  25.0791685   7.3970547  25.1288178
  25.0150826   8.2935679  22.3329176  25.6495906   8.8896104  22.2678638
  25.0976437   7.9939137  23.1475046  25.1207377   8.3376587  22.4432262
  26.5929809   4.2249654  22.3074618  26.9145650   3.7452737  21.6533880
  26.8556753   5.0349300  22.1165429  26.6795835   4.2739552  22.1830110
  21.5203814  10.4903520  25.6018722  22.0296044  11.0868027  25.9830027
  21.9938087  10.2229493  24.9195141  21.6647190  10.5389335  25.5573245
  32.4334562  19.1631786  23.7577377  31.7163872  18.9892649  23.2924615
  33.0841300  18.9284359  23.2252863  32.4236413  19.1027579  23.6106595
  29.0669267  20.1793087  32.7330441  28.8434922  19.4211916  33.1014467
  28.5779111  20.2091108  32.0110880  28.9612716  20.0715312  32.6807182
  23.8794346   7.1259778  28.4691902  23.1606335   7.5423911  28.7364766
  24.2506708   7.6914017  27.9183540  23.8286278   7.2709060  28.4274709
  27.7147724  20.3993545  30.1867525  27.3008123  19.7367675  29.7971367
  28.3995098  20.5471404  29.6663220  27.7546096  20.3234203  30.0524023
  31.0813018  19.5583630  30.9391142  30.6829302  19.6685901  30.1711962
  30.4664238  19.7665697  31.5217702  30.9311908  19.6057198  30.9122441
  29.6540920   6.1657778  23.8065282  29.0605760   6.4874775  23.2549849
  29.6916198   5.3198874  23.5986388  29.5715309   6.0882106  23.6948053
  32.5298737   6.1237283  27.2367032  32.3012430   6.1469984  26.3945390
  32.7896813   5.2994750  27.3562042  32.5344925   6.0053363  27.1292230
  25.5843499   4.6613829  28.5321228  26.0600866   5.0230909  27.8971409
  25.0832099   5.3170297  28.8121370  25.5808858   4.8108018  28.4797969
  27.6270153   6.8055029  21.8994612  28.0069117   6.8234658  21.1145726
  26.8862749   7.2509018  21.7785459  27.5738990   6.8736803  21.7658180
  17.3172714   8.5377004  31.9029007  17.1394475   8.0853613  32.6283922
  17.0291736   9.3403166  32.0867484  17.2485667   8.5899562  32.0372510
  28.4254907  13.6432535  23.2903402  27.6166229  13.3199209  23.2436711
  28.9329816  12.9365757  23.2231650  28.3804573  13.4913851  23.2733696
  19.0545184  11.0704728  29.0150766  18.1890703  11.0590419  28.9033537
  19.1544000  10.8834951  29.8621905  18.9419351  11.0410789  29.1239710
  24.6802194  20.8402627  32.5880871  24.9948753  21.6539015  32.5958653
  25.0895607  20.4552845  33.2563031  24.7870292  20.9031329  32.6884963
  31.6326713  16.2572674  30.1584683  32.1037892  16.9712936  30.3274669
  31.9686892  15.6571424  30.6944553  31.7521829  16.2744138  30.2617059
  27.6189323   3.0316557  24.5822243  28.4405018   3.2014870  24.3403938
  27.1558974   3.1863818  23.8588541  27.6720486   3.0798290  24.4393887
  22.0215214  14.7875735  32.2359480  22.6260071  14.7471569  31.6073301
  21.8142526  15.6346887  32.2663536  22.0804111  14.9063738  32.1475596
  31.8358986  17.0541680  33.4521717  32.6557360  16.9104646  33.7138012
  31.5553064  17.6787879  33.9938155  31.9155729  17.1252032  33.5709657
  17.2566496  13.7710353  32.1058403  17.1590774  12.9606624  32.4148460
  18.0395366  13.7502146  31.7204671  17.3582633  13.6477443  32.0945266
  34.7961127  19.1143856  22.3208968  34.6136700  19.3315737  21.4949961
  35.6586740  19.2282869  22.3767582  34.8965716  19.1633754  22.2063455
  34.3423154  22.3918029  20.8331441  33.6281331  22.1056208  21.2453873
  34.8267123  22.7314655  21.4737828  34.3082517  22.3999678  20.9887076
  26.2888564  24.1097117  28.3638312  26.3748816  23.7328986  29.1451842
  26.9164362  23.7357563  27.8858270  26.3945115  23.9982600  28.4083790
  35.5455133  17.5299740  28.2019039  34.6777558  17.6022340  28.2676648
  35.8330337  18.3321819  28.3907014  35.4594881  17.6593887  28.2393806
  33.4722485  21.0058000  25.6435915  33.1847281  20.6359270  24.9067863
  34.1592953  21.4752855  25.3819620  33.5311382  21.0204969  25.4950991
  31.0450679  21.7839212  26.4921196  31.1466816  22.5865374  26.8202172
  31.8406566  21.5826548  26.1944277  31.1778585  21.8725111  26.4956552
  31.3227734  24.4032423  27.6800590  31.7026699  24.8216967  27.0160857
  30.7483099  24.9845878  27.9869433  31.2939059  24.5510281  27.6277331
  35.5859279  20.3195346  19.4910554  35.2372083  20.9715071  19.9542104
  35.1055725  20.3052459  18.7634426  35.4629523  20.4138399  19.4521646
  32.4936398  26.0088828  25.6018722  33.0028627  26.6053335  25.9830027
  32.9670670  25.7414801  24.9195141  32.6379773  26.0574643  25.5573245
  34.8526930  22.6445086  28.4691902  34.1338919  23.0609219  28.7364766
  35.2239292  23.2099325  27.9183540  34.8018861  22.7894368  28.4274709
  30.3614085   6.3061711  15.7609909  30.1264270   5.4729363  15.6542177
  30.4999726   6.5866377  14.9471109  30.3469748   6.2245214  15.6252264
  31.9231410  11.1847382  17.0366115  31.4398988  11.9097871  17.0125698
  32.7354728  11.4823512  17.1476272  31.9722158  11.3349735  17.0493394
  34.7775607  11.7003558  17.1886395  35.4796187  11.1855547  17.2459151
  34.6973090  12.0277709  17.9933270  34.8699368  11.6717784  17.3159187
  34.1026383   7.8909910  16.6972003  34.9415282   8.1232842  16.7445764
  34.1338152   7.0214221  16.6279038  34.2308100   7.7966856  16.6936647
  34.7279086   8.3110785  20.9985308  35.2677311   8.1681916  21.6688680
  34.0449032   8.7107536  21.3669334  34.7071240   8.3490456  21.1519730
  30.1316231   4.5311076  21.1519730  29.8654646   3.7150192  21.3110720
  30.1454795   4.5764231  20.2815245  30.0940953   4.4167980  21.0473212
  30.5409645   5.3169855  18.4331474  30.3585218   5.2916741  17.5803766
  31.2759313   5.7868793  18.4720383  30.6223708   5.3831217  18.3129392
  31.5715347   9.8166982  19.3509720  31.6119492  10.0881833  18.5229499
  32.1309871  10.3408890  19.7667508  31.6598693   9.9342737  19.2901608
  33.0229933   8.4008931  14.1763646  32.1968051   8.6470668  14.0497924
  33.0841924   8.3221011  15.0425704  32.9104100   8.4253880  14.2852590
  35.7434678  12.9953193  14.9442825  35.5234973  12.7050548  15.7369492
  35.5229200  12.3368148  14.4160738  35.6782272  12.8552902  14.9831734
  34.8583898   6.7221761  13.1340892  35.6129866   7.1034800  13.3476355
  34.2654511   7.1732904  13.5887589  34.8820612   6.8450588  13.2323770
  34.5518168   5.3014721  20.6647764  33.9606101   5.9424219  20.6350779
  35.3139191   5.7252338  20.6379064  34.5766428   5.4590559  20.6562911
  31.8094030   6.9748818  21.8081681  31.2793954   6.2841257  21.8576655
  32.0819123   6.9659004  20.9794389  31.7718752   6.8715950  21.6929097
  27.0889872   3.6476582  19.1650029  26.9833321   3.6023427  18.3002113
  26.3390092   3.9930363  19.4464314  26.9625475   3.6917491  19.0787359
  29.7228591   3.5268167  15.9490813  28.8574111   3.5153858  15.8373584
  29.8227407   3.3398390  16.7961952  29.6102758   3.4974229  16.0579757
  35.3485601  13.2966066  19.5220918  35.6632160  14.1102454  19.5298700
  35.7579015  12.9116285  20.1903077  35.4553699  13.3594768  19.6225010
  32.6898621   7.2439174  19.1699527  33.2943479   7.2035008  18.5413347
  32.4825934   8.0910326  19.2003582  32.7487519   7.3627177  19.0815643
  27.9249904   6.2273792  19.0398450  27.8274182   5.4170063  19.3488506
  28.7078773   6.2065585  18.6544718  28.0266040   6.1040882  19.0285313
   4.8007835   8.9187879  26.1429954   4.7701840   9.7732516  26.3148223
   5.3989184   8.6183172  26.7016098   4.8844993   9.0004376  26.2504756
   2.6224410  11.4940181  24.4148264   2.5063936  12.2447867  24.8440402
   3.4180297  11.2364135  24.6644351   2.7228999  11.5675028  24.5152356
   1.2772149   8.8432620  24.2260289   0.7483620   9.0592253  24.8857595
   1.7997169   9.5368758  24.1461258   1.2760602   8.9775757  24.3115888
   6.7320202  14.4178924  29.5993333   5.9017905  14.6289568  29.7626750
   6.6829454  13.5915979  29.3235617   6.6026937  14.3268531  29.5830699
   3.9884517  15.0878279  29.7358049   3.5519749  15.0915021  30.4917020
   3.6547432  15.7683778  29.3037627   3.8747137  15.1890735  29.7838882
   7.1228863  11.8059199  28.6277686   7.7845297  11.2449867  28.5273595
   6.4820275  11.3111229  28.9530377   7.1257731  11.6495608  28.6610027
   3.4093694  12.8224581  28.3689675   3.6449283  12.9669780  27.5416526
   3.5583257  13.5866989  28.7621189   3.4659497  12.9563635  28.3053279
   5.2384150  11.6626247  26.2059279   5.5692368  12.1953887  25.5999374
   5.8117239  11.7165135  26.8621230   5.3717830  11.7495816  26.2137061
   0.7039061  11.3539889  20.1219811   0.6219223  11.4242077  20.9874798
   1.3418781  11.9169633  19.9303552   0.7858898  11.4478861  20.2209761
   6.3463502   6.9036744  27.7099441   6.0900067   6.0916685  27.5197323
   7.1892816   6.9114311  27.4829628   6.4329527   6.7848741  27.6484258
   2.7026927  13.9590213  25.8629811   3.2684959  14.6183423  25.7788354
   2.0554830  14.3039911  26.3346213   2.6905683  14.1072155  25.9202567
   3.8989625  14.0096441  22.6555447   3.5196433  13.2233579  22.6484736
   3.2355870  14.5583298  22.5127091   3.7448099  13.9741265  22.6336244
   2.1449723  16.2541932  22.9907133   2.2269561  17.0608918  22.6668584
   2.6299466  16.2737891  23.7147906   2.2286881  16.3762594  23.0494032
   6.2822644  13.8602252  24.0499593   6.6656249  14.6093608  24.2797690
   5.4866757  14.1068072  23.7911582   6.2216426  14.0071946  24.0457167
  15.7740419  24.4373187  26.1429954  15.7434423  25.2917824  26.3148223
  16.3721768  24.1368480  26.7016098  15.8577577  24.5189684  26.2504756
   8.9740104  23.5248838  30.8982884   8.1177999  23.6857337  30.9492001
   9.0207758  22.6540902  30.9187945   8.8539215  23.4199640  30.9088950
  11.8191925  25.5840882  33.5414536  12.3647885  26.2625969  33.6008506
  11.7608801  25.4428343  32.6816118  11.8907839  25.6632884  33.4226597
  13.5956994  27.0125489  24.4148264  13.4796519  27.7633175  24.8440402
  14.3912880  26.7549443  24.6644351  13.6961583  27.0860336  24.5152356
   5.4787319  31.0019512  25.7017606   5.8003160  31.5424720  25.0978914
   6.1259416  30.4316284  25.8339896   5.6213374  30.9978688  25.6324642
   7.5289027  23.0035507  25.7851993   8.2269192  23.1823635  26.2773456
   7.8441360  22.4805847  25.1622382   7.6784364  22.9529279  25.7654003
   7.7176962  29.3905952  25.7731784   8.1570598  28.7823053  26.2186557
   7.5681625  29.0113326  25.0017249   7.7598428  29.2444423  25.7250952
   5.7015891  18.3727904  29.8673268   5.3719221  18.8239048  29.1976966
   5.0260893  18.2944067  30.4146274   5.5526327  18.4279039  29.8496491
  11.3186299  27.7433134  22.7262554  11.2337594  28.5994100  22.8712123
  11.8070682  27.4677458  23.3944713  11.3775196  27.8290455  22.8464635
  12.9092298  14.3613427  28.1122878  12.5945739  15.0516905  28.5443301
  12.3919240  14.3058209  27.4108379  12.7856769  14.4548315  28.0719827
  12.2504732  24.3617928  24.2260289  11.7216204  24.5777561  24.8857595
  12.7729752  25.0554066  24.1461258  12.2493185  24.4961065  24.3115888
  17.7052785  29.9364232  29.5993333  16.8750488  30.1474876  29.7626750
  17.6562037  29.1101287  29.3235617  17.5759521  29.8453839  29.5830699
   4.1404340  28.2581145  23.0267757   3.5561555  28.7631176  23.4333621
   3.7374435  28.0323531  22.2864349   3.9943644  28.2989393  22.9772782
   8.5981555  24.5046797  21.5036677   8.8377558  24.7124780  20.6912020
   8.9197395  23.7004305  21.6125622   8.6818712  24.4160898  21.3997230
   3.9071845  16.4340192  25.3496215   4.6617813  16.8018509  25.1113266
   3.7299379  16.8079747  26.1175395   3.9926323  16.5438380  25.4281104
  17.2006743  22.5834633  33.3943755  16.3635165  22.6536820  33.6291349
  17.1694974  22.5859128  32.5218057  17.0725026  22.5944860  33.3003303
   2.2628909  18.8410511  22.0474328   2.0804483  19.0582392  21.2215321
   3.1254522  18.9549524  22.1032943   2.3633499  18.8900409  21.9328815
   7.9428629  15.8436922  25.0823352   8.6714789  15.6652877  24.6361508
   8.0323522  16.6855002  25.2930530   8.0635291  15.9420800  25.0476870
  11.9236929  26.7790309  28.9855646  12.6794444  27.2121824  29.0244555
  12.0299254  26.1295079  29.5590282  12.0507100  26.7467793  29.0753672
  14.9617100  30.6063587  29.7358049  14.5252332  30.6100329  30.4917020
  14.6280016  31.2869086  29.3037627  14.8479720  30.7076042  29.7838882
  14.8814583  17.6477414  31.9787477  15.5240492  17.7175519  32.5649392
  15.1337604  16.9806637  31.4767019  15.0136715  17.5603763  31.9914756
   1.8090936  22.1184684  20.5596801   1.0949114  21.8322864  20.9719234
   2.2934905  22.4581310  21.2003189   1.7750300  22.1266334  20.7152436
  18.0961447  27.3244507  28.6277686  18.7577881  26.7635175  28.5273595
  17.4552859  26.8296537  28.9530377  18.0990314  27.1680916  28.6610027
   8.9838254  30.6214638  20.9358610   9.3989403  30.2899662  20.2443105
   8.1530184  30.3883540  20.8078746   8.9226263  30.5385894  20.8149457
  14.3826277  28.3409889  28.3689675  14.6181867  28.4855088  27.5416526
  14.5315841  29.1052297  28.7621189  14.4392081  28.4748943  28.3053279
  16.2116734  27.1811555  26.2059279  16.5424951  27.7139195  25.5999374
  16.7849822  27.2350443  26.8621230  16.3450413  27.2681124  26.2137061
  11.4248623  25.0276458  26.8882859  11.5195478  25.7665752  27.3422485
  10.8007467  24.5993933  27.3217424  11.3457653  25.0737778  27.0191007
  11.6771644  26.8725197  20.1219811  11.5951807  26.9427385  20.9874798
  12.3151365  27.4354941  19.9303552  11.7591482  26.9664168  20.2209761
   5.0364816  26.6385935  29.5894337   4.7784060  25.8057670  29.5625637
   5.0913298  26.8643548  28.7486838   5.0064594  26.5483707  29.4614474
  10.1165866  18.7414386  29.6898430   9.4122193  18.2523572  29.8482349
  10.1650840  18.7536860  28.8186874  10.0195917  18.6704034  29.5837770
   4.0099528  24.1923698  30.0759232   3.4349119  24.3515866  30.7123193
   3.6335204  23.5559107  29.6127683   3.8702340  24.1221511  30.1013790
  17.3196086  22.4222052  27.7099441  17.0632650  21.6101993  27.5197323
  18.1625400  22.4299619  27.4829628  17.4062111  22.3034049  27.6484258
  11.4999178  16.3621676  32.4475595  11.8809690  15.6799847  32.8343469
  10.6962462  16.0731278  32.2651259  11.4375640  16.2188724  32.4779651
   8.7811755  26.8945652  23.1328417   9.5952394  27.1860544  23.0211189
   8.7170896  26.2405514  22.5586710   8.8914494  26.8410846  23.0317255
   4.6519663  30.3667169  28.2600730   5.2893610  30.1278917  28.8052523
   5.0774735  30.5704328  27.5253890   4.8095829  30.3618179  28.2317887
   5.2922478  25.5869459  22.5975619   5.6767631  25.3677166  23.3492164
   5.0434098  26.4132404  22.7276695   5.3124551  25.6767605  22.7276695
   3.0122915  17.2566396  27.9284399   2.1445341  17.3288995  27.9942009
   3.2998120  18.0588475  28.1172375   2.9262663  17.3860543  27.9659166
  12.1355804  17.4044255  36.2595721  12.8809396  17.2154065  35.8459147
  11.7193109  17.9302493  35.7009578  12.1840778  17.4546400  36.1160295
  19.5118075  24.7753483  31.2101226  20.0625997  24.1421553  31.4498318
  19.4962190  25.3068876  31.9016731  19.5903271  24.7602432  31.3480084
  13.2146481  23.0149817  30.3205822  12.8711247  22.2940152  30.6713072
  13.3139524  22.8063668  29.4784181  13.1788524  22.8774020  30.2477502
   2.6300857  29.5110285  25.9266206   3.3846825  29.8923324  26.1401668
   2.0371469  29.9621428  26.3812902   2.6537570  29.6339112  26.0249084
  13.6759510  29.4775521  25.8629811  14.2417543  30.1368731  25.7788354
  13.0287414  29.8225219  26.3346213  13.6638267  29.6257463  25.9202567
   0.9390267  20.7324655  25.3701276   0.6515063  20.3625925  24.6333223
   1.6260736  21.2019510  25.1084981   0.9979165  20.7471624  25.2216351
  10.1466088  32.4214305  25.2866890   9.9052764  31.6882166  24.8793955
  10.3267421  32.9701162  24.6333223  10.1373712  32.3936697  25.1297113
   5.3765409  27.7122865  26.6987812   5.1808192  28.3197600  26.1048115
   5.5999755  27.0190809  26.2179486   5.3800050  27.7000391  26.5403893
   3.7743939  24.5977603  26.8168680   4.4966591  24.7618761  26.3572486
   3.2951932  25.3187268  26.7108020   3.8107670  24.7275833  26.7334294
  11.7337447  20.9341402  32.1965365  10.8948547  20.9602681  31.9603629
  11.8041814  21.5812137  32.7770712  11.6205840  21.0337528  32.2474482
  10.1806725  17.8326779  26.9292981  10.8833078  17.6334527  26.4512940
   9.9150914  17.0602721  27.2361825  10.2453357  17.6889745  26.9038423
  15.6094970  26.1409389  29.4826607  15.5228945  26.2964815  30.3361386
  15.1545450  26.7847464  29.1086012  15.5298227  26.2585144  29.5533714
   9.4820787  23.4620136  28.1052167   9.2355501  23.3815887  28.9388956
   9.8105910  22.6773604  27.9114694   9.4942030  23.3346401  28.1999690
  13.3768835  30.1703495  31.8938948  13.2383195  30.8684541  32.3987690
  12.5968833  30.0152152  31.5375130  13.2412062  30.2503662  31.9165222
  14.8722208  29.5281749  22.6555447  14.4929017  28.7418887  22.6484736
  14.2088454  30.0768606  22.5127091  14.7180683  29.4926573  22.6336244
  12.3266834  12.4707449  30.0589528  12.4450402  12.9283912  29.3256831
  12.1529010  11.6652710  29.7725746  12.3186005  12.4201221  29.9090462
   5.7321886  21.2819677  33.0337509   4.9417961  21.1011137  33.3554845
   6.1282509  20.5046630  33.0167804   5.6738762  21.1407138  33.0790057
  10.2187777  30.1107452  18.4744223  10.9860762  30.1707577  18.0650074
   9.7719086  29.5387893  17.9900541  10.2661204  30.0344027  18.3421933
  11.1165572  28.9162108  30.7596955  10.4410574  28.6847340  31.2610342
  11.1257948  28.3083290  30.1339060  11.0184077  28.7921033  30.7413107
  13.1182307  31.7727240  22.9907133  13.2002144  32.5794226  22.6668584
  13.6032049  31.7923199  23.7147906  13.2019465  31.8947902  23.0494032
   6.9278810  26.4512076  31.6577211   6.5041059  26.6516575  30.9216229
   6.7523665  25.6040924  31.7701511   6.8389691  26.3560857  31.5650901
   2.2161255  26.9464127  27.0905183   2.3725874  26.8810930  27.9461175
   2.5561848  27.7212680  26.8783863   2.2894490  27.0513325  27.1859778
   8.7540400  26.3222011  25.9598547   9.2955945  25.8192392  26.4237167
   9.0686959  26.2687206  25.1488032   8.8804797  26.2401432  25.9082359
   6.9226850  31.7139362  23.2438575   6.9919670  30.8553901  23.3831575
   7.7015305  31.9311243  22.9157599   7.0479700  31.6192226  23.2155732
   9.9029669  21.2158315  36.0120847  10.1171639  20.5769230  35.4584201
   9.2863568  21.6604139  35.5828709   9.8434998  21.1868459  35.8671278
  12.0668757  22.8247381  36.9504154  11.2545439  22.5173271  37.0317327
  12.5258692  22.3446381  37.5146866  12.0149142  22.7083873  37.0458748
  11.4774012  30.7027053  27.3981099  11.1188667  30.8741695  28.1745131
  10.9912723  31.1640258  26.8409097  11.3532709  30.7966024  27.4306368
   9.2944398  14.3258251  31.0008190   8.4237956  14.2996972  30.9541499
   9.5484739  14.1535443  30.1834036   9.2037958  14.2968395  30.8728327
   6.2662377  26.3826218  19.9381333   6.5554902  27.1591100  20.2124907
   6.3534176  25.8714949  20.6395832   6.3216634  26.4218136  20.0823831
   6.3193538  16.3364479  32.4581660   5.8032027  15.6444671  32.5833239
   5.7587467  17.0035256  32.4044259   6.1600052  16.3327737  32.4687726
  14.3635751  23.4420094  32.9114215  13.9363359  23.3546443  32.1562315
  13.7261804  23.5497870  33.4969059  14.2065359  23.4452754  32.8859657
  11.5466832  16.2960313  29.5470075  11.7516425  16.2282621  30.3927072
  11.2193256  17.1019135  29.4791252  11.5282080  16.4046254  29.6629730
   6.2442983  23.6240882  31.2879043   5.9406121  23.0696870  31.8889450
   5.5422404  23.8033092  30.8007077   6.0959193  23.5685664  31.3048748
   5.3009080  20.9341401  25.8523744   5.5768815  20.2160314  25.4401312
   5.9007750  21.5326321  25.6444850   5.4302345  20.9161772  25.7604506
  14.8000520  16.8492078  29.0272840  14.1874833  17.3362480  29.4126572
  14.8964695  16.1735569  29.5710491  14.7238417  16.8210386  29.1651698
   8.8019601  18.6054919  24.1270339   9.2563347  18.7765479  24.8518184
   9.2759646  17.9923030  23.7268115   8.9387921  18.5405804  24.1744101
  12.0824642  33.5412556  30.8905102  11.8844331  34.0303371  30.1961314
  11.4612353  33.7453798  31.4689236  11.9612207  33.6429095  30.8728326
   6.1432621  25.3097453  25.2315347   6.8874666  25.6971729  25.4698297
   6.2893317  24.4654879  25.3955834   6.2743206  25.2427926  25.2909316
   8.0612196  17.1047712  30.2647208   7.2148241  17.2770520  30.1388558
   8.0583329  16.2997056  30.6013036   7.9359346  17.0108741  30.2958335
   9.1310497  20.8822926  31.1309266   8.6570451  20.3564689  31.6414577
   9.5028632  20.3352399  30.5624127   9.1160386  20.7238923  31.1224413
  15.3947227  25.9425302  32.5416046  15.1545450  25.1031717  32.5458473
  15.8739234  26.0225469  33.2656820  15.4299411  25.8306702  32.6490849
  11.0593996  21.7759481  24.1935020  10.5317015  21.8588225  23.5040729
  11.5189704  22.5177353  24.1899664  11.0495847  21.8980143  24.0909715
  17.3952414  22.7226759  30.4945306  17.1562184  22.6822594  29.6566090
  17.5586315  23.5697911  30.6211027  17.3842718  22.8418844  30.3898788
   3.0527061  20.0462001  19.2175915   2.7039866  20.6981726  19.6807464
   2.5723507  20.0319114  18.4899786   2.9297305  20.1405054  19.1787006
  10.6131079  30.3463045  23.3244677  11.3365278  30.8121158  23.1809250
  10.1731670  30.4136654  22.5742274  10.6546771  30.4246881  23.1929458
   9.0213531  28.2764857  32.3089664   8.5941139  27.6514576  31.8755100
   9.0138475  27.9939779  33.1348672   8.9572672  28.1417638  32.3669492
   7.3499241  19.1533611  32.5232198   7.3741728  18.6193724  31.8344978
   7.6010714  18.6450920  33.1857789   7.3909159  18.9994515  32.5196843
   3.6300563  17.8804430  31.9037943   3.6698934  18.3813636  32.6172650
   2.8050228  17.9714823  31.6343866   3.5140089  17.9686246  31.9688481
   3.4250970  22.6720531  24.7301959   3.5653931  23.1692995  25.4330601
   3.9233503  21.9706825  24.8716173   3.5192051  22.6422510  24.8553538
   3.4551192  23.5387642  22.0594536   4.0896272  24.1348067  21.9943998
   3.5376803  23.2391100  22.8740406   3.5607743  23.5828550  22.1697623
  16.4333758  26.0703119  34.9280900  17.0251599  26.7100370  34.9599099
  16.8692753  25.3726156  35.2172967  16.5852189  26.0621470  34.9761733
   5.0330175  19.4701618  22.0339978   5.3546016  18.9904700  21.3799241
   5.2957119  20.2801264  21.8430790   5.1196201  19.5191515  21.9095470
  10.4289330  18.8573812  34.3963457  10.8544402  18.4046338  33.7846984
   9.8146323  18.3033882  34.6728245  10.4017976  18.7087788  34.3468483
   8.8683553  15.3288911  27.8054034   8.2251871  15.1786558  28.3739173
   8.5282960  15.0831257  27.0403139   8.7228630  15.2701034  27.7757050
  13.4582900  23.2848338  27.2284043  12.7874090  23.8278040  27.0997108
  14.1522650  23.7543193  26.9865738  13.4611767  23.4346609  27.1739571
  13.6211027  19.7404222  30.1374416  13.9738637  19.3133945  30.8120215
  12.7625829  19.6555065  30.2675493  13.5460472  19.6648962  30.2569427
   2.3194712  22.3711741  28.1957263   1.6006701  22.7875874  28.4630126
   2.6907074  22.9365980  27.6448901   2.2686644  22.5161023  28.1540070
  11.6194293  23.0039590  34.0859258  11.5992220  22.8222886  34.9394037
  11.6673494  23.8751609  34.0618842  11.6228934  23.1056129  34.2082553
   8.0941286  21.4109741  23.5330642   7.5006126  21.7326738  22.9815209
   8.1316564  20.5650837  23.3251748   8.0115676  21.3334070  23.4213413
  15.0535087  14.8622634  31.0658729  14.5465952  14.1551773  30.9979906
  15.8502521  14.5315822  31.1959805  15.0962326  14.7095785  31.0757724
  10.9699103  21.3689246  26.9632392  10.7412796  21.3921947  26.1210751
  11.2297179  20.5446713  27.0827403  10.9745291  21.2505326  26.8557590
   4.0243866  19.9065792  28.2586588   4.5001232  20.2682872  27.6236769
   3.5232465  20.5622260  28.5386731   4.0209225  20.0559981  28.2063329
  17.2555227  29.3787560  24.0499593  17.6388833  30.1278916  24.2797690
  16.4599340  29.6253380  23.7911582  17.1949009  29.5257254  24.0457167
   6.0670519  22.0506992  21.6259972   6.4469484  22.0686621  20.8411087
   5.3263115  22.4960981  21.5050819   6.0139356  22.1188767  21.4923540
  13.6955809  20.3589183  27.2135551  13.6950036  20.2037840  28.0719827
  13.4911989  21.2052170  27.1576936  13.6655587  20.4609804  27.3323490
  11.4196661  25.0386685  30.8671758  11.9150327  24.3209680  30.8275778
  10.6096437  24.7357483  30.7526245  11.3740555  24.8884331  30.8445483
   6.8655273  28.8884498  23.0168762   6.0566596  28.5651172  22.9702072
   7.3730182  28.1817720  22.9497011   6.8204940  28.7365815  22.9999056
  13.4848480  27.7890372  33.5548886  13.9103552  27.2664794  33.0019311
  13.1205400  28.3871210  33.0337509  13.4935083  27.8000599  33.3957896
  10.0727080  31.5024637  29.8850044  10.5438258  32.2164899  30.0540029
  10.4087258  30.9023387  30.4209913  10.1922195  31.5196101  29.9882420
  13.5194890  19.3627925  34.0328929  12.9357879  19.8637132  33.6206496
  13.8399184  18.8557482  33.3993252  13.4808066  19.3619760  33.8787436
   6.0589689  18.2768520  24.3087604   6.8805384  18.4466833  24.0669298
   5.5959340  18.4315781  23.5853901   6.1120852  18.3250253  24.1659248
  16.6748474  33.8913212  29.8673268  16.3451804  34.3424355  29.1976966
  15.9993476  33.8129375  30.4146274  16.5258911  33.9464347  29.8496491
  23.8824882  29.8798735  28.1122878  23.5678323  30.5702213  28.5443301
  23.3651824  29.8243517  27.4108379  23.7589352  29.9733623  28.0719827
  14.8804428  31.9525500  25.3496215  15.6350396  32.3203817  25.1113266
  14.7031963  32.3265055  26.1175395  14.9658907  32.0623688  25.4281104
  13.2361493  34.3595819  22.0474328  13.0537066  34.5767700  21.2215321
  14.0987106  34.4734832  22.1032943  13.3366082  34.4085717  21.9328815
  18.9161212  31.3622230  25.0823352  19.6447373  31.1838185  24.6361508
  19.0056105  32.2040310  25.2930530  19.0367874  31.4606108  25.0476870
  13.9855499  32.7751704  27.9284399  13.1177924  32.8474303  27.9942009
  14.2730703  33.5773782  28.1172375  13.8995247  32.9045851  27.9659166
  21.1539308  33.3512087  26.9292981  21.8565661  33.1519835  26.4512940
  20.8883497  32.5788029  27.2361825  21.2185941  33.2075053  26.9038423
  23.2999418  27.9892757  30.0589528  23.4182986  28.4469220  29.3256831
  23.1261593  27.1838018  29.7725746  23.2918589  27.9386529  29.9090462
  20.2676981  29.8443559  31.0008190  19.3970539  29.8182280  30.9541499
  20.5217323  29.6720751  30.1834036  20.1770542  29.8153703  30.8728327
  19.7752184  34.1240227  24.1270339  20.2295931  34.2950787  24.8518184
  20.2492230  33.5108337  23.7268115  19.9120504  34.0591112  24.1744101
  19.0344780  32.6233020  30.2647208  18.1880825  32.7955828  30.1388558
  19.0315912  31.8182364  30.6013036  18.9091930  32.5294049  30.2958335
  22.0326580  37.2944789  24.1935020  21.5049598  37.3773533  23.5040729
  22.4922288  38.0362660  24.1899664  22.0228430  37.4165451  24.0909715
  16.0062759  34.9886925  22.0339978  16.3278600  34.5090008  21.3799241
  16.2689703  35.7986572  21.8430790  16.0928784  35.0376823  21.9095470
  19.8416137  30.8474219  27.8054034  19.1984455  30.6971866  28.3739173
  19.5015544  30.6016564  27.0403139  19.6961214  30.7886342  27.7757050
  21.9431687  36.8874554  26.9632392  21.7145380  36.9107255  26.1210751
  22.2029763  36.0632021  27.0827403  21.9477875  36.7690634  26.8557590
  17.0322273  33.7953828  24.3087604  17.8537967  33.9652141  24.0669298
  16.5691924  33.9501089  23.5853901  17.0853435  33.8435561  24.1659248
  15.4691243   1.3751318  13.0770001  15.4385247   2.2295955  13.2488270
  16.0672592   1.0746611  13.6356144  15.5528401   1.4567815  13.1844803
   3.0532068   9.9989687  13.5960163   2.3014967   9.6205226  13.3676208
   3.5018079  10.0308121  12.8478973   3.0081734   9.9475295  13.4517665
  11.9784644   6.7313495  27.4383387  12.6851412   6.2365526  27.5670322
  12.1672580   7.1722577  26.7086045  12.1112550   6.7231845  27.3492433
   8.5057027  10.4215057   9.0245710   8.1708396  11.0991978   8.5889932
   9.0183898  10.0320368   8.4362582   8.5322609  10.4639635   8.8732501
   8.0461319  12.3729326  14.9656821   8.4300698  12.9416224  14.4261597
   7.9820460  11.6478836  14.4862638   8.0934746  12.3504789  14.8150684
  11.5142749   2.5219013  20.4754583  12.0598709   3.2004100  20.5348553
  11.4559625   2.3806474  19.6156164  11.5858663   2.6011015  20.3566643
   4.6316824  10.0108080  15.8622935   4.7327187   9.2008433  16.1720063
   4.0358569   9.9165026  15.2322614   4.5589362   9.8773108  15.8149174
  13.2907817   3.9503621  11.3488311  13.1747343   4.7011307  11.7780449
  14.0863704   3.6927574  11.5984398  13.3912407   4.0238467  11.4492402
   4.4717563  14.9285669  17.2637791   5.1155019  15.3698833  17.6533950
   4.7973819  14.1239095  17.1768050   4.6149392  14.8750863  17.3083269
   5.1738143   7.9397644  12.6357653   5.4953984   8.4802851  12.0318961
   5.8210240   7.3694415  12.7679943   5.3164198   7.9356819  12.5664688
   7.4127786   6.3284084  12.7071831   7.8521422   5.7201184  13.1526604
   7.2632449   5.9491457  11.9357296   7.4549252   6.1822555  12.6590999
   4.8799429   4.9228095  19.9090657   5.5248432   4.4300538  19.5901605
   5.1201206   5.0652882  20.7356735   5.0110015   4.8705538  19.9840190
   7.4185521   7.7683001  19.5597549   7.7008764   6.9734407  19.3384305
   8.1471681   8.2463589  19.5802610   7.5675085   7.7217598  19.5300564
  11.0137123   4.6811265   9.6602600  10.9288418   5.5372231   9.8052169
  11.5021506   4.4055589  10.3284760  11.0726020   4.7668586   9.7804682
  11.9455556   1.2996059  11.1600336  11.4167028   1.5155693  11.8197642
  12.4680576   1.9932197  11.0801305  11.9444009   1.4339196  11.2455935
  17.4003609   6.8742363  16.5333380  16.5701312   7.0853007  16.6966797
  17.3512861   6.0479418  16.2575664  17.2710345   6.7831970  16.5170746
   5.4613347   9.7046218  19.3681290   4.9440288   9.3453633  18.7642598
   6.1587738   9.1808392  19.3787356   5.4878928   9.5743906  19.2811548
   9.1176939  10.1541032  25.3297463   9.2060285   9.9667172  26.1775673
   9.5466651   9.5078461  24.9302309   9.1939041  10.0304039  25.3969214
   6.6847398   9.4372192  24.3115125   6.1218233   9.0244801  24.8354786
   7.4468422   9.3625097  24.7308268   6.7141847   9.3649592  24.4508125
   2.2443390  11.4270213  16.9151755   2.9463969  10.9122202  16.9724512
   2.1640873  11.7544364  17.7198630   2.3367150  11.3984439  17.0424547
  16.8957567  -0.4787236  20.3283801  16.0585989  -0.4085049  20.5631396
  16.8645798  -0.4762741  19.4558104  16.7675850  -0.4677009  20.2343349
   1.5694165   7.6176565  16.4237363   2.4083065   7.8499498  16.4711125
   1.6005934   6.7480876  16.3544398   1.6975883   7.5233511  16.4202008
   2.1946868   8.0377440  20.7250669   2.7345093   7.8948571  21.3954041
   1.5116815   8.4374191  21.0934695   2.1739022   8.0757111  20.8785090
  11.6187753   3.7168441  15.9195693  12.3745268   4.1499955  15.9584602
  11.7250078   3.0673210  16.4930329  11.7457924   3.6845924  16.0093719
  14.6567924   7.5441718  16.6698096  14.2203156   7.5478460  17.4257067
  14.3230840   8.2247217  16.2377673  14.5430544   7.6454174  16.7178928
   9.2296998   9.5850051  27.9941246  10.0137415   9.6980898  28.3596988
   9.0293593   8.7591188  28.1899932   9.3163023   9.4796770  28.0775632
   9.3867391  11.4960153  21.6407702   8.5882637  11.2559653  21.8981570
   9.8353403  11.5474546  22.3874749   9.3342003  11.4682544  21.7892626
  17.7912271   4.2622638  15.5617733  18.4528705   3.7013306  15.4613642
  17.1503683   3.7674668  15.8870424  17.7941138   4.1059047  15.5950073
   8.6789078   7.5592769   7.8698656   9.0940227   7.2277793   7.1783152
   7.8481008   7.3261671   7.7418793   8.6177087   7.4764025   7.7489504
  14.0777101   5.2788020  15.3029722  14.3132690   5.4233219  14.4756573
  14.2266665   6.0430428  15.6961236  14.1342905   5.4127075  15.2393326
  15.9067558   4.1189686  13.1399326  16.2375775   4.6517326  12.5339421
  16.4800646   4.1728574  13.7961277  16.0401237   4.2059255  13.1477107
  11.1199447   1.9654589  13.8222906  11.2146302   2.7043883  14.2762531
  10.4958291   1.5372064  14.2557470  11.0408477   2.0115909  13.9531053
   9.3751921   5.1440801  24.4713187   9.9490783   4.5068046  24.6261751
   9.2966725   5.1444884  23.6022844   9.4485156   5.0505913  24.3659598
   4.7315640   3.5764067  16.5234384   4.4734884   2.7435801  16.4965684
   4.7864122   3.8021680  15.6826885   4.7015417   3.4861838  16.3954521
   8.4762579   3.8323783  10.0668464   9.2903217   4.1238676   9.9551236
   8.4121720   3.1783645   9.4926757   8.5865318   3.7788978   9.9657302
  14.6972069   6.5149779  24.4798040  14.4610706   5.6837844  24.3610101
  15.3415298   6.4635386  25.0652884  14.7566740   6.3847467  24.5483934
   4.3470487   7.3045300  15.1940776   4.9844434   7.0657048  15.7392570
   4.7725558   7.5082459  14.4593937   4.5046653   7.2996311  15.1657934
  15.7208489   6.2994228  20.5426334  15.4154306   7.0322285  20.9039650
  15.0014705   5.8932157  20.2619120  15.5695832   6.3475961  20.5539472
   6.7291959   7.7817723  16.8734563   6.8030967   7.6192895  17.7276413
   7.5461465   7.9707913  16.6295044   6.8608317   7.7854465  16.9632588
  21.4210282   2.9387228  19.8694679  21.3534782   2.9583188  18.9997265
  21.4065944   3.7817556  20.0950349  21.4089038   3.0660963  19.7747156
   5.2696545  10.7452466  11.6048036   5.5594843  10.3541447  10.8807263
   6.0000025  10.9269171  12.0453311   5.4203429  10.7146280  11.5630843
  19.2068899   1.7131615  18.1441273  19.7576820   1.0799684  18.3838365
  19.1913014   2.2447007  18.8356777  19.2854095   1.6980563  18.2820131
   5.8591290   5.5470212  22.6901167   5.3602983   6.2585980  22.7686055
   6.6691514   5.8670879  22.6519329   5.9047396   5.6997061  22.6957735
   3.2102460  12.7219848  14.6708186   2.9902756  12.4317203  15.4634853
   2.9896982  12.0634803  14.1426098   3.1450054  12.5819557  14.7097094
  12.9097305  -0.0472052  17.2545869  12.5662071  -0.7681716  17.6053119
  13.0090348  -0.2558201  16.4124228  12.8739348  -0.1847848  17.1817549
   5.3770416  14.0949238  13.4538878   6.0294474  13.5625681  13.6829904
   4.6796025  13.7417891  13.8406752   5.3701134  13.9638761  13.5451046
   2.3251681   6.4488416  12.8606252   3.0797649   6.8301455  13.0741715
   1.7322293   6.8999560  13.3152949   2.3488394   6.5717243  12.9589131
  13.3710334   6.4153652  12.7969857  13.9368367   7.0746862  12.7128400
  12.7238238   6.7603350  13.2686260  13.3589091   6.5635594  12.8542614
   3.6449907   7.6196977  18.2346368   3.1230661   7.7597269  18.9198233
   4.0323928   6.8607642  18.4248485   3.6253608   7.5282501  18.3647444
   9.8416912   9.3592437  12.2206937   9.6003588   8.6260297  11.8134002
  10.0218245   9.9079294  11.5673270   9.8324536   9.3314828  12.0637160
   5.0716233   4.6500996  13.6327859   4.8759016   5.2575731  13.0388162
   5.2950579   3.9568940  13.1519533   5.0750874   4.6378522  13.4743940
  15.3045794   3.0787520  16.4166654  15.2179769   3.2342946  17.2701433
  14.8496274   3.7225595  16.0426059  15.2249051   3.1963275  16.4873761
   9.1771610   0.3998267  15.0392213   8.9306325   0.3194018  15.8729002
   9.5056733  -0.3848265  14.8454741   9.1892854   0.2724532  15.1339737
  13.0719659   7.1081626  18.8278995  12.9334019   7.8062672  19.3327737
  12.2919657   6.9530283  18.4715176  12.9362886   7.1881793  18.8505269
  11.4097744   3.4078002  25.0801376  11.4045783   2.5357818  25.0843803
  12.1158738   3.6066171  24.6070832  11.5142748   3.3081876  25.0108412
   5.1368638   3.1354986  24.4515197   5.2812013   3.7156194  23.8158307
   5.4844286   3.5131282  25.1565051   5.2096099   3.2775690  24.4614191
   7.3088555   2.3345154  22.2340328   6.5611869   2.5276168  21.8288606
   7.4630080   1.5090373  21.9964449   7.2210983   2.2410265  22.1385734
   4.2096393  11.3257757  21.3176223   4.3585956  10.7660673  20.6649628
   4.9896395  11.4049759  21.7008742   4.3470486  11.2543323  21.2773173
  14.5673032   6.4659880   9.5895494  14.1879841   5.6797018   9.5824783
  13.9039278   7.0146737   9.4467138  14.4131507   6.4304704   9.5676291
   6.7349693  11.4972400  22.5960714   6.6593364  10.8281211  23.1511502
   6.6639552  12.1990188  23.1101380   6.7130300  11.5017308  22.7537562
   7.3919940  10.0173399  13.4284320   8.1569831   9.7483043  13.1066984
   7.2898030   9.5323409  14.1454383   7.4901436   9.9062964  13.4864148
  10.8116396   5.8540239  17.6937002  10.1361398   5.6225471  18.1950389
  10.8208772   5.2461422  17.0679107  10.7134901   5.7299164  17.6753154
   7.9410540   0.6958068  24.4501055   7.8769682   1.5568024  24.3221191
   8.0807728   0.3790061  23.6496606   7.9526010   0.7758234  24.3129268
  12.8133131   8.7105371   9.9247180  12.8952968   9.5172357   9.6008631
  13.2982873   8.7301330  10.6487953  12.8970289   8.8326033   9.9834078
   6.6229634   3.3890207  18.5917258   6.1991883   3.5894706  17.8556276
   6.4474489   2.5419055  18.7041558   6.5340515   3.2938988  18.4990948
   6.1241328  14.9040720  21.0538715   6.6137258  14.2051509  20.8714380
   5.5525560  14.6064590  21.6414772   6.1125858  14.7566944  21.1139756
   8.4491224   3.2600142  12.8938593   8.9906769   2.7570523  13.3577214
   8.7637783   3.2065337  12.0828079   8.5755621   3.1779563  12.8422406
  12.3208331   7.4702789  30.0065506  13.1343196   7.1987938  30.1670638
  12.1603298   7.1710329  29.2025702  12.4178280   7.3857715  29.9110912
   6.6177673   8.6517494  10.1778621   6.6870494   7.7932032  10.3171622
   7.3966129   8.8689374   9.8497646   6.7430524   8.5570358  10.1495779
  11.0085161  11.0755195  14.3915115  10.6164953  10.7721910  13.6737981
  11.1638233  11.9124285  14.2020069  10.9738751  11.1539032  14.2571612
  11.7619581  -0.2374488  23.8844201  10.9496263  -0.5448598  23.9657374
  12.2209516  -0.7175488  24.4486913  11.7099966  -0.3537996  23.9798795
  11.1724836   7.6405184  14.3321145  10.8139491   7.8119827  15.1085178
  10.6863547   8.1018389  13.7749144  11.0483533   7.7344155  14.3646414
  12.3329575   8.5309080  25.2788346  12.9709296   8.0369275  24.9450802
  11.6903667   8.4586480  24.6940573  12.3323802   8.4468088  25.1430701
  14.0586575   0.3798226  19.8454262  13.6314183   0.2924574  19.0902361
  13.4212628   0.4876001  20.4309106  13.9016183   0.3830885  19.8199703
  12.3883832   9.2228888  21.9193703  13.1776210   8.8717953  22.0395785
  12.5627430  10.0365276  21.6570337  12.5304113   9.2914745  21.8981571
   4.0012158   7.7768734  22.9291187   3.8932513   7.7870796  23.7953245
   4.2107940   8.6023514  22.7396141   4.0162269   7.9009808  23.0295279
   2.0185950   5.0281376  20.3913125   1.4273883   5.6690874  20.3616140
   2.7806974   5.4518993  20.3644424   2.0434211   5.1857214  20.3828272
  18.1376372   4.8587146  21.3890403  18.1959495   5.3073794  22.1350379
  17.5042839   5.2685958  20.9520483  18.0527667   4.9860880  21.4342951
  11.7775466  10.4790688  17.8245149  11.5795155  10.9681502  17.1301360
  11.1563177  10.6831929  18.4029283  11.6563031  10.5807226  17.8068372
  15.0898051   2.8803433  19.4756093  14.8496274   2.0409849  19.4798520
  15.5690058   2.9603600  20.1996867  15.1250235   2.7684833  19.5830896
  17.0903238  -0.3395109  17.4285352  16.8513008  -0.3799275  16.5906137
  17.2537139   0.5076043  17.5551073  17.0793542  -0.2203024  17.3238834
  13.6949268   4.0454840  23.3590398  14.4183467   3.5927366  23.1801417
  13.4299231   4.3259506  22.5762725  13.7630542   4.0205808  23.2169113
  10.3081903   7.2841176  10.2584724  11.0316102   7.7499289  10.1149297
   9.8682494   7.3514785   9.5082321  10.3497595   7.3625013  10.1269505
   9.4768058   4.1438718  21.5085413   8.8625051   3.5996768  21.8034048
   9.9935343   3.6302955  21.0291229   9.4623720   3.9875127  21.4809641
   8.7164355   5.2142988  19.2429711   8.2891963   4.5892707  18.8095147
   8.7089299   4.9317910  20.0688718   8.6523496   5.0795769  19.3009539
  16.1284582   3.0081251  21.8620947  16.7202422   3.6478501  21.8939145
  16.5643577   2.3104287  22.1513014  16.2803013   2.9999601  21.9101780
   7.9577972   7.4298623  22.4878841   7.4503063   7.9834470  22.9319472
   7.6604618   7.4906913  21.6697616   7.8382857   7.5204934  22.4327298
  10.5685752  11.3461881  10.4182785   9.8515062  11.1722743   9.9530022
  11.2192490  11.1114453   9.8858271  10.5587603  11.2857673  10.2712003
  13.1533724   0.2226469  14.1624090  12.4824913   0.7656172  14.0337155
  13.8473474   0.6921325  13.9205785  13.1562591   0.3724741  14.1079618
   7.2020457  12.3623181  19.3935848   6.9786112  11.6042011  19.7619874
   6.7130301  12.3921203  18.6716288   7.0963906  12.2545406  19.3412589
  11.3145117  -0.0582278  21.0199305  11.2943044  -0.2398983  21.8734084
  11.3624318   0.8129740  20.9958889  11.3179758   0.0434260  21.1422600
   9.2591447   6.5304914  26.9447782   9.2187302   5.8854590  26.3592938
  10.0714765   6.4741531  27.2573194   9.3734600   6.4263880  26.9044731
   5.8498914  12.5823639  16.8472933   5.4359313  11.9197770  16.4576774
   6.5346289  12.7301498  16.3268627   5.8897286  12.5064298  16.7129430
   9.2164208  11.7413725  17.5996549   8.8180492  11.8515995  16.8317370
   8.6015428  11.9495791  18.1823109   9.0663098  11.7887293  17.5727849
  16.9506051   6.3165691  10.9839640  17.3339657   7.0657048  11.2137737
  16.1550164   6.5631511  10.7251629  16.8899833   6.4635385  10.9797213
  11.1147485   1.9764816  17.8011804  11.6101151   1.2587811  17.7615825
  10.3047261   1.6735614  17.6866291  11.0691379   1.8262462  17.7785530
   6.5606097   5.8262629   9.9508809   5.7517419   5.5029303   9.9042118
   7.0681006   5.1195851   9.8837058   6.5155764   5.6743946   9.9339103
  13.1799304   4.7268504  20.4888933  13.6054376   4.2042925  19.9359358
  12.8156224   5.3249341  19.9677556  13.1885907   4.7378731  20.3297943
   2.8153384  13.0232721  19.2486279   3.1299943  13.8369110  19.2564060
   3.2246797  12.6382940  19.9168438   2.9221482  13.0861423  19.3490370
   9.7677904   8.4402768  16.8190091  10.2389082   9.1543030  16.9880076
  10.1038082   7.8401518  17.3549960   9.8873019   8.4574232  16.9222467
  11.8554888  10.0504081  28.9982163  11.9651854   9.2612642  29.3538910
  12.1845785   9.9610017  28.1956501  11.9207294   9.9209934  28.9324553
  10.4051850   8.2320702  23.5817783   9.8572796   7.6078586  23.3137849
  10.8664879   8.4214974  22.8661863  10.3919059   8.1679752  23.4368214
   9.9710176   9.2371775  20.1127124  10.7908550   9.0934741  20.3743420
   9.6904254   9.8617974  20.6543562  10.0506920   9.3082127  20.2315064
  26.4423827  16.8936626  13.0770001  26.4117831  17.7481263  13.2488270
  27.0405175  16.5931919  13.6356144  26.5260984  16.9753123  13.1844803
  14.0264651  25.5174995  13.5960163  13.2747551  25.1390534  13.3676208
  14.4750663  25.5493429  12.8478973  13.9814318  25.4660602  13.4517665
  22.9517228  22.2498803  27.4383387  23.6583995  21.7550834  27.5670322
  23.1405163  22.6907885  26.7086045  23.0845134  22.2417153  27.3492433
  19.4789611  25.9400365   9.0245710  19.1440979  26.6177286   8.5889932
  19.9916481  25.5505676   8.4362582  19.5055192  25.9824943   8.8732501
  19.0193902  27.8914633  14.9656821  19.4033282  28.4601532  14.4261597
  18.9553044  27.1664144  14.4862638  19.0667329  27.8690097  14.8150684
  22.4875332  18.0404321  20.4754583  23.0331292  18.7189408  20.5348553
  22.4292209  17.8991782  19.6156164  22.5591247  18.1196323  20.3566643
  15.6049407  25.5293387  15.8622935  15.7059770  24.7193741  16.1720063
  15.0091153  25.4350334  15.2322614  15.5321946  25.3958416  15.8149174
  24.2640401  19.4688928  11.3488311  24.1479927  20.2196615  11.7780449
  25.0596288  19.2112882  11.5984398  24.3644991  19.5423775  11.4492402
  15.4450147  30.4470977  17.2637791  16.0887602  30.8884141  17.6533950
  15.7706402  29.6424403  17.1768050  15.5881976  30.3936171  17.3083269
   8.8014452  21.5513674  15.4875269   8.5664636  20.7181326  15.3807538
   8.9400092  21.8318340  14.6736470   8.7870114  21.4697177  15.3517624
  11.1004539  13.7199405  18.3859577  10.4809571  13.1292052  18.2169591
  10.9988403  14.3110840  17.7523900  10.9942215  13.7203487  18.2664566
  16.1470727  23.4582951  12.6357653  16.4686568  23.9988159  12.0318961
  16.7942823  22.8879723  12.7679943  16.2896782  23.4542127  12.5664688
  10.8273672  17.2651686  20.6303146  10.7032369  17.8514132  21.2652965
  11.4791957  16.7711882  20.9315421  10.9047321  17.2790491  20.7689075
  18.3860370  21.8469391  12.7071831  18.8254006  21.2386492  13.1526604
  18.2365033  21.4676765  11.9357296  18.4281836  21.7007863  12.6590999
  18.3918104  23.2868309  19.5597549  18.6741347  22.4919715  19.3384305
  19.1204265  23.7648897  19.5802610  18.5407668  23.2402906  19.5300564
  16.3699298  10.8291343  16.8013314  16.0402628  11.2802487  16.1317013
  15.6944300  10.7507506  17.3486321  16.2209735  10.8842478  16.7836538
  21.9869707  20.1996573   9.6602600  21.9021002  21.0557539   9.8052169
  22.4754090  19.9240897  10.3284760  22.0458604  20.2853894   9.7804682
  23.5775706   6.8176866  15.0462925  23.2629147   7.5080345  15.4783347
  23.0602648   6.7621648  14.3448426  23.4540176   6.9111755  15.0059874
  22.9188140  16.8181367  11.1600336  22.3899611  17.0341000  11.8197642
  23.4413160  17.5117505  11.0801305  22.9176593  16.9524504  11.2455935
  28.3736193  22.3927671  16.5333380  27.5433896  22.6038315  16.6966797
  28.3245445  21.5664726  16.2575664  28.2442928  22.3017278  16.5170746
  14.8087748  20.7144584   9.9607804  14.2244963  21.2194615  10.3673667
  14.4057843  20.4886971   9.2204396  14.6627051  20.7552832   9.9112829
  10.3631776  26.4299345  16.7631475   9.8799354  27.1549834  16.7391059
  11.1755095  26.7275475  16.8741633  10.4122524  26.5801699  16.7758754
  16.4345930  25.2231526  19.3681290  15.9172872  24.8638941  18.7642598
  17.1320322  24.6993700  19.3787356  16.4611511  25.0929213  19.2811548
  20.0909522  25.6726340  25.3297463  20.1792868  25.4852480  26.1775673
  20.5199235  25.0263769  24.9302309  20.1671625  25.5489347  25.3969214
  17.6579982  24.9557500  24.3115125  17.0950817  24.5430109  24.8354786
  18.4201006  24.8810405  24.7308268  17.6874431  24.8834900  24.4508125
  19.2664962  16.9610236   8.4376724  19.5060966  17.1688220   7.6252067
  19.5880803  16.1567744   8.5465669  19.3502120  16.8724337   8.3337277
  14.5755252   8.8903631  12.2836262  15.3301220   9.2581949  12.0453312
  14.3982787   9.2643186  13.0515442  14.6609731   9.0001819  12.3621151
  13.2175974  26.9455521  16.9151755  13.9196553  26.4307510  16.9724512
  13.1373457  27.2729672  17.7198630  13.3099734  26.9169747  17.0424547
  27.8690151  15.0398072  20.3283801  27.0318572  15.1100259  20.5631396
  27.8378382  15.0422567  19.4558104  27.7408433  15.0508299  20.2343349
  14.2654880  17.1831108  26.0432170  14.4375384  17.0737002  26.8917451
  14.8024238  17.8285513  25.8063362  14.3699884  17.2623109  26.1337267
  12.9312317  11.2973950   8.9814375  12.7487890  11.5145831   8.1555368
  13.7937930  11.4112963   9.0372990  13.0316906  11.3463848   8.8668862
  12.5426749  23.1361873  16.4237363  13.3815648  23.3684805  16.4711125
  12.5738518  22.2666184  16.3544398  12.6708467  23.0418819  16.4202008
  13.1679452  23.5562748  20.7250669  13.7077677  23.4133879  21.3954041
  12.4849398  23.9559499  21.0934695  13.1471606  23.5942419  20.8785090
  18.6112036   8.3000361  12.0163399  19.3398197   8.1216316  11.5701555
  18.7006929   9.1418441  12.2270577  18.7318698   8.3984240  11.9816917
  25.6300508  23.0627026  16.6698096  25.1935740  23.0663768  17.4257067
  25.2963423  23.7432525  16.2377673  25.5163128  23.1639482  16.7178928
  20.2029582  25.1035359  27.9941246  20.9869998  25.2166206  28.3596988
  20.0026176  24.2776496  28.1899932  20.2895607  24.9982078  28.0775632
   8.5716597  19.7763039  20.8785090   8.3055012  18.9602155  21.0376080
   8.5855161  19.8216194  20.0080606   8.5341319  19.6619943  20.7738572
  25.5497991  10.1040854  18.9127524  26.1923899  10.1738958  19.4989439
  25.8021012   9.4370076  18.4107066  25.6820123  10.0167202  18.9254803
  12.4774344  14.5748123   7.4936848  11.7632521  14.2886303   7.9059281
  12.9618313  14.9144749   8.1343236  12.4433707  14.5829773   7.6492483
  13.3215203  13.3141417  23.5252098  12.6287000  12.8438397  23.7712829
  13.9375531  13.0879721  24.0993805  13.3099733  13.2108549  23.6461250
  20.3599975  27.0145461  21.6407702  19.5615221  26.7744961  21.8981570
  20.8085986  27.0659854  22.3874749  20.3074586  26.9867852  21.7892626
  28.7644854  19.7807946  15.5617733  29.4261288  19.2198614  15.4613642
  28.1236266  19.2859976  15.8870424  28.7673722  19.6244355  15.5950073
  19.6521662  23.0778077   7.8698656  20.0672810  22.7463101   7.1783152
  18.8213592  22.8446979   7.7418793  19.5909671  22.9949333   7.7489504
   8.9810011  20.5621818  18.1596834   8.7985584  20.5368704  17.3069127
   9.7159680  21.0320756  18.1985743   9.0624075  20.6283180  18.0394753
  25.0509685  20.7973328  15.3029722  25.2865274  20.9418527  14.4756573
  25.1999249  21.5615736  15.6961236  25.1075488  20.9312382  15.2393326
  12.0455762  17.2806821  24.6678943  12.7695735  17.2659852  25.1543838
  12.1471899  17.9902176  24.1700911  12.1673971  17.3831524  24.6657730
  26.8800142  19.6374994  13.1399326  27.2108359  20.1702634  12.5339421
  27.4533230  19.6913882  13.7961277  27.0133821  19.7244563  13.1477107
  19.4200712  20.7605906  29.5327890  18.6273693  21.0749417  29.7180510
  19.5349639  20.9757374  28.6948675  19.3196122  20.8389742  29.4366225
  20.3484505  20.6626109  24.4713187  20.9223366  20.0253354  24.6261751
  20.2699308  20.6630192  23.6022844  20.4217739  20.5691221  24.3659598
   8.9480921  17.4415319  18.3095901   9.5254424  17.3051770  18.9488146
   8.2494983  16.9851103  18.5641485   8.9301942  17.3537585  18.4418191
  22.3455052  19.3288637   7.0559858  22.2635215  19.3990824   7.9214845
  22.9834773  19.8918380   6.8643598  22.4274889  19.4227608   7.1549807
  20.7849273  11.1977825  16.6238477  20.0805600  10.7087011  16.7822396
  20.8334248  11.2100300  15.7526921  20.6879325  11.1267473  16.5177817
  18.3456224  15.1210486  21.8691657  17.9570657  14.6964704  21.2143849
  17.6810922  15.3692636  22.3768684  18.1903152  15.0949207  21.8479525
  27.9879493  14.8785491  14.6439487  27.7316058  14.0665432  14.4537370
  28.8308807  14.8863058  14.4169675  28.0745519  14.7597488  14.5824304
   4.4239754  16.2927212  15.0243720   4.5100006  15.9159080  15.8057249
   5.0515552  15.9187657  14.5463678   4.5296305  16.1812694  15.0689197
  22.1682586   8.8185115  19.3815642  22.5493097   8.1363286  19.7683516
  21.3645870   8.5294717  19.1991306  22.1059047   8.6752163  19.4119697
  19.4495162  19.3509091  10.0668464  20.2635801  19.6423984   9.9551236
  19.3854303  18.6968953   9.4926757  19.5597901  19.2974286   9.9657302
  25.6704652  22.0335087  24.4798040  25.4343290  21.2023152  24.3610101
  26.3147881  21.9820694  25.0652884  25.7299323  21.9032775  24.5483934
  15.3203070  22.8230608  15.1940776  15.9577017  22.5842356  15.7392570
  15.7458142  23.0267767  14.4593937  15.4779237  22.8181618  15.1657934
  10.0115713  25.0618945  19.0775080  10.0519858  25.3333796  18.2494860
  10.5710237  25.5860853  19.4932868  10.0999059  25.1794700  19.0166968
  15.9605886  18.0432898   9.5315666  16.3451038  17.8240605  10.2832211
  15.7117506  18.8695843   9.6616742  15.9807958  18.1331044   9.6616742
  16.1274426  11.3239313  29.2478250  15.8127867  12.0938876  28.9847813
  15.8064358  10.7609569  28.6630477  16.0333345  11.3549582  29.1219600
  26.6941073  21.8179536  20.5426334  26.3886890  22.5507593  20.9039650
  25.9747289  21.4117465  20.2619120  26.5428415  21.8661269  20.5539472
  17.7024542  23.3003031  16.8734563  17.7763551  23.1378203  17.7276413
  18.5194049  23.4893220  16.6295044  17.8340901  23.3039773  16.9632588
  32.3942865  18.4572536  19.8694679  32.3267365  18.4768495  18.9997265
  32.3798528  19.3002864  20.0950349  32.3821622  18.5846271  19.7747156
  11.4630299  23.6460894  13.9029006  10.6368417  23.8922631  13.7763285
  11.5242290  23.5672975  14.7691064  11.3504466  23.6705843  14.0117951
  13.6806323   9.7129835  14.8624446  12.8128748   9.7852434  14.9282056
  13.9681527  10.5151914  15.0512421  13.5946071   9.8423982  14.8999213
  22.8039212   9.8607694  23.1935768  23.5492804   9.6717504  22.7799194
  22.3876516  10.3865932  22.6349624  22.8524186   9.9109839  23.0500341
  16.2429128  26.2637774  11.6048036  16.5327427  25.8726755  10.8807263
  16.9732609  26.4454479  12.0453311  16.3936012  26.2331588  11.5630843
  30.1801482  17.2316923  18.1441273  30.7309404  16.5984992  18.3838365
  30.1645598  17.7632315  18.8356777  30.2586679  17.2165871  18.2820131
  14.1835044  28.2405156  14.6708186  13.9635339  27.9502511  15.4634853
  13.9629566  27.5820111  14.1426098  14.1182638  28.1004865  14.7097094
  23.8829889  15.4713256  17.2545869  23.5394655  14.7503591  17.6053119
  23.9822931  15.2627107  16.4124228  23.8471932  15.3337459  17.1817549
  16.3502999  29.6134546  13.4538878  17.0027057  29.0810989  13.6829904
  15.6528608  29.2603199  13.8406752  16.3433717  29.4824069  13.5451046
  13.2984264  21.9673724  12.8606252  14.0530232  22.3486763  13.0741715
  12.7054877  22.4184868  13.3152949  13.3220978  22.0902551  12.9589131
  24.3442918  21.9338960  12.7969857  24.9100950  22.5932170  12.7128400
  23.6970821  22.2788658  13.2686260  24.3321674  22.0820902  12.8542614
  15.7590931  13.9236564  27.9863465  14.9490707  14.2294344  27.8753307
  16.2365618  14.6442147  28.1016049  15.7094410  14.0751165  27.9870536
  11.6073675  13.1888094  12.3041323  11.3198471  12.8189364  11.5673270
  12.2944143  13.6582949  12.0425027  11.6662572  13.2035063  12.1556398
  20.8149496  24.8777745  12.2206937  20.5736172  24.1445605  11.8134002
  20.9950829  25.4264601  11.5673270  20.8057120  24.8500136  12.0637160
  16.0448817  20.1686304  13.6327859  15.8491599  20.7761039  13.0388162
  16.2683162  19.4754248  13.1519533  16.0483458  20.1563830  13.4743940
  14.4427347  17.0541042  13.7508727  15.1649998  17.2182200  13.2912533
  13.9635339  17.7750707  13.6448067  14.4791077  17.1839272  13.6674341
  22.4020854  13.3904841  19.1305412  21.5631955  13.4166120  18.8943675
  22.4725221  14.0375576  19.7110759  22.2889248  13.4900967  19.1814529
  12.0934963  19.4599115  22.8562867  12.6056060  19.7383368  22.2071627
  11.8071306  20.1988409  23.2225680  12.1269826  19.6101468  22.8152745
  20.8490132  10.2890218  13.8633028  21.5516485  10.0897966  13.3852986
  20.5834321   9.5166160  14.1701872  20.9136765  10.1453184  13.8378470
  26.2778378  18.5972828  16.4166654  26.1912352  18.7528254  17.2701433
  25.8228858  19.2410903  16.0426059  26.1981635  18.7148583  16.4873761
   9.1801870  13.9669306  13.1526604   9.2818006  14.7695468  13.4807579
   9.9757756  13.7656642  12.8549684   9.3129775  14.0555205  13.1561959
  15.6118689  11.5525503  22.9163909  15.4201886  11.5680638  23.7663332
  16.4617285  11.7489177  22.8930564  15.7094411  11.5839854  23.0387203
   9.9965602  14.0816485  20.8947725   9.8551093  13.2300425  21.0192233
  10.2806165  14.1245145  20.0709931  10.0173448  13.9616235  20.7915349
  24.0452243  22.6266934  18.8278995  23.9066602  23.3247980  19.3327737
  23.2652241  22.4715591  18.4715176  23.9095470  22.7067101  18.8505269
  22.3830328  18.9263310  25.0801376  22.3778366  18.0543126  25.0843803
  23.0891322  19.1251479  24.6070832  22.4875332  18.8267184  25.0108412
  16.1101221  18.6540293  24.4515197  16.2544597  19.2341502  23.8158307
  16.4576870  19.0316590  25.1565051  16.1828683  18.7960997  24.4614191
  15.1828976  26.8443065  21.3176223  15.3318540  26.2845981  20.6649628
  15.9628978  26.9235067  21.7008742  15.3203070  26.7728631  21.2773173
  25.5405616  21.9845188   9.5895494  25.1612424  21.1982326   9.5824783
  24.8771861  22.5332045   9.4467138  25.3864090  21.9490012   9.5676291
  17.7082277  27.0157708  22.5960714  17.6325948  26.3466519  23.1511502
  17.6372136  27.7175496  23.1101380  17.6862884  27.0202615  22.7537562
  18.5222916  11.7481013  23.1235732  18.9795530  12.4804987  23.2508524
  18.5979244  11.3247478  23.8822988  18.6013886  11.7938251  23.2536808
  10.7655907  11.9946832  24.2125176  10.2298096  11.3827190  24.5285943
  10.8273672  12.5694968  24.8658842  10.6951540  11.9893760  24.3560602
  22.9950242   4.9270888  16.9929575  23.1133810   5.3847351  16.2596877
  22.8212417   4.1216149  16.7065792  22.9869413   4.8764660  16.8430508
  18.3652524  25.5358707  13.4284320  19.1302415  25.2668351  13.1066984
  18.2630614  25.0508717  14.1454383  18.4634019  25.4248272  13.4864148
  16.4005294  13.7383116  19.9677556  15.6101368  13.5574577  20.2894892
  16.7965916  12.9610069  19.9507850  16.3422170  13.5970577  20.0130104
  20.8871184  22.5670891   5.4084269  21.6544169  22.6271016   4.9990121
  20.4402493  21.9951332   4.9240588  20.9344612  22.4907466   5.2761980
  21.7848980  21.3725547  17.6937002  21.1093982  21.1410779  18.1950389
  21.7941356  20.7646730  17.0679107  21.6867484  21.2484472  17.6753154
  18.9143124  16.2143376  24.4501055  18.8502265  17.0753332  24.3221191
  19.0540312  15.8975369  23.6496606  18.9258594  16.2943542  24.3129268
  23.7865714  24.2290679   9.9247180  23.8685552  25.0357665   9.6008631
  24.2715457  24.2486638  10.6487953  23.8702872  24.3511341   9.9834078
  17.0973911  30.4226028  21.0538715  17.5869842  29.7236817  20.8714380
  16.5258143  30.1249898  21.6414772  17.0858441  30.2752252  21.1139756
  12.8844663  19.4027566  14.0245230  13.0409282  19.3374369  14.8801222
  13.2245256  20.1776119  13.8123910  12.9577898  19.5076765  14.1199824
  23.2940915  22.9888097  30.0065506  24.1075780  22.7173246  30.1670638
  23.1335881  22.6895637  29.2025702  23.3910863  22.9043023  29.9110912
  17.5910257  24.1702801  10.1778621  17.6603077  23.3117340  10.3171622
  18.3698712  24.3874682   9.8497646  17.7163107  24.0755665  10.1495779
  20.5713077  13.6721754  22.9460894  20.7855046  13.0332669  22.3924248
  19.9546976  14.1167578  22.5168756  20.5118406  13.6431898  22.8011325
  21.9817745  26.5940503  14.3915115  21.5897536  26.2907218  13.6737981
  22.1370817  27.4309593  14.2020069  21.9471334  26.6724339  14.2571612
   9.4578924  16.5862517  14.3405997   9.8377889  17.0047062  13.6766265
   8.8834289  17.1675973  14.6474841   9.4290249  16.7340376  14.2882738
  22.7352165  15.2810820  23.8844201  21.9228846  14.9736710  23.9657374
  23.1942099  14.8009820  24.4486913  22.6832549  15.1647312  23.9798795
  22.1457419  23.1590492  14.3321145  21.7872074  23.3305134  15.1085178
  21.6596130  23.6203697  13.7749144  22.0216116  23.2529463  14.3646414
  19.9627805   6.7821690  17.9348237  19.0921363   6.7560411  17.8881546
  20.2168147   6.6098882  17.1174082  19.8721365   6.7531834  17.8068373
  16.9345785  18.8389657   6.8721380  17.2238310  19.6154540   7.1464954
  17.0217584  18.3278388   7.5735879  16.9900041  18.8781575   7.0163878
  19.8305672  16.6870891  28.6672903  20.3005303  17.3113007  29.0540777
  19.8767552  16.0187867  29.2266118  19.9073548  16.6805571  28.8072975
  16.9876946   8.7927919  19.3921707  16.4715434   8.1008110  19.5173286
  16.4270875   9.4598696  19.3384306  16.8283459   8.7891176  19.4027773
  19.0569179   9.3320879  21.2214560  18.6700932   9.3569910  22.0028090
  18.5702117   8.7662557  20.7689076  18.9281688   9.2516629  21.2702463
  23.3062159  24.0494388  25.2788346  23.9441879  23.5554583  24.9450802
  22.6636250  23.9771788  24.6940573  23.3056385  23.9653396  25.1430701
  25.0319159  15.8983534  19.8454262  24.6046767  15.8109882  19.0902361
  24.3945212  16.0061309  20.4309106  24.8748766  15.9016193  19.8199703
  18.7226321   6.2187864  23.5124820  19.3519439   6.7548164  23.2345890
  18.8912184   6.1265223  24.3638385  18.8404116   6.2849226  23.5973348
  18.5240236  11.0059059  25.7851231  19.3513665  10.7344208  25.8409846
  18.5448082  11.8019900  26.1415049  18.6493086  11.0838813  25.8466414
  23.3616415  24.7414196  21.9193703  24.1508794  24.3903261  22.0395785
  23.5360013  25.5550584  21.6570337  23.5036697  24.8100053  21.8981571
  10.5785293  15.7742459  16.8006242  10.1841990  15.8485470  16.0256352
  10.0225410  16.1600405  17.3514604  10.4388105  15.8424233  16.7673902
  22.2150240   8.7523753  16.4810121  22.4199833   8.6846060  17.3267119
  21.8876663   9.5582574  16.4131299  22.1965487   8.8609693  16.5969777
  15.9692488  13.3904841  12.7863791  16.2452222  12.6723753  12.3741359
  16.5691157  13.9889760  12.5784897  16.0985752  13.3725211  12.6944552
  14.9744742  23.2954041  22.9291187  14.8665097  23.3056104  23.7953245
  15.1840523  24.1208822  22.7396141  14.9894853  23.4195116  23.0295279
  25.4683927   9.3055517  15.9612887  24.8558241   9.7925919  16.3466619
  25.5648102   8.6299008  16.5050538  25.3921825   9.2773826  16.0991745
  19.4703008  11.0618358  11.0610386  19.9246755  11.2328918  11.7858231
  19.9443054  10.4486469  10.6608162  19.6071328  10.9969243  11.1084148
  13.3879156  11.7068682  21.0581142  13.8480638  11.7807611  21.7956266
  13.4335263  12.5049936  20.7080964  13.4629712  11.8362829  21.1153899
  15.0362506  12.3735377  25.6253169  14.6448071  11.7268724  26.0608947
  15.2048369  12.9646812  26.2447425  15.0033417  12.3649644  25.7815875
  29.1108955  20.3772454  21.3890403  29.1692079  20.8259102  22.1350379
  28.4775423  20.7871266  20.9520483  29.0260250  20.5046188  21.4342951
  22.7508050  25.9975995  17.8245149  22.5527739  26.4866810  17.1301360
  22.1295761  26.2017237  18.4029283  22.6295614  26.0992534  17.8068372
  18.7295604   9.5611151  17.1987255  17.8831649   9.7333959  17.0728605
  18.7266736   8.7560495  17.5353083  18.6042754   9.4672180  17.2298382
  10.1766934  15.3357872  23.4332859  11.0392547  15.2353582  23.3470188
   9.8458717  14.7552582  22.8718431  10.2552131  15.2349499  23.3378264
  26.0630635  18.3988741  19.4756093  25.8228858  17.5595156  19.4798520
  26.5422642  18.4788908  20.1996867  26.0982818  18.2870141  19.5830896
  21.7277404  14.2322920  11.1275067  21.2000422  14.3151664  10.4380775
  22.1873112  14.9740792  11.1239711  21.7179254  14.3543583  11.0249762
  28.0635822  15.1790198  17.4285352  27.8245592  15.1386033  16.5906137
  28.2269723  16.0261351  17.5551073  28.0526125  15.2982283  17.3238834
  24.6681852  19.5640148  23.3590398  25.3916051  19.1112674  23.1801417
  24.4031814  19.8444813  22.5762725  24.7363125  19.5391116  23.2169113
  13.5368720  14.1600321  20.0943277  12.9121790  14.1718713  19.4869229
  13.2014315  14.6360496  20.7434517  13.3954212  14.2318838  20.0999845
  13.7210469  12.5025440   6.1515962  13.3723273  13.1545165   6.6147511
  13.2406915  12.4882553   5.4239833  13.5980713  12.5968493   6.1127053
  10.2494396  22.2200781  21.5347041   9.7194320  21.5293220  21.5842016
  10.5219489  22.2110967  20.7059750  10.2119118  22.1167913  21.4194457
  21.2814486  22.8026484  10.2584724  22.0048685  23.2684597  10.1149297
  20.8415077  22.8700093   9.5082321  21.3230178  22.8810320  10.1269505
  12.8059466  15.7693469  22.3118145  12.9652952  15.0136793  22.7169867
  12.6252359  16.3184409  22.9658883  12.8024825  15.7387283  22.4680851
  20.7479769   7.9354705  22.8668935  20.2520330   8.1318379  22.1760501
  21.5048831   8.3347373  22.6957736  20.7866593   8.0232438  22.7389071
  18.0182648  11.6097051  19.4572245  18.0425135  11.0757163  18.7685025
  18.2694122  11.1014359  20.1197836  18.0592567  11.4557955  19.4536890
   5.5290238  18.8928546  18.8915389   5.4233687  18.8475390  18.0267473
   4.7790458  19.2382326  19.1729674   5.4025841  18.9369454  18.8052719
  14.2983970  10.3367869  18.8377990  14.3382342  10.8377075  19.5512697
  13.4733635  10.4278263  18.5683913  14.1823496  10.4249685  18.9028528
  16.4813583  19.9028609  26.9398284  15.6309214  20.0400323  27.0755929
  16.6441711  19.1692387  27.3845986  16.3797447  19.8142710  27.0253883
  13.5282117  10.3437272  26.7708299  14.1534820   9.7999404  27.0437732
  13.0732597   9.8632189  26.2016090  13.5530378  10.1926753  26.7269893
  14.0934378  15.1283970  11.6642006  14.2337339  15.6256434  12.3670648
  14.5916910  14.4270265  11.8056220  14.1875459  15.0985949  11.7893585
  14.1234600  15.9951081   8.9934583  14.7579679  16.5911506   8.9284045
  14.2060211  15.6954539   9.8080453  14.2291151  16.0391989   9.1037670
  27.1017166  18.5266559  21.8620947  27.6935006  19.1663809  21.8939145
  27.5376160  17.8289595  22.1513014  27.2535597  18.5184909  21.9101780
  15.7013583  11.9265057   8.9680025  16.0229424  11.4468139   8.3139287
  15.9640527  12.7364703   8.7770837  15.7879608  11.9754955   8.8435517
  18.9310556  22.9483931  22.4878841  18.4235647  23.5019778  22.9319472
  18.6337202  23.0092221  21.6697616  18.8115441  23.0390242  22.4327298
  21.0972738  11.3137251  21.3303504  21.5227809  10.8609777  20.7187031
  20.4829731  10.7597321  21.6068292  21.0701383  11.1651227  21.2808529
  10.6287588  18.1918922  12.2624129  11.1379817  18.7883430  12.6435435
  11.1021860  17.9244896  11.5800549  10.7730964  18.2404737  12.2178652
  21.5418336  26.8647189  10.4182785  20.8247646  26.6908051   9.9530022
  22.1925074  26.6299761   9.8858271  21.5320186  26.8042981  10.2712003
  19.5366961   7.7852350  14.7394081  18.8935279   7.6349997  15.3079220
  19.1966368   7.5394696  13.9743186  19.3912038   7.7264473  14.7097096
  24.1266307  15.7411777  14.1624090  23.4557497  16.2841479  14.0337155
  24.8206057  16.2106633  13.9205785  24.1295175  15.8910048  14.1079618
  18.1753041  27.8808489  19.3935848  17.9518695  27.1227319  19.7619874
  17.6862884  27.9106510  18.6716288  18.0696490  27.7730714  19.3412589
  24.2894435  12.1967661  17.0714463  24.6422045  11.7697384  17.7460262
  23.4309236  12.1118504  17.2015539  24.2143879  12.1212402  17.1909473
  12.9878120  14.8275181  15.1297310  12.2690109  15.2439313  15.3970173
  13.3590482  15.3929419  14.5788948  12.9370051  14.9724462  15.0880117
  22.2877700  15.4603029  21.0199305  22.2675628  15.2786325  21.8734084
  22.3356901  16.3315048  20.9958889  22.2912341  15.5619568  21.1422600
  20.2324030  22.0490221  26.9447782  20.1919885  21.4039898  26.3592938
  21.0447349  21.9926839  27.2573194  20.3467184  21.9449188  26.9044731
  16.8231498  28.1008947  16.8472933  16.4091896  27.4383078  16.4576774
  17.5078872  28.2486806  16.3268627  16.8629870  28.0249606  16.7129430
  20.1896792  27.2599033  17.5996549  19.7913075  27.3701303  16.8317370
  19.5748012  27.4681099  18.1823109  20.0395681  27.3072601  17.5727849
  18.7624694  13.8673180  10.4670689  18.1689533  14.1890177   9.9155256
  18.7999972  13.0214276  10.2591795  18.6799083  13.7897509  10.3553460
  25.7218495   7.3186073  17.9998775  25.2149359   6.6115212  17.9319953
  26.5185928   6.9879262  18.1299852  25.7645734   7.1659224  18.0097770
  15.9201739  15.6787158  23.4997539  15.4080642  15.0708341  23.8582571
  15.7481235  16.3943751  23.9671515  15.8191376  15.6950457  23.6213763
  10.7667454  14.1224733  26.1499901  10.5970044  14.7826108  25.6048108
  10.3233404  14.3331295  26.8712390  10.6766787  14.2510715  26.1761531
  14.6927273  12.3629231  15.1926635  15.1684639  12.7246311  14.5576816
  14.1915873  13.0185699  15.4726778  14.6892632  12.5123420  15.1403376
  27.9238635  21.8350999  10.9839640  28.3072240  22.5842355  11.2137737
  27.1282748  22.0816819  10.7251629  27.8632417  21.9820693  10.9797213
  19.7970809  13.6011403  25.9399795  20.3542239  13.3725212  25.3078260
  19.4731874  14.3617068  25.6635007  19.8317220  13.6795239  25.8056292
   7.6669518  17.0271599  21.4088391   7.1196238  16.3572244  21.5269259
   8.4561896  16.6601447  21.4731858   7.7021702  16.8736585  21.4357092
  17.5153927  16.6879056  26.9051802  18.2665254  17.0030733  27.2191356
  17.7076503  16.4858227  26.0785724  17.6545341  16.7046438  26.8295198
  16.7353926  14.5070431   8.5600019  17.1152891  14.5250060   7.7751134
  15.9946522  14.9524420   8.4390866  16.6822764  14.5752206   8.4263587
  24.3639217  12.8152622  14.1475598  24.3633443  12.6601279  15.0059874
  24.1595397  13.6615609  14.0916983  24.3338995  12.9173243  14.2663537
   6.4256488  16.2392407  18.5634414   6.2478249  15.7869016  19.2889330
   6.1375510  17.0418568  18.7472892   6.3569441  16.2914964  18.6977917
  17.5338680  21.3447937   9.9508809  16.7250003  21.0214611   9.9042118
  18.0413589  20.6381159   9.8837058  17.4888347  21.1929254   9.9339103
   8.1628958  18.7720130  15.6756173   7.2974477  18.7605821  15.5638944
   8.2627773  18.5850353  16.5227312   8.0503125  18.7426192  15.7845118
  24.1531888  20.2453812  20.4888933  24.5786959  19.7228233  19.9359358
  23.7888808  20.8434649  19.9677556  24.1618490  20.2564039  20.3297943
  13.7885967  28.5418029  19.2486279  14.1032526  29.3554417  19.2564060
  14.1979381  28.1568248  19.9168438  13.8954065  28.6046731  19.3490370
  20.7410487  23.9588076  16.8190091  21.2121665  24.6728338  16.9880076
  21.0770666  23.3586826  17.3549960  20.8605602  23.9759540  16.9222467
  22.8287472  25.5689389  28.9982163  22.9384437  24.7797950  29.3538910
  23.1578368  25.4795325  28.1956501  22.8939877  25.4395242  28.9324553
  17.6579982   8.7315546  23.7748185  17.7907888   7.9346540  24.1029161
  18.0425135   9.2581949  24.3546461  17.7336311   8.6915463  23.9091688
  21.3784433  23.7506010  23.5817783  20.8305379  23.1263894  23.3137849
  21.8397462  23.9400282  22.8661863  21.3651643  23.6865060  23.4368214
  20.7312337   5.6545873  20.3729279  19.9258301   5.5443602  20.6897117
  20.6019073   5.7558328  19.5159144  20.5932470   5.6529543  20.2937319
  24.1878298  11.8191364  20.9668976  23.6041287  12.3200571  20.5546543
  24.5082592  11.3120921  20.3333299  24.1491473  11.8183199  20.8127483
  16.7273097  10.7331959  11.2427650  17.5488791  10.9030272  11.0009345
  16.2642748  10.8879220  10.5193948  16.7804259  10.7813692  11.0999295
  15.3168429   8.7274721  22.0226079  15.8612842   8.3865848  22.6130421
  15.3705365   9.5860183  22.1647364  15.4057548   8.8029981  22.1307953
  11.1298988  22.4891137  18.8964887  11.7343845  22.4486972  18.2678708
  10.9226300  23.3362290  18.9268943  11.1887885  22.6079140  18.8081004
  20.9442760  24.7557083  20.1127124  21.7641134  24.6120049  20.3743420
  20.6636837  25.3803282  20.6543562  21.0239503  24.8267435  20.2315064
   6.3650270  21.4725755  18.7663810   6.2674548  20.6622026  19.0753867
   7.1479140  21.4517548  18.3810078   6.4666406  21.3492845  18.7550673
  30.6156095  31.4997585  17.8322931  29.7593990  31.6606084  17.8832048
  30.6623749  30.6289649  17.8527992  30.4955206  31.3948387  17.8428997
  19.7747035  37.0698982  15.4875269  19.5397220  36.2366634  15.3807538
  19.9132676  37.3503648  14.6736470  19.7602698  36.9882485  15.3517624
  22.0737123  29.2384713  18.3859577  21.4542154  28.6477360  18.2169591
  21.9720986  29.8296148  17.7523900  21.9674798  29.2388795  18.2664566
  29.1705018  30.9784254  12.7192040  29.8685183  31.1572382  13.2113503
  29.4857351  30.4554594  12.0962429  29.3200355  30.9278026  12.6994050
  21.8006256  32.7836994  20.6303146  21.6764952  33.3699440  21.2652965
  22.4524540  32.2897190  20.9315421  21.8779905  32.7975799  20.7689075
  26.8264597  35.9598711  19.9090657  27.4713599  35.4671154  19.5901605
  27.0666374  36.1023498  20.7356735  26.9575182  35.9076153  19.9840190
  27.3431882  26.3476651  16.8013314  27.0135212  26.7987795  16.1317013
  26.6676884  26.2692814  17.3486321  27.1942318  26.4027786  16.7836538
  34.5508290  22.3362174  15.0462925  34.2361731  23.0265653  15.4783347
  34.0335231  22.2806956  14.3448426  34.4272760  22.4297062  15.0059874
  25.5487836  24.4088939  12.2836262  26.3033804  24.7767256  12.0453312
  25.3715370  24.7828494  13.0515442  25.6342314  24.5187127  12.3621151
  25.2387464  32.7016416  26.0432170  25.4107967  32.5922310  26.8917451
  25.7756821  33.3470821  25.8063362  25.3432468  32.7808417  26.1337267
  23.9044901  26.8159258   8.9814375  23.7220474  27.0331139   8.1555368
  24.7670514  26.9298271   9.0372990  24.0049490  26.8649156   8.8668862
  29.5844620  23.8185669  12.0163399  30.3130780  23.6401624  11.5701555
  29.6739513  24.6603749  12.2270577  29.7051282  23.9169547  11.9816917
  19.5449181  35.2948347  20.8785090  19.2787596  34.4787463  21.0376080
  19.5587745  35.3401502  20.0080606  19.5073903  35.1805251  20.7738572
  23.4506928  30.0933431   7.4936848  22.7365105  29.8071611   7.9059281
  23.9350896  30.4330057   8.1343236  23.4166291  30.1015081   7.6492483
  24.2947787  28.8326725  23.5252098  23.6019584  28.3623705  23.7712829
  24.9108114  28.6065029  24.0993805  24.2832317  28.7293857  23.6461250
  19.9542594  36.0807126  18.1596834  19.7718167  36.0554012  17.3069127
  20.6892263  36.5506064  18.1985743  20.0356658  36.1468488  18.0394753
  23.0188346  32.7992129  24.6678943  23.7428318  32.7845160  25.1543838
  23.1204482  33.5087484  24.1700911  23.1406555  32.9016832  24.6657730
  19.9213505  32.9600627  18.3095901  20.4987007  32.8237077  18.9488146
  19.2227566  32.5036411  18.5641485  19.9034526  32.8722893  18.4418191
  26.6780807  34.6134682  16.5234384  26.4200051  33.7806417  16.4965684
  26.7329290  34.8392295  15.6826885  26.6480585  34.5232454  16.3954521
  31.7581857  26.7163133  16.6238477  31.0538184  26.2272319  16.7822396
  31.8066831  26.7285608  15.7526921  31.6611908  26.6452781  16.5177817
  25.6515519  32.1672445  17.0099279  25.0765110  32.3264613  17.6463240
  25.2751195  31.5307854  16.5467729  25.5118331  32.0970258  17.0353837
  29.3188808  30.6395794  21.8691657  28.9303240  30.2150012  21.2143849
  28.6543506  30.8877944  22.3768684  29.1635735  30.6134515  21.8479525
  15.3972338  31.8112520  15.0243720  15.4832590  31.4344388  15.8057249
  16.0248135  31.4372965  14.5463678  15.5028889  31.6998002  15.0689197
  33.1415169  24.3370423  19.3815642  33.5225681  23.6548594  19.7683516
  32.3378453  24.0480025  19.1991306  33.0791631  24.1937471  19.4119697
  26.9338469  33.5618206   9.5315666  27.3183622  33.3425913  10.2832211
  26.6850089  34.3881151   9.6616742  26.9540542  33.6516352   9.6616742
  27.1007009  26.8424621  29.2478250  26.7860451  27.6124184  28.9847813
  26.7796942  26.2794877  28.6630477  27.0065929  26.8734890  29.1219600
  24.6538906  25.2315143  14.8624446  23.7861332  25.3037742  14.9282056
  24.9414111  26.0337222  15.0512421  24.5678655  25.3609290  14.8999213
  33.7771795  25.3793002  23.1935768  34.5225387  25.1902812  22.7799194
  33.3609100  25.9051240  22.6349624  33.8256769  25.4295147  23.0500341
  24.0684575  35.8463781  16.9363887  23.7797823  35.2201252  17.4709615
  24.9367923  35.7884068  17.0028568  24.1544826  35.7451325  17.0254842
  34.8562472  30.9898564  17.2545869  34.5127238  30.2688899  17.6053119
  34.9555515  30.7812415  16.4124228  34.8204515  30.8522767  17.1817549
  24.2716848  37.4859032  12.8606252  25.0262816  37.8672071  13.0741715
  23.6787461  37.9370175  13.3152949  24.2953561  37.6087859  12.9589131
  26.7323515  29.4421872  27.9863465  25.9223291  29.7479652  27.8753307
  27.2098202  30.1627455  28.1016049  26.6826994  29.5936473  27.9870536
  22.5806259  28.7073402  12.3041323  22.2931054  28.3374672  11.5673270
  23.2676727  29.1768257  12.0425027  22.6395156  28.7220371  12.1556398
  27.0181400  35.6871612  13.6327859  26.8224183  36.2946347  13.0388162
  27.2415746  34.9939556  13.1519533  27.0216041  35.6749138  13.4743940
  25.4159930  32.5726350  13.7508727  26.1382582  32.7367508  13.2912533
  24.9367923  33.2936015  13.6448067  25.4523661  32.7024580  13.6674341
  33.3753438  28.9090149  19.1305412  32.5364538  28.9351428  18.8943675
  33.4457805  29.5560884  19.7110759  33.2621831  29.0086275  19.1814529
  23.0667547  34.9784423  22.8562867  23.5788644  35.2568676  22.2071627
  22.7803889  35.7173717  23.2225680  23.1002410  35.1286776  22.8152745
  31.8222716  25.8075526  13.8633028  32.5249069  25.6083274  13.3852986
  31.5566905  25.0351468  14.1701872  31.8869348  25.6638492  13.8378470
  20.1534453  29.4854614  13.1526604  20.2550590  30.2880776  13.4807579
  20.9490340  29.2841950  12.8549684  20.2862359  29.5740513  13.1561959
  26.5851272  27.0710811  22.9163909  26.3934469  27.0865946  23.7663332
  27.4349868  27.2674485  22.8930564  26.6826994  27.1025162  23.0387203
  20.9698185  29.6001793  20.8947725  20.8283677  28.7485733  21.0192233
  21.2538749  29.6430453  20.0709931  20.9906031  29.4801543  20.7915349
  31.1236778  31.4368883  15.0392213  30.8771492  31.3564634  15.8729002
  31.4521901  30.6522351  14.8454741  31.1358021  31.3095148  15.1339737
  27.0833805  34.1725601  24.4515197  27.2277181  34.7526810  23.8158307
  27.4309453  34.5501898  25.1565051  27.1561266  34.3146305  24.4614191
  29.2553722  33.3715770  22.2340328  28.5077036  33.5646784  21.8288606
  29.4095247  32.5460989  21.9964449  29.1676150  33.2780881  22.1385734
  29.4955499  27.2666320  23.1235732  29.9528113  27.9990295  23.2508524
  29.5711828  26.8432786  23.8822988  29.5746469  27.3123559  23.2536808
  21.7388490  27.5132140  24.2125176  21.2030680  26.9012498  24.5285943
  21.8006255  28.0880276  24.8658842  21.6684123  27.5079068  24.3560602
  33.9682825  20.4456196  16.9929575  34.0866393  20.9032659  16.2596877
  33.7945001  19.6401457  16.7065792  33.9601996  20.3949968  16.8430508
  27.3737877  29.2568424  19.9677556  26.5833952  29.0759885  20.2894892
  27.7698500  28.4795377  19.9507850  27.3154753  29.1155885  20.0130104
  29.8875707  31.7328684  24.4501055  29.8234849  32.5938640  24.3221191
  30.0272895  31.4160677  23.6496606  29.8991178  31.8128850  24.3129268
  28.5694801  34.4260823  18.5917258  28.1457050  34.6265322  17.8556276
  28.3939657  33.5789671  18.7041558  28.4805682  34.3309604  18.4990948
  23.8577246  34.9212874  14.0245230  24.0141865  34.8559677  14.8801222
  24.1977839  35.6961427  13.8123910  23.9310481  35.0262072  14.1199824
  31.5445660  29.1907062  22.9460894  31.7587630  28.5517977  22.3924248
  30.9279559  29.6352886  22.5168756  31.4850990  29.1617206  22.8011325
  20.4311508  32.1047825  14.3405997  20.8110473  32.5232370  13.6766265
  19.8566873  32.6861280  14.6474841  20.4022833  32.2525684  14.2882738
  33.7084748  30.7996128  23.8844201  32.8961430  30.4922018  23.9657374
  34.1674683  30.3195128  24.4486913  33.6565133  30.6832620  23.9798795
  30.9360389  22.3006998  17.9348237  30.0653947  22.2745719  17.8881546
  31.1900730  22.1284190  17.1174082  30.8453949  22.2717142  17.8068373
  27.9609529  24.3113226  19.3921707  27.4448018  23.6193418  19.5173286
  27.4003458  24.9784004  19.3384306  27.8016043  24.3076484  19.4027773
  30.0301763  24.8506187  21.2214560  29.6433516  24.8755218  22.0028090
  29.5434700  24.2847865  20.7689076  29.9014272  24.7701937  21.2702463
  29.6958905  21.7373172  23.5124820  30.3252023  22.2733472  23.2345890
  29.8644767  21.6450531  24.3638385  29.8136699  21.8034534  23.5973348
  29.4972819  26.5244367  25.7851231  30.3246249  26.2529516  25.8409846
  29.5180666  27.3205208  26.1415049  29.6225670  26.6024121  25.8466414
  24.0742309  33.6708230  18.9721492  23.2330316  33.5712104  19.1800386
  24.2832317  34.4403710  19.3235812  23.9807002  33.7700273  19.0548807
  21.5517876  31.2927766  16.8006242  21.1574574  31.3670778  16.0256352
  20.9957993  31.6785713  17.3514604  21.4120689  31.3609541  16.7673902
  33.1882823  24.2709060  16.4810121  33.3932416  24.2031368  17.3267119
  32.8609247  25.0767882  16.4131299  33.1698071  24.3795001  16.5969777
  27.8858974  31.5989629  18.2219089  27.5822112  31.0445617  18.8229497
  27.1838395  31.7781839  17.7347124  27.7375184  31.5434411  18.2388795
  26.9425071  28.9090148  12.7863791  27.2184806  28.1909061  12.3741359
  27.5423741  29.5075068  12.5784897  27.0718336  28.8910519  12.6944552
  30.4435592  26.5803666  11.0610386  30.8979338  26.7514226  11.7858231
  30.9175638  25.9671777  10.6608162  30.5803912  26.5154551  11.1084148
  23.9651117  36.0651992  20.3913125  23.3739050  36.7061490  20.3616140
  24.7272141  36.4889609  20.3644424  23.9899378  36.2227830  20.3828272
  24.3611740  27.2253990  21.0581142  24.8213222  27.2992919  21.7956266
  24.4067847  28.0235244  20.7080964  24.4362295  27.3548137  21.1153899
  26.0095090  27.8920684  25.6253169  25.6180655  27.2454032  26.0608947
  26.1780952  28.4832120  26.2447425  25.9766000  27.8834952  25.7815875
  27.7848612  33.2846200  12.1655393  28.5290657  33.6720477  12.4038343
  27.9309308  32.4403626  12.3295881  27.9159197  33.2176673  12.2249363
  29.7028187  25.0796459  17.1987255  28.8564232  25.2519267  17.0728605
  29.6999320  24.2745803  17.5353083  29.5775337  24.9857488  17.2298382
  30.7726488  28.8571674  18.0649313  30.2986442  28.3313436  18.5754624
  31.1444623  28.3101146  17.4964174  30.7576377  28.6987670  18.0564460
  21.1499518  30.8543180  23.4332859  22.0125131  30.7538889  23.3470188
  20.8191301  30.2737890  22.8718431  21.2284714  30.7534807  23.3378264
  32.7009987  29.7508228  11.1275067  32.1733006  29.8336972  10.4380775
  33.1605695  30.4926100  11.1239711  32.6911838  29.8728891  11.0249762
  24.5101304  29.6785629  20.0943277  23.8854374  29.6904021  19.4869229
  24.1746899  30.1545804  20.7434517  24.3686796  29.7504146  20.0999845
  24.6943052  28.0210748   6.1515962  24.3455857  28.6730473   6.6147511
  24.2139498  28.0067861   5.4239833  24.5713296  28.1153801   6.1127053
  21.2226979  37.7386089  21.5347041  20.6926904  37.0478528  21.5842016
  21.4952073  37.7296275  20.7059750  21.1851702  37.6353221  21.4194457
  23.7792049  31.2878777  22.3118145  23.9385536  30.5322101  22.7169867
  23.5984943  31.8369717  22.9658883  23.7757408  31.2572591  22.4680851
  31.7212352  23.4540013  22.8668935  31.2252913  23.6503687  22.1760501
  32.4781414  23.8532681  22.6957736  31.7599177  23.5417746  22.7389071
  28.9915232  27.1282359  19.4572245  29.0157719  26.5942471  18.7685025
  29.2426705  26.6199667  20.1197836  29.0325150  26.9743262  19.4536890
  16.5022822  34.4113853  18.8915389  16.3966271  34.3660698  18.0267473
  15.7523042  34.7567634  19.1729674  16.3758424  34.4554762  18.8052719
  25.2716554  25.8553177  18.8377990  25.3114926  26.3562383  19.5512697
  24.4466219  25.9463570  18.5683913  25.1556080  25.9434993  18.9028528
  26.6930917  32.3713687  21.1351889  25.8622847  32.5387505  20.9287137
  26.6382435  31.9949637  21.9200774  26.5620332  32.3403418  21.2200417
  24.5014701  25.8622580  26.7708299  25.1267404  25.3184712  27.0437732
  24.0465181  25.3817497  26.2016090  24.5262961  25.7112061  26.7269893
  25.0666961  30.6469278  11.6642006  25.2069922  31.1441742  12.3670648
  25.5649494  29.9455573  11.8056220  25.1608042  30.6171257  11.7893585
  25.0967184  31.5136389   8.9934583  25.7312263  32.1096814   8.9284045
  25.1792794  31.2139847   9.8080453  25.2023735  31.5577297   9.1037670
  26.6746166  27.4450365   8.9680025  26.9962007  26.9653447   8.3139287
  26.9373110  28.2550011   8.7770837  26.7612192  27.4940262   8.8435517
  32.0705321  26.8322559  21.3303504  32.4960393  26.3795085  20.7187031
  31.4562315  26.2782629  21.6068292  32.0433967  26.6836535  21.2808529
  21.6020171  33.7104230  12.2624129  22.1112401  34.3068737  12.6435435
  22.0754444  33.4430204  11.5800549  21.7463547  33.7590045  12.2178652
  30.5099544  23.3037658  14.7394081  29.8667862  23.1535305  15.3079220
  30.1698951  23.0580004  13.9743186  30.3644622  23.2449781  14.7097096
  35.2627018  27.7152969  17.0714463  35.6154628  27.2882692  17.7460262
  34.4041820  27.6303812  17.2015539  35.1876463  27.6397709  17.1909473
  23.9610703  30.3460488  15.1297310  23.2422692  30.7624621  15.3970173
  24.3323065  30.9114727  14.5788948  23.9102635  30.4909770  15.0880117
  33.2610284  30.9788337  21.0199305  33.2408211  30.7971633  21.8734084
  33.3089485  31.8500356  20.9958889  33.2644925  31.0804876  21.1422600
  29.7357278  29.3858488  10.4670689  29.1422117  29.7075485   9.9155256
  29.7732555  28.5399584  10.2591795  29.6531667  29.3082817  10.3553460
  32.6115094  29.3437993  13.8972439  32.3828787  29.3670694  13.0550797
  32.8713170  28.5195460  14.0167450  32.6161282  29.2254073  13.7897637
  26.8934323  31.1972466  23.4997539  26.3813226  30.5893649  23.8582571
  26.7213819  31.9129058  23.9671515  26.7923960  31.2135765  23.6213763
  21.7400037  29.6410041  26.1499901  21.5702628  30.3011416  25.6048108
  21.2965987  29.8516602  26.8712390  21.6499371  29.7696023  26.1761531
  25.6659857  27.8814539  15.1926635  26.1417223  28.2431619  14.5576816
  25.1648456  28.5371007  15.4726778  25.6625216  28.0308728  15.1403376
  30.7703393  29.1196711  25.9399795  31.3274823  28.8910520  25.3078260
  30.4464458  29.8802376  25.6635007  30.8049803  29.1980547  25.8056292
  18.6402102  32.5456907  21.4088391  18.0928821  31.8757552  21.5269259
  19.4294480  32.1786755  21.4731858  18.6754285  32.3921893  21.4357092
  27.7086510  30.0255739   8.5600019  28.0885475  30.0435368   7.7751134
  26.9679106  30.4709728   8.4390866  27.6555348  30.0937514   8.4263587
  35.3371800  28.3337930  14.1475598  35.3366027  28.1786587  15.0059874
  35.1327980  29.1800917  14.0916983  35.3071578  28.4358551  14.2663537
  17.3989071  31.7577715  18.5634414  17.2210832  31.3054324  19.2889330
  17.1108093  32.5603876  18.7472892  17.3302024  31.8100272  18.6977917
  19.1361541  34.2905438  15.6756173  18.2707061  34.2791129  15.5638944
  19.2360357  34.1035661  16.5227312  19.0235708  34.2611500  15.7845118
  28.6312566  24.2500854  23.7748185  28.7640471  23.4531848  24.1029161
  29.0157718  24.7767257  24.3546461  28.7068894  24.2100771  23.9091688
  31.7044921  21.1731180  20.3729279  30.8990885  21.0628910  20.6897117
  31.5751656  21.2743636  19.5159144  31.5665054  21.1714851  20.2937319
  35.1610881  27.3376672  20.9668976  34.5773870  27.8385879  20.5546543
  35.4815175  26.8306229  20.3333299  35.1224057  27.3368507  20.8127483
  27.7005680  26.2517267  11.2427650  28.5221375  26.4215580  11.0009345
  27.2375331  26.4064528  10.5193948  27.7536843  26.2999000  11.0999295
  26.2901012  24.2460029  22.0226079  26.8345425  23.9051156  22.6130421
  26.3437948  25.1045491  22.1647364  26.3790132  24.3215289  22.1307953
  15.1400971   7.3849108   4.1977838  15.7838426   7.8262272   4.5873997
  15.4657226   6.5802534   4.1108097  15.2832799   7.3314303   4.2423315
  19.7860346   2.6104471  12.2637509  19.8743692   2.4230611  13.1115720
  20.2150059   1.9641900  11.8642356  19.8622449   2.4867478  12.3309261
  17.3530806   1.8935631  11.2455172  16.7901641   1.4808241  11.7694833
  18.1151829   1.8188536  11.6648315  17.3825255   1.8213031  11.3848172
  19.8980405   2.0413490  14.9281293  20.6820822   2.1544338  15.2937035
  19.6977000   1.2154627  15.1239979  19.9846431   1.9360209  15.0115679
  20.0550799   3.9523592   8.5747749  19.2566045   3.7123092   8.8321617
  20.5036810   4.0037985   9.3214796  20.0025410   3.9245983   8.7232673
  14.8779800   3.7821196   8.2516270  15.0269364   3.2224112   7.5989675
  15.6579802   3.8613198   8.6348789  15.0153894   3.7106762   8.2113219
  17.4033101   3.9535839   9.5300761  17.3276772   3.2844650  10.0851549
  17.3322960   4.6553627  10.0441427  17.3813708   3.9580747   9.6877609
  16.7924735   7.3604159   7.9878762  17.2820665   6.6614948   7.8054426
  16.2208967   7.0628029   8.5754819  16.7809265   7.2130383   8.0479803
  23.0567239   1.6792327   8.8533750  23.8459617   1.3281392   8.9735831
  23.2310837   2.4928715   8.5910384  23.1987521   1.7478184   8.8321618
  14.6695566   0.2332173   9.8631234  14.5615920   0.2434235  10.7293292
  14.8791347   1.0586953   9.6736188  14.6845677   0.3573247   9.9635326
  22.4458874   2.9354127   4.7585196  22.2478562   3.4244941   4.0641407
  21.8246585   3.1395368   5.3369329  22.3246438   3.0370665   4.7408419
  18.6261380  -0.1137938   9.4218888  18.1186471   0.4397909   9.8659519
  18.3288026  -0.0529648   8.6037663  18.5066265  -0.0231627   9.3667345
  17.8703865   4.8186620   6.3275895  17.6469519   4.0605450   6.6959921
  17.3813708   4.8484642   5.6056335  17.7647314   4.7108845   6.2752636
  19.8847616   4.1977164   4.5336596  19.4863899   4.3079434   3.7657416
  19.2698835   4.4059230   5.1163156  19.7346505   4.2450732   4.5067895
  13.4836791   5.4796160   6.1826325  13.7983350   6.2932549   6.1904107
  13.8930205   5.0946379   6.8508485  13.5904889   5.5424863   6.2830417
  22.5238296   2.5067520  15.9322210  22.6335261   1.7176081  16.2878957
  22.8529192   2.4173457  15.1296548  22.5890701   2.3773373  15.8664600
  21.0735257   0.6884141  10.5157830  20.5256203   0.0642025  10.2477895
  21.5348286   0.8778413   9.8001909  21.0602467   0.6243191  10.3708261
  20.6393584   1.6935214   7.0467171  21.4591957   1.5498180   7.3083466
  20.3587661   2.3181413   7.5883609  20.7190327   1.7645566   7.1655111
  24.6948059  17.9738434   0.5300210  23.9430958  17.5953973   0.3016255
  25.1434070  18.0056868  -0.2180980  24.6497725  17.9224042   0.3857712
  33.6200635  14.7062242  14.3723434  34.3267403  14.2114273  14.5010369
  33.8088571  15.1471324  13.6426092  33.7528541  14.6980593  14.2832480
  33.1558740  10.4967760   7.4094630  33.7014700  11.1752847   7.4688599
  33.0975616  10.3555221   6.5496211  33.2274654  10.5759762   7.2906690
  26.2732815  17.9856827   2.7962982  26.3743178  17.1757181   3.1060110
  25.6774560  17.8913773   2.1662661  26.2005353  17.8521855   2.7489221
  26.1133554  22.9034416   4.1977838  26.7571010  23.3447580   4.5873997
  26.4389810  22.0987842   4.1108097  26.2565383  22.8499610   4.2423315
  19.4697859  14.0077113   2.4215316  19.2348043  13.1744766   2.3147585
  19.6083500  14.2881779   1.6076517  19.4553522  13.9260617   2.2857671
  21.7687947   6.1762844   5.3199624  21.1492978   5.5855491   5.1509638
  21.6671810   6.7674279   4.6863947  21.6625622   6.1766926   5.2004613
  26.8154134  15.9146391  -0.4302300  27.1369975  16.4551598  -1.0340992
  27.4626231  15.3443162  -0.2980010  26.9580189  15.9105566  -0.4995265
  21.4957080   9.7215125   7.5643192  21.3715776  10.3077571   8.1993011
  22.1475364   9.2275321   7.8655467  21.5730729   9.7353930   7.7029122
  26.5215421  12.8976842   6.8430704  27.1664423  12.4049286   6.5241652
  26.7617198  13.0401629   7.6696782  26.6526006  12.8454285   6.9180237
  29.0601512  15.7431748   6.4937596  29.3424755  14.9483154   6.2724352
  29.7887672  16.2212336   6.5142657  29.2091076  15.6966345   6.4640611
  21.0315184  18.8862784   3.6971522  20.5482762  19.6113274   3.6731106
  21.8438502  19.1838914   3.8081680  21.0805931  19.0365138   3.7098801
  27.1029338  17.6794965   6.3021336  26.5856279  17.3202380   5.6982644
  27.8003729  17.1557139   6.3127403  27.1294919  17.5492653   6.2151595
  30.7592930  18.1289779  12.2637509  30.8476276  17.9415919  13.1115720
  31.1882642  17.4827208  11.8642356  30.8355032  18.0052786  12.3309261
  28.3263390  17.4120939  11.2455172  27.7634224  16.9993548  11.7694833
  29.0884413  17.3373844  11.6648315  28.3557838  17.3398339  11.3848172
  23.8859381  19.4018960   3.8491802  24.5879960  18.8870949   3.9064558
  23.8056864  19.7293111   4.6538677  23.9783141  19.3733186   3.9764594
  24.9338288   9.6394547  12.9772217  25.1058791   9.5300441  13.8257498
  25.4707645  10.2848952  12.7403409  25.0383292   9.7186548  13.0677314
  23.2110156  15.5925312   3.3577410  24.0499056  15.8248245   3.4051171
  23.2421926  14.7229623   3.2884445  23.3391874  15.4982258   3.3542055
  23.8362859  16.0126187   7.6590715  24.3761084  15.8697318   8.3294088
  23.1532806  16.4122938   8.0274742  23.8155013  16.0505858   7.8125137
  30.8712989  17.5598798  14.9281293  31.6553406  17.6729646  15.2937035
  30.6709584  16.7339935  15.1239979  30.9579014  17.4545517  15.0115679
  19.2400004  12.2326478   7.8125137  18.9738420  11.4165594   7.9716127
  19.2538569  12.2779633   6.9420652  19.2024727  12.1183383   7.7078619
  23.9898611   5.7704856  10.4592145  23.2970408   5.3001836  10.7052876
  24.6058938   5.5443161  11.0333852  23.9783141   5.6671988  10.5801297
  31.0283382  19.4708900   8.5747749  30.2298628  19.2308400   8.8321617
  31.4769394  19.5223293   9.3214796  30.9757994  19.4431291   8.7232673
  19.6493418  13.0185257   5.0936881  19.4668991  12.9932143   4.2409173
  20.3843087  13.4884195   5.1325790  19.7307482  13.0846619   4.9734800
  22.7139170   9.7370260  11.6018990  23.4379142   9.7223291  12.0883885
  22.8155306  10.4465615  11.1040958  22.8357379   9.8394963  11.5997777
  30.0884119  13.2169345  16.4667937  29.2957100  13.5312857  16.6520556
  30.2033046  13.4320813  15.6288721  29.9879530  13.2953181  16.3706272
  31.0167912  13.1189548  11.4053234  31.5906774  12.4816793  11.5601797
  30.9382716  13.1193631  10.5362891  31.0901147  13.0254660  11.2999644
  19.6164328   9.8978758   5.2435948  20.1937831   9.7615209   5.8828193
  18.9178390   9.4414542   5.4981532  19.5985350   9.8101024   5.3758237
  26.3731631  11.5512814   3.4574431  26.1150875  10.7184548   3.4305730
  26.4280114  11.7770427   2.6166931  26.3431409  11.4610585   3.3294568
  25.3466343   9.1050576   3.9439326  24.7715934   9.2642744   4.5803287
  24.9702019   8.4685985   3.4807776  25.2069155   9.0348389   3.9693884
  29.0139631   7.5773925   8.8031704  28.6254064   7.1528143   8.1483895
  28.3494330   7.8256075   9.3108731  28.8586559   7.5512646   8.7819572
  25.9886478  15.2794047   2.1280823  26.6260425  15.0405795   2.6732617
  26.4141550  15.4831206   1.3933984  26.1462644  15.2745058   2.0997980
  20.6799120  17.5182384   6.0115127  20.7203266  17.7897235   5.1834907
  21.2393644  18.0424292   6.4272915  20.7682466  17.6358139   5.9507015
  26.7957833   3.7802752  16.1818297  26.4811274   4.5502315  15.9187859
  26.4747766   3.2173008  15.5970524  26.7016753   3.8113021  16.0559647
  28.3707950  15.7566470   3.8074609  28.4446958  15.5941642   4.6616459
  29.1877456  15.9456660   3.5635091  28.5024309  15.7603212   3.8972635
  22.1313707  16.1024333   0.8369053  21.3051824  16.3486070   0.7103332
  22.1925698  16.0236414   1.7031111  22.0187874  16.1269282   0.9457997
  27.5007281  13.5218959   9.6241213  27.0018975  14.2334727   9.7026102
  28.3107505  13.8419626   9.5859376  27.5463388  13.6745808   9.6297782
  24.8518451  20.6968595   1.6048233  24.6318747  20.4065950   2.3974900
  24.6312973  20.0383550   1.0766145  24.7866045  20.5568304   1.6437141
  23.7635398  12.7841912   3.8703934  23.4748647  12.1579383   4.4049662
  24.6318747  12.7262199   3.9368615  23.8495650  12.6829456   3.9594889
  23.9667672  14.4237163  -0.2053701  24.7213640  14.8050202   0.0081762
  23.3738284  14.8748307   0.2492996  23.9904385  14.5465990  -0.1070822
  26.4274339   6.3800003  14.9203512  25.6174115   6.6857783  14.8093354
  26.9049026   7.1005586  15.0356096  26.3777818   6.5314605  14.9210583
  25.2865898  15.5945724   5.1686415  24.7646652  15.7346016   5.8538279
  25.6739919  14.8356389   5.3588532  25.2669599  15.5031248   5.2987491
  26.7132224  12.6249743   0.5667906  26.5175007  13.2324478  -0.0271791
  26.9366570  11.9317687   0.0859580  26.7166865  12.6127269   0.4083987
  25.1110754   9.5104481   0.6848774  25.8333406   9.6745639   0.2252580
  24.6318747  10.2314146   0.5788114  25.1474485   9.6402711   0.6014388
  22.7618371  11.9162554   9.7902914  23.2739468  12.1946807   9.1411674
  22.4754713  12.6551848  10.1565727  22.7953234  12.0664907   9.7492792
  26.2802096   4.0088942   9.8503956  26.0885293   4.0244077  10.7003379
  27.1300692   4.2052617   9.8270610  26.3777818   4.0403294   9.9727250
  20.6649009   6.5379924   7.8287772  20.5234501   5.6863864   7.9532280
  20.9489573   6.5808584   7.0049978  20.6856855   6.4179674   7.7255396
  34.7135650  15.0830373   5.7619042  34.5750010  15.7811419   6.2667784
  33.9335648  14.9279030   5.4055223  34.5778877  15.1630540   5.7845316
  33.0513735  11.3826749  12.0141423  33.0461774  10.5106565  12.0183850
  33.7574729  11.5814918  11.5410879  33.1558739  11.2830623  11.9448459
  26.7784629  11.1103733  11.3855243  26.9228005  11.6904941  10.7498353
  27.1260277  11.4880029  12.0905098  26.8512090  11.2524437  11.3954238
  28.9504546  10.3093901   9.1680375  28.2027860  10.5024915   8.7628653
  29.1046071   9.4839120   8.9304496  28.8626974  10.2159012   9.0725781
  25.8512384  19.3006504   8.2516270  26.0001948  18.7409420   7.5989675
  26.6312386  19.3798506   8.6348789  25.9886477  19.2292070   8.2113219
  28.3765684  19.4721147   9.5300761  28.3009356  18.8029958  10.0851549
  28.3055544  20.1738935  10.0441427  28.3546291  19.4766055   9.6877609
  29.1906323   4.2044452  10.0575779  29.6478937   4.9368426  10.1848571
  29.2662652   3.7810917  10.8163034  29.2697293   4.2501690  10.1876855
  21.4339314   4.4510271  11.1465222  20.8981504   3.8390630  11.4625990
  21.4957079   5.0258407  11.7998889  21.3634947   4.4457199  11.2900649
  27.0688701   6.1946556   6.9017603  26.2784776   6.0138016   7.2234938
  27.4649324   5.4173508   6.8847897  27.0105577   6.0534017   6.9470151
  32.4532387  13.8288986   4.6277049  31.7777389  13.5974218   5.1290436
  32.4624764  13.2210169   4.0019154  32.3550892  13.7047911   4.6093201
  29.5826531   8.6706815  11.3841102  29.5185673   9.5316771  11.2561238
  29.7223719   8.3538808  10.5836653  29.5942001   8.7506981  11.2469314
  28.2645625  11.3638954   5.5257305  27.8407874  11.5643453   4.7896323
  28.0890480  10.5167802   5.6381604  28.1756506  11.2687736   5.4330995
  27.7657319  22.8789467   7.9878762  28.2553249  22.1800256   7.8054426
  27.1941551  22.5813337   8.5754819  27.7541849  22.7315691   8.0479803
  23.5528070  11.8591005   0.9585277  23.7092689  11.7937808   1.8141269
  23.8928663  12.6339558   0.7463957  23.6261305  11.9640204   1.0539871
  33.9624322  15.4451536  16.9405552  34.7759188  15.1736685  17.1010685
  33.8019289  15.1459076  16.1365748  34.0594271  15.3606462  16.8450958
  31.2396484   6.1285194   9.8800941  31.4538454   5.4896108   9.3264295
  30.6230383   6.5731017   9.4508802  31.1801813   6.0995337   9.7351372
  20.1262332   9.0425956   1.2746044  20.5061297   9.4610501   0.6106312
  19.5517697   9.6239412   1.5814888  20.0973657   9.1903815   1.2222785
  33.4035572   7.7374259  10.8184248  32.5912254   7.4300149  10.8997421
  33.8625507   7.2573259  11.3826960  33.3515957   7.6210751  10.9138842
  30.4989080   9.1434330  15.6012950  30.9688711   9.7676447  15.9880824
  30.5450960   8.4751306  16.1606165  30.5756956   9.1369010  15.7413022
  33.9745566  16.5057827  12.2128393  34.6125287  16.0118022  11.8790849
  33.3319658  16.4335227  11.6280620  33.9739793  16.4216835  12.0770748
  34.0299823  17.1977635   8.8533750  34.8192201  16.8466700   8.9735831
  34.2043421  18.0114023   8.5910384  34.1720105  17.2663492   8.8321618
  23.7693133  10.6086361   5.9061539  22.9281140  10.5090235   6.1140432
  23.9783141  11.3781841   6.2575859  23.6757826  10.7078404   5.9888854
  21.2468700   8.2305898   3.7346289  20.8525398   8.3048909   2.9596399
  20.6908817   8.6163844   4.2854651  21.1071513   8.2987672   3.7013949
  27.5809798   8.5367760   5.1559136  27.2772936   7.9823748   5.7569544
  26.8789219   8.7159970   4.6687170  27.4326008   8.4812542   5.1728842
  25.6428149  15.7517481   9.8631234  25.5348504  15.7619543  10.7293292
  25.8523931  16.5772261   9.6736188  25.6578260  15.8758555   9.9635326
  23.6601941  13.0030123   7.3253172  23.0689874  13.6439621   7.2956187
  24.4222965  13.4267740   7.2984471  23.6850202  13.1605961   7.3168319
  24.0562564   4.1632121   7.9921189  24.5164046   4.2371050   8.7296313
  24.1018671   4.9613375   7.6421011  24.1313119   4.2926268   8.0493946
  25.7045914   4.8298816  12.5593216  25.3131479   4.1832163  12.9948994
  25.8731776   5.4210251  13.1787472  25.6716824   4.8213083  12.7155922
  33.4191457  18.4539435   4.7585196  33.2211146  18.9430249   4.0641407
  32.7979168  18.6580676   5.3369329  33.2979022  18.5555973   4.7408419
  20.8450342   7.7921311  10.3672905  21.7075955   7.6917021  10.2810235
  20.5142125   7.2116021   9.8058478  20.9235538   7.6912938  10.2718311
  24.2052128   6.6163760   7.0283324  23.5805198   6.6282152   6.4209276
  23.8697723   7.0923936   7.6774564  24.0637620   6.6882277   7.0339892
  20.9177803  14.6764221   8.4687088  20.3877728  13.9856659   8.5182063
  21.1902897  14.6674406   7.6399796  20.8802526  14.5731352   8.3534504
  31.1184049  12.1187465   8.4425459  30.5041042  11.5745515   8.7374095
  31.6351334  11.6051702   7.9631276  31.1039711  11.9623874   8.4149688
  30.3580346  13.1891735   6.1769758  29.9307954  12.5641454   5.7435193
  30.3505290  12.9066657   7.0028765  30.2939487  13.0544516   6.2349586
  23.4742873   8.2256908   9.2458192  23.6336360   7.4700232   9.6509914
  23.2935767   8.7747848   9.8998930  23.4708232   8.1950722   9.4020898
  16.1973645  11.3491985   5.8255436  16.0917095  11.3038829   4.9607520
  15.4473865  11.6945765   6.1069721  16.0709248  11.3932893   5.7392766
  24.9667378   2.7931308   5.7718036  25.0065750   3.2940515   6.4852744
  24.1417043   2.8841702   5.5023959  24.8506904   2.8813124   5.8368575
  27.1496991  12.3592048  13.8738331  26.2992621  12.4963762  14.0095976
  27.3125119  11.6255826  14.3186033  27.0480854  12.2706149  13.9593930
  26.3881741   9.3091818   8.0691935  25.5573671   9.4765636   7.8627183
  26.3333258   8.9327769   8.8540821  26.2571156   9.2781549   8.1540464
  24.1965525   2.8000711  13.7048346  24.8218228   2.2562843  13.9777778
  23.7416004   2.3195628  13.1356136  24.2213785   2.6490192  13.6609940
  29.5993963  15.4047370   9.4218888  29.0919054  15.9583217   9.8659519
  29.3020609  15.4655660   8.6037663  29.4798848  15.4953681   9.3667345
  28.8436448  20.3371928   6.3275895  28.6202103  19.5790758   6.6959921
  28.3546292  20.3669950   5.6056335  28.7379897  20.2294153   6.2752636
  23.6561527   7.2838620   2.0637356  22.9373516   7.7002752   2.3310220
  24.0273889   7.8492858   1.5128995  23.6053459   7.4287901   2.0220163
  32.9561108   7.9166469   7.9539352  32.9359035   7.7349764   8.8074131
  33.0040309   8.7878487   7.9298936  32.9595749   8.0183007   8.0762647
  30.9007438  14.5053661  13.8787829  30.8603293  13.8603338  13.2932984
  31.7130756  14.4490278  14.1913241  31.0150591  14.4012627  13.8384778
  27.4914905  20.5572386   3.7812980  27.0775304  19.8946517   3.3916821
  28.1762280  20.7050245   3.2608674  27.5313277  20.4813045   3.6469477
  30.8580199  19.7162472   4.5336596  30.4596483  19.8264742   3.7657416
  30.2431419  19.9244538   5.1163156  30.7079089  19.7636040   4.5067895
  26.5885147   8.1350597  10.4337586  26.0764050   7.5271780  10.7922618
  26.4164643   8.8507190  10.9011562  26.4874784   8.1513896  10.5553810
  21.4350861   6.5788172  13.0839948  21.2653451   7.2389547  12.5388155
  20.9916811   6.7894734  13.8052437  21.3450195   6.7074155  13.1101578
  30.4654217   6.0574842  12.8739842  31.0225647   5.8288651  12.2418307
  30.1415282   6.8180507  12.5975054  30.5000627   6.1358678  12.7396339
  18.3352926   9.4835038   8.3428438  17.7879645   8.8135684   8.4609306
  19.1245304   9.1164886   8.4071905  18.3705109   9.3300024   8.3697138
  28.1837334   9.1442495  13.8391849  28.9348661   9.4594172  14.1531403
  28.3759911   8.9421666  13.0125771  28.3228748   9.1609877  13.7635245
  17.0939895   8.6955846   5.4974461  16.9161656   8.2432455   6.2229377
  16.8058917   9.4982007   5.6812938  17.0252848   8.7478404   5.6317964
  18.8312365  11.2283570   2.6096220  17.9657885  11.2169260   2.4978991
  18.9311181  11.0413792   3.4567359  18.7186532  11.1989631   2.7185164
  34.8215295  12.7017251   7.4228980  35.2470367  12.1791672   6.8699405
  34.4572215  13.2998088   6.9017603  34.8301898  12.7127478   7.2637990
  24.4569375  20.9981468   6.1826325  24.7715934  21.8117857   6.1904107
  24.8662788  20.6131687   6.8508485  24.5637473  21.0610171   6.2830417
  31.4093895  16.4151515   3.7530137  31.8805073  17.1291778   3.9220123
  31.7454073  15.8150265   4.2890007  31.5289010  16.4322979   3.8562513
  33.4970879  18.0252828  15.9322210  33.6067845  17.2361389  16.2878957
  33.8261776  17.9358764  15.1296548  33.5623285  17.8958681  15.8664600
  32.0467841  16.2069449  10.5157830  31.4988787  15.5827333  10.2477895
  32.5080870  16.3963721   9.8001909  32.0335050  16.1428499  10.3708261
  21.7982395  14.9454577   5.8304934  22.4027252  14.9050411   5.2018755
  21.5909708  15.7925729   5.8608990  21.8571292  15.0642579   5.7421050
  31.6126167  17.2120522   7.0467171  32.4324541  17.0683488   7.3083466
  31.3320245  17.8366721   7.5883609  31.6922911  17.2830874   7.1655111
  17.0333677  13.9289194   5.7003857  16.9357955  13.1185466   6.0093914
  17.8162547  13.9080987   5.3150125  17.1349814  13.8056284   5.6890720
  32.7420530  21.6948152   5.3199624  32.1225562  21.1040799   5.1509638
  32.6404394  22.2859587   4.6863947  32.6358206  21.6952234   5.2004613
  32.4689663  25.2400433   7.5643192  32.3448360  25.8262879   8.1993011
  33.1207948  24.7460629   7.8655467  32.5463312  25.2539238   7.7029122
  30.2132588  27.7511786   7.8125137  29.9471003  26.9350902   7.9716127
  30.2271152  27.7964941   6.9420652  30.1757310  27.6368691   7.7078619
  34.9631194  21.2890164  10.4592145  34.2702991  20.8187144  10.7052876
  35.5791522  21.0628469  11.0333852  34.9515724  21.1857296  10.5801297
  33.6871753  25.2555568  11.6018990  34.4111726  25.2408599  12.0883885
  33.7887890  25.9650923  11.1040958  33.8089962  25.3580271  11.5997777
  33.7350954  27.4347862   9.7902914  34.2472051  27.7132115   9.1411674
  33.4487297  28.1737156  10.1565727  33.7685817  27.5850215   9.7492792
  31.6381593  22.0565232   7.8287772  31.4967085  21.2049172   7.9532280
  31.9222156  22.0993892   7.0049978  31.6589439  21.9364982   7.7255396
  32.4071898  19.9695579  11.1465222  31.8714087  19.3575937  11.4625990
  32.4689663  20.5443715  11.7998889  32.3367531  19.9642507  11.2900649
  35.0295148  19.6817429   7.9921189  35.4896629  19.7556358   8.7296313
  35.0751254  20.4798683   7.6421011  35.1045703  19.8111576   8.0493946
  31.8182925  23.3106619  10.3672905  32.6808538  23.2102329  10.2810235
  31.4874708  22.7301329   9.8058478  31.8968122  23.2098246  10.2718311
  35.1784711  22.1349068   7.0283324  34.5537781  22.1467460   6.4209276
  34.8430306  22.6109243   7.6774564  35.0370203  22.2067585   7.0339892
  34.4475457  23.7442216   9.2458192  34.6068943  22.9885540   9.6509914
  34.2668350  24.2933156   9.8998930  34.4440816  23.7136030   9.4020898
  27.1706229  26.8677293   5.8255436  27.0649678  26.8224137   4.9607520
  26.4206449  27.2131073   6.1069721  27.0441832  26.9118201   5.7392766
  35.1698108  18.3186019  13.7048346  35.7950812  17.7748151  13.9777778
  34.7148588  17.8380936  13.1356136  35.1946369  18.1675500  13.6609940
  32.4083445  22.0973480  13.0839948  32.2386035  22.7574855  12.5388155
  31.9649395  22.3080042  13.8052437  32.3182778  22.2259462  13.1101578
  29.3085509  25.0020346   8.3428438  28.7612229  24.3320991   8.4609306
  30.0977887  24.6350194   8.4071905  29.3437693  24.8485332   8.3697138
  28.0672479  24.2141154   5.4974461  27.8894240  23.7617763   6.2229377
  27.7791501  25.0167315   5.6812938  27.9985432  24.2663712   5.6317964
   2.0176072  22.0628829  14.7728286   1.7029513  22.7532308  15.2048708
   1.5003014  22.0073611  14.0713786   1.8940543  22.1563718  14.7325235
   6.3090517  30.2850035  20.0549162   5.4718938  30.3552222  20.2896756
   6.2778748  30.2874530  19.1823464   6.1808800  30.2960262  19.9608710
   3.9898357  25.3492817  18.6392884   4.6324265  25.4190921  19.2254800
   4.2421378  24.6822040  18.1372426   4.1220489  25.2619165  18.6520164
   6.4279859  30.1237454  14.3704848   6.1716424  29.3117396  14.1802731
   7.2709173  30.1315021  14.1435035   6.5145885  30.0049451  14.3089665
   1.2439578  25.1059657  22.9201129   1.9893170  24.9169468  22.5064554
   0.8276882  25.6317895  22.3614985   1.2924552  25.1561803  22.7765702
   8.6201849  32.4768886  17.8706634   9.1709770  31.8436955  18.1103726
   8.6045964  33.0084278  18.5622138   8.6987045  32.4617834  18.0085492
   2.3230255  30.7165219  16.9811230   1.9795021  29.9955555  17.3318479
   2.4223297  30.5079071  16.1389588   2.2872298  30.5789423  16.9082910
   1.4350608  20.1722851  16.7194935   1.5534176  20.6299314  15.9862238
   1.2612783  19.3668112  16.4331153   1.4269779  20.1216623  16.5695869
   3.4719525  31.1435497  19.5719622   3.0447133  31.0561845  18.8167722
   2.8345578  31.2513272  20.1574466   3.3149132  31.1468157  19.5465064
   3.9084293  24.5507480  15.6878247   3.2958607  25.0377882  16.0731979
   4.0048468  23.8750971  16.2315898   3.8322191  24.5225789  15.8257105
   6.5036188  30.4242162  17.1550713   6.2645958  30.3837996  16.3171497
   6.6670089  31.2713314  17.2816434   6.4926491  30.5434247  17.0504195
   2.7294801  27.4419624  16.7979823   3.0822411  27.0149347  17.4725622
   1.8709602  27.3570468  16.9280900   2.6544245  27.3664365  16.9174834
   4.1618861  22.5638036  17.7264136   3.6549725  21.8567175  17.6585313
   4.9586295  22.2331225  17.8565213   4.2046100  22.4111187  17.7363131
   2.8039583  28.0604585  13.8740958   2.8033809  27.9053242  14.7325234
   2.5995763  28.9067572  13.8182344   2.7739361  28.1625206  13.9928897
   2.6278664  27.0643328  20.6934336   2.0441653  27.5652534  20.2811903
   2.9482958  26.5572884  20.0598659   2.5891839  27.0635163  20.5392843
   1.0868418  14.4328897  14.0988795   1.7935185  13.9380928  14.2275729
   1.2756353  14.8737979  13.3691453   1.2196324  14.4247248  14.0097840
   3.8055842  14.2165181  11.1403447   3.5694480  13.3853246  11.0215508
   4.4499071  14.1650788  11.7258291   3.8650513  14.0862869  11.2089341
   4.8292263  14.0009630   7.2031742   4.5238080  14.7337687   7.5645057
   4.1098479  13.5947559   6.9224528   4.6779605  14.0491363   7.2144879
  10.5294055  10.6402631   6.5300086  10.4618555  10.6598590   5.6602673
  10.5149718  11.4832958   6.7555757  10.5172812  10.7676365   6.4352563
   2.1803433  14.8097029   5.4884402   2.0417792  15.5078074   5.9933144
   1.4003431  14.6545685   5.1320584   2.0446660  14.8897195   5.5110676
   1.4292105  15.1718192  16.6670913   2.2426970  14.9003340  16.8276045
   1.2687071  14.8725732  15.8631109   1.5262053  15.0873118  16.5716319
   1.4413349  16.2324482  11.9393753   2.0793069  15.7384678  11.6056210
   0.7987440  16.1601882  11.3545980   1.4407575  16.1483490  11.8036108
   1.4967605  16.9244290   8.5799110   2.2859984  16.5733355   8.7001192
   1.6711203  17.7380679   8.3175744   1.6387887  16.9930147   8.5586978
   7.2460145  12.5602548   8.0495810   7.3043269  13.0089197   8.7955787
   6.6126613  12.9701361   7.6125890   7.1611440  12.6876283   8.0948359
   2.8033042  11.7470242  10.0195805   3.5267241  11.2942769   9.8406825
   2.5383004  12.0274908   9.2368133   2.8714315  11.7221211   9.8774520
   5.2368356  10.7096653   8.5226355   5.8286196  11.3493904   8.5544553
   5.6727350  10.0119690   8.8118421   5.3886787  10.7015003   8.5707187
   2.2883078  12.4283906   7.1494340   2.7138149  11.9058328   6.5964765
   1.9239998  13.0264743   6.6282963   2.2969680  12.4394133   6.9903350
   0.9638662  17.7519483  15.6587570   1.0735627  16.9628044  16.0144317
   1.2929558  17.6625420  14.8561908   1.0291068  17.6225336  15.5929961
  15.5507600  24.5952029  -0.2624592  15.5201605  25.4496665  -0.0906323
  16.1488949  24.2947321   0.2961552  15.6344758  24.6768525  -0.1549790
   8.7507285  23.6827680   4.4928339   7.8945181  23.8436178   4.5437455
   8.7974939  22.8119744   4.5133400   8.6306396  23.5778482   4.5034405
  12.0601002  29.9514205  14.0988795  12.7667769  29.4566236  14.2275729
  12.2488937  30.3923287  13.3691453  12.1928907  29.9432556  14.0097840
  11.5959106  25.7419724   7.1359990  12.1415066  26.4204810   7.1953960
  11.5375982  25.6007184   6.2761572  11.6675020  25.8211725   7.0172051
   4.9615787  28.1428806   6.5696064   5.6064789  27.6501249   6.2507013
   5.2017564  28.2853592   7.3962142   5.0926372  28.0906248   6.6445597
   7.5001878  30.9883711   6.2202957   7.7825121  30.1935117   5.9989712
   8.2288038  31.4664299   6.2408018   7.6491442  30.9418308   6.1905972
   5.4783072  18.5306745   3.4618722   5.1486402  18.9817889   2.7922420
   4.8028074  18.4522909   4.0091728   5.3293508  18.5857881   3.4441945
  12.6859480  14.5192268   1.7068332  12.3712921  15.2095747   2.1388755
  12.1686421  14.4637050   1.0053833  12.5623950  14.6127157   1.6665281
  17.4819966  30.0943074   3.1938787  16.6517669  30.3053717   3.3572204
  17.4329219  29.2680128   2.9181071  17.3526702  30.0032680   3.1776153
   9.1993296  33.3741742  11.9902870   9.2876642  33.1867882  12.8381080
   9.6283008  32.7279171  11.5907717   9.2755398  33.2504750  12.0574621
   6.7663756  32.6572902  10.9720532   6.2034590  32.2445512  11.4960193
   7.5284779  32.5825807  11.3913675   6.7958204  32.5850302  11.1113532
  16.9773925  22.7413474   6.9889209  16.1402346  22.8115661   7.2236803
  16.9462156  22.7437969   6.1163511  16.8492207  22.7523701   6.8948757
   3.3738654  24.8846510  12.7037577   3.5459157  24.7752405  13.5522859
   3.9108011  25.5300915  12.4668770   3.4783658  24.9638512  12.7942674
  11.7004110  26.9369151   2.5801100  12.4561625  27.3700665   2.6190009
  11.8066435  26.2873920   3.1535736  11.8274281  26.9046635   2.6699126
  14.7384282  30.7642428   3.3303503  14.3019513  30.7679170   4.0862475
  14.4047197  31.4447927   2.8983081  14.6246902  30.8654884   3.3784336
   9.3113355  32.8050761  14.6546653  10.0953772  32.9181609  15.0202396
   9.1109950  31.9791898  14.8505339   9.3979381  32.6997480  14.7381040
  14.6581764  17.8056256   5.5732931  15.3007673  17.8754360   6.1594846
  14.9104785  17.1385479   5.0712473  14.7903897  17.7182604   5.5860210
   2.4298977  21.0156819  10.1857505   1.7370774  20.5453799  10.4318237
   3.0459304  20.7895124  10.7599212   2.4183507  20.9123951  10.3066658
  17.8728628  27.4823348   2.2223140  18.5345062  26.9214016   2.1219049
  17.2320040  26.9875379   2.5475832  17.8757495  27.3259757   2.2555481
  14.1593458  28.4988730   1.9635129  14.3949048  28.6433929   1.1361980
  14.3083022  29.2631138   2.3566643  14.2159262  28.6327785   1.8998733
   1.1539536  24.9822223  11.3284350   1.8779508  24.9675254  11.8149245
   1.2555672  25.6917578  10.8306318   1.2757745  25.0846926  11.3263137
   8.5284485  28.4621308  16.1933297   7.7357466  28.7764820  16.3785917
   8.6433413  28.6772776  15.3554082   8.4279896  28.5405145  16.0971632
  11.2015804  25.1855299   0.4828313  11.2962659  25.9244593   0.9367939
  10.5774648  24.7572774   0.9162878  11.1224834  25.2316620   0.6136461
   9.4568278  28.3641512  11.1318594  10.0307140  27.7268756  11.2867158
   9.3783082  28.3645594  10.2628252   9.5301513  28.2706623  11.0265005
   9.8933047  18.8993227   3.2843884   9.1889374  18.4102413   3.4427803
   9.9418021  18.9115702   2.4132329   9.7963099  18.8282875   3.1783224
   7.4539998  22.8225888   8.5297065   7.0654430  22.3980106   7.8749256
   6.7894696  23.0708038   9.0374091   7.2986925  22.7964610   8.5084933
  17.0963267  22.5800893   1.3044895  16.8399832  21.7680835   1.1142777
  17.9392581  22.5878460   1.0775082  17.1829292  22.4612891   1.2429712
  11.2766359  16.5200517   6.0421049  11.6576871  15.8378688   6.4288923
  10.4729643  16.2310119   5.8596713  11.2142821  16.3767566   6.0725105
  14.7788426  29.7350489  11.1403447  14.5427063  28.9038554  11.0215508
  15.4231655  29.6836096  11.7258291  14.8383097  29.6048177  11.2089341
   5.2358200  19.0254715  15.9083657   4.9211641  19.7954278  15.6453220
   4.9148132  18.4624971  15.3235884   5.1417119  19.0564984  15.7825007
  15.8024847  29.5194938   7.2031742  15.4970664  30.2522995   7.5645057
  15.0831062  29.1132867   6.9224528  15.6512189  29.5676671   7.2144879
  21.5026639  26.1587939   6.5300086  21.4351139  26.1783898   5.6602673
  21.4882301  27.0018266   6.7555757  21.4905395  26.2861673   6.4352563
  11.9122985  17.5623096   9.8541175  12.6576577  17.3732907   9.4404601
  11.4960290  18.0881334   9.2955032  11.9607960  17.6125242   9.7105749
  19.2885256  24.9332325   4.8046680  19.8393178  24.3000394   5.0443772
  19.2729371  25.4647718   5.4962185  19.3670452  24.9181273   4.9425539
   5.9407647  28.7670922   9.3506574   5.4419341  29.4786690   9.4291462
   6.7507871  29.0871589   9.3124736   5.9863754  28.9197771   9.3563142
  12.9913662  23.1728658   3.9151277  12.6478428  22.4518994   4.2658526
  13.0906705  22.9642510   3.0729635  12.9555705  23.0352862   3.8422957
   4.8674705  21.6251966  14.6468872   4.0574481  21.9309746  14.5358714
   5.3449392  22.3457549  14.7621456   4.8178184  21.7766568  14.6475943
  11.5104628  21.0920243   5.7910819  10.6715728  21.1181522   5.5549083
  11.5808995  21.7390979   6.3716166  11.3973021  21.1916369   5.8419936
   1.2018737  27.1614517   9.5168274   1.7139834  27.4398770   8.8677034
   0.9155079  27.9003811   9.8831087   1.2353600  27.3116871   9.4758152
   9.9573906  17.9905620   0.5238435  10.6600259  17.7913369   0.0458394
   9.6918095  17.2181563   0.8307279  10.0220538  17.8468586   0.4983877
  15.3862152  26.2988230   3.0772061  15.2996126  26.4543656   3.9306840
  14.9312632  26.9426306   2.7031466  15.3065408  26.4163985   3.1479168
   4.7202462  19.2540905   9.5769316   4.5285659  19.2696040  10.4268739
   5.5701058  19.4504580   9.5535971   4.8178184  19.2855257   9.6992611
   9.2587968  23.6198977   1.6997621   9.0122682  23.5394728   2.5334410
   9.5873091  22.8352445   1.5060148   9.2709211  23.4925242   1.7945144
  13.1536016  30.3282336   5.4884402  13.0150376  31.0263382   5.9933144
  12.3736014  30.1730993   5.1320584  13.0179243  30.4082503   5.5110676
  11.4914102  26.6278712  11.7406784  11.4862140  25.7558528  11.7449210
  12.1975095  26.8266881  11.2676239  11.5959106  26.5282586  11.6713819
   5.2184995  26.3555696  11.1120604   5.3628371  26.9356904  10.4763714
   5.5660643  26.7331992  11.8170458   5.2912456  26.4976400  11.1219599
   7.3904912  25.5545864   8.8945735   6.6428226  25.7476878   8.4894013
   7.5446438  24.7291084   8.6569857   7.3027340  25.4610975   8.7991141
   7.6306689  19.4496415   9.7841139   8.0879303  20.1820389   9.9113931
   7.7063018  19.0262880  10.5428395   7.7097659  19.4953653   9.9142216
  12.1034015  12.6286290   3.6534982  12.2217583  13.0862753   2.9202285
  11.9296191  11.8231551   3.3671200  12.0953186  12.5780062   3.5035916
   5.5089067  21.4398519   6.6282963   4.7185142  21.2589979   6.9500299
   5.9049690  20.6625471   6.6113258   5.4505943  21.2985980   6.6735512
  10.8932754  29.0740949   4.3542409  10.2177755  28.8426181   4.8555796
  10.9025130  28.4662132   3.7284514  10.7951258  28.9499874   4.3358561
   8.0226898  23.9158778  11.1106462   7.9586039  24.7768734  10.9826599
   8.1624085  23.5990771  10.3102013   8.0342368  23.9958944  10.9734675
   6.7045991  26.6090917   5.2522665   6.2808241  26.8095416   4.5161683
   6.5290847  25.7619765   5.3646965   6.6156872  26.5139699   5.1596355
  12.4024688  30.6903500  16.6670913  13.2159554  30.4188648  16.8276045
  12.2419655  30.3911040  15.8631109  12.4994637  30.6058426  16.5716319
   9.6796850  21.3737157   9.6066301   9.8938820  20.7348071   9.0529655
   9.0630750  21.8182981   9.1774163   9.6202180  21.3447300   9.4616732
  11.8435938  22.9826222  10.5449608  11.0312620  22.6752112  10.6262781
  12.3025873  22.5025222  11.1092320  11.7916323  22.8662714  10.6404202
   9.0711579  14.4837092   4.5953644   8.2005137  14.4575813   4.5486953
   9.3251920  14.3114285   3.7779490   8.9805139  14.4547236   4.4673781
   8.9389446  24.3886293  15.3278311   9.4089077  25.0128410  15.7146185
   8.9851326  23.7203269  15.8871525   9.0157322  24.3820974  15.4678382
   6.0960720  16.4943321   6.0527114   5.5799208  15.8023512   6.1778693
   5.5354648  17.1614098   5.9989713   5.9367233  16.4906578   6.0633180
   8.1652953  17.0336281   7.8819967   7.7784706  17.0585312   8.6633497
   7.6785890  16.4677959   7.4294484   8.0365462  16.9532032   7.9307871
  12.4145932  31.7509790  11.9393753  13.0525653  31.2569985  11.6056210
  11.7720024  31.6787190  11.3545980  12.4140159  31.6668798  11.8036108
  14.1402932  23.5998936   6.5059669  13.7130541  23.5125284   5.7507769
  13.5028985  23.7076711   7.0914513  13.9832540  23.6031596   6.4805111
   7.8310095  13.9203266  10.1730227   8.4603213  14.4563566   9.8951297
   7.9995957  13.8280625  11.0243792   7.9487889  13.9864629  10.2578755
   7.6324010  18.7074461  12.4456638   8.4597439  18.4359610  12.5015253
   7.6531856  19.5035303  12.8020457   7.7576860  18.7854215  12.5071821
  12.4700189  32.4429598   8.5799110  13.2592567  32.0918663   8.7001192
  12.6443787  33.2565987   8.3175744  12.6120471  32.5115455   8.5586978
  11.3234013  16.4539155   3.1415529  11.5283607  16.3861463   3.9872526
  10.9960437  17.2597976   3.0736706  11.3049261  16.5625095   3.2575184
   6.0210164  23.7819723   4.8824497   5.7173302  23.2275711   5.4834904
   5.3189585  23.9611933   4.3952531   5.8726374  23.7264505   4.8994202
   4.0828515  30.9969444   9.5896594   3.9748870  31.0071506  10.4558652
   4.2924297  31.8224224   9.4001548   4.0978626  31.1210519   9.6900686
  14.5767701  17.0070919   2.6218294  13.9642014  17.4941321   3.0072026
  14.6731876  16.3314410   3.1655945  14.5005599  16.9789228   2.7597152
   2.4962930  19.4084084   7.7186550   2.9564412  19.4823013   8.4561673
   2.5419037  20.2065338   7.3686371   2.5713485  19.5378231   7.7759306
   4.1446280  20.0750779  12.2858577   3.7531845  19.4284126  12.7214354
   4.3132143  20.6662214  12.9052832   4.1117190  20.0665047  12.4421283
  18.2192729  28.0787856   8.0495810  18.2775853  28.5274505   8.7955787
  17.5859196  28.4886669   7.6125890  18.1344024  28.2061590   8.0948359
  11.8591824  33.6991398   4.4850556  11.6611512  34.1882212   3.7906768
  11.2379535  33.9032639   5.0634690  11.7379388  33.8007936   4.4673780
   7.8379377  17.2626553   3.8592662   6.9915422  17.4349361   3.7334012
   7.8350510  16.4575897   4.1958490   7.7126527  17.1687582   3.8903789
   8.9077678  21.0401768   4.7254720   8.4337632  20.5143530   5.2360031
   9.2795814  20.4931241   4.1569582   8.8927567  20.8817764   4.7169867
  15.1714408  26.1004144   6.1361501  14.9312631  25.2610559   6.1403927
  15.6506415  26.1804310   6.8602274  15.2066592  25.9885543   6.2436303
  17.1719595  22.8805601   4.0890760  16.9329365  22.8401435   3.2511544
  17.3353497  23.7276753   4.2156481  17.1609899  22.9997686   3.9844242
  13.7765625  27.2655550  10.0195805  14.4999824  26.8128076   9.8406825
  13.5115588  27.5460216   9.2368133  13.8446899  27.2406519   9.8774520
   2.6452494  21.8615724   6.7548684   2.0205564  21.8734116   6.1474637
   2.3098089  22.3375899   7.4039924   2.5037986  21.9334241   6.7605253
   9.5584415  27.3639428   8.1690820   8.9441408  26.8197479   8.4639455
  10.0751700  26.8503665   7.6896636   9.5440077  27.2075837   8.1415048
   8.7980712  28.4343698   5.9035118   8.3708320  27.8093417   5.4700554
   8.7905657  28.1518620   6.7294126   8.7339853  28.2996479   5.9614946
   1.9143239  23.4708871   8.9723552   2.0736726  22.7152196   9.3775274
   1.7336133  24.0199811   9.6264290   1.9108598  23.4402685   9.1286258
   9.8563542  15.6370107   9.5274342   9.3604103  15.8333781   8.8365909
  10.6132604  16.0362775   9.3563144   9.8950367  15.7247841   9.3994479
   7.1266422  19.3112453   6.1177652   7.1508909  18.7772565   5.4290432
   7.3777895  18.8029762   6.7803243   7.1676340  19.1573357   6.1142297
   3.4067744  18.0383271   5.4983397   3.4466116  18.5392478   6.2118104
   2.5817409  18.1293665   5.2289320   3.2907270  18.1265087   5.5633935
   5.5897357  27.6044011  13.6003691   4.7392987  27.7415725  13.7361336
   5.7525485  26.8707789  14.0451393   5.4881220  27.5158112  13.6859291
   4.8282107  24.5543781   7.7957296   3.9974037  24.7217599   7.5892544
   4.7733625  24.1779732   8.5806181   4.6971522  24.5233512   7.8805824
   2.6365891  18.0452674  13.4313707   3.2618594  17.5014807  13.7043139
   2.1816371  17.5647591  12.8621497   2.6614151  17.8942155  13.3875300
  16.2100939  26.2281961   8.5226355  16.8018780  26.8679212   8.5544553
  16.6459934  25.5304998   8.8118421  16.3619371  26.2200311   8.5707187
   8.0394329  30.6499333   9.1484248   7.5319420  31.2035180   9.5924879
   7.7420975  30.7107623   8.3303023   7.9199214  30.7405644   9.0932705
  10.2056511  19.0152653   7.9908911  10.6311583  18.5625179   7.3792438
   9.5913505  18.4612724   8.2673699  10.1785157  18.8666629   7.9413937
  13.2350081  23.4427179   0.8229497  12.5641271  23.9856882   0.6942563
  13.9289831  23.9122035   0.5811192  13.2378948  23.5925451   0.7685025
  13.3978208  19.8983063   3.7319870  13.7505818  19.4712786   4.4065669
  12.5393010  19.8133907   3.8620947  13.3227653  19.8227804   3.8514881
  11.3961474  23.1618432   7.6804713  11.3759401  22.9801727   8.5339491
  11.4440675  24.0330450   7.6564296  11.3996115  23.2634970   7.8028007
   9.3407804  29.7505624  13.6053189   9.3003659  29.1055301  13.0198345
  10.1531122  29.6942241  13.9178601   9.4550957  29.6464591  13.5650138
  14.8302268  15.0201475   4.6604183  14.3233133  14.3130615   4.5925360
  15.6269702  14.6894664   4.7905259  14.8729508  14.8674626   4.6703178
  10.7466284  21.5268087   0.5577846  10.5179977  21.5500789  -0.2843795
  11.0064360  20.7025554   0.6772857  10.7512472  21.4084167   0.4503044
   5.0285513  23.3802560  10.1602947   4.5164416  22.7723743  10.5187978
   4.8565009  24.0959153  10.6276922   4.9275150  23.3965860  10.2819170
   8.9054583  21.3026805  12.6005202   9.4626013  21.0740614  11.9683668
   8.5815648  22.0632470  12.3240415   8.9400993  21.3810642  12.4661699
   6.6237700  24.3894458  13.5657209   7.3749027  24.7046135  13.8796764
   6.8160277  24.1873629  12.7391131   6.7629114  24.4061840  13.4900605
  13.4722990  20.5168024   0.8081005  13.4717217  20.3616681   1.6665281
  13.2679170  21.3631012   0.7522390  13.4422768  20.6188645   0.9268944
  11.1963842  25.1965526   4.4617212  11.6917508  24.4788521   4.4221232
  10.3863618  24.8936324   4.3471699  11.1507736  25.0463173   4.4390938
  13.2615661  27.9469214   7.1494340  13.6870733  27.4243636   6.5964765
  12.8972581  28.5450051   6.6282963  13.2702264  27.9579441   6.9903350
  11.9371245  33.2704791  15.6587570  12.0468211  32.4813352  16.0144317
  12.2662142  33.1810728  14.8561908  12.0023651  33.1410644  15.5929961
   6.7663756  16.4330949  10.4353593   6.8991661  15.6361942  10.7634568
   7.1508908  16.9597352  11.0151868   6.8420085  16.3930865  10.5697096
  10.4868207  31.4521412  10.2423191   9.9389153  30.8279296   9.9743256
  10.9481236  31.6415684   9.5267270  10.4735417  31.3880462  10.0973622
   9.8396111  13.3561275   7.0334686   9.0342075  13.2459004   7.3502524
   9.7102846  13.4573730   6.1764552   9.7016244  13.3544945   6.9542726
  13.2962071  19.5206767   7.6274383  12.7125060  20.0215973   7.2151950
  13.6166365  19.0136323   6.9938706  13.2575247  19.5198602   7.4732890
   4.4252202  16.4290124   8.6831486   4.9696615  16.0881251   9.2735828
   4.4789138  17.2875585   8.8252771   4.5141322  16.5045383   8.7913360
  10.0526533  32.4572485   6.7732532  10.8724907  32.3135451   7.0348827
   9.7720611  33.0818684   7.3148970  10.1323277  32.5282837   6.8920471
  22.2498943  32.0385825   6.0421049  22.6309454  31.3563996   6.4288923
  21.4462227  31.7495427   5.8596713  22.1875404  31.8952874   6.0725105
  16.2090783  34.5440023  15.9083657  15.8944224  35.3139586  15.6453220
  15.8880716  33.9810279  15.3235884  16.1149702  34.5750292  15.7825007
  22.8855569  33.0808404   9.8541175  23.6309161  32.8918215   9.4404601
  22.4692873  33.6066642   9.2955032  22.9340543  33.1310550   9.7105749
  15.6935046  34.7726213   9.5769316  15.5018243  34.7881348  10.4268739
  16.5433642  34.9689888   9.5535971  15.7910768  34.8040565   9.6992611
  18.6039273  34.9681723   9.7841139  19.0611887  35.7005697   9.9113931
  18.6795602  34.5448188  10.5428395  18.6830243  35.0138961   9.9142216
  20.6529434  36.8922465   9.6066301  20.8671404  36.2533379   9.0529655
  20.0363333  37.3368288   9.1774163  20.5934763  36.8632608   9.4616732
  17.0693303  32.0128629   6.0527114  16.5531792  31.3208820   6.1778693
  16.5087232  32.6799406   5.9989713  16.9099816  32.0091886   6.0633180
  19.1385537  32.5521589   7.8819967  18.7517290  32.5770620   8.6633497
  18.6518474  31.9863267   7.4294484  19.0098045  32.4717340   7.9307871
  18.8042678  29.4388574  10.1730227  19.4335796  29.9748874   9.8951297
  18.9728541  29.3465933  11.0243792  18.9220473  29.5049937  10.2578755
  18.6056593  34.2259769  12.4456638  19.4330022  33.9544918  12.5015253
  18.6264439  35.0220611  12.8020457  18.7309443  34.3039523  12.5071821
  20.8296126  31.1555415   9.5274342  20.3336687  31.3519089   8.8365909
  21.5865188  31.5548083   9.3563144  20.8682950  31.2433149   9.3994479
  14.3800328  33.5568579   5.4983397  14.4198699  34.0577786   6.2118104
  13.5549992  33.6478973   5.2289320  14.2639854  33.6450395   5.5633935
  13.6098474  33.5637982  13.4313707  14.2351178  33.0200115  13.7043139
  13.1548954  33.0832899  12.8621497  13.6346735  33.4127463  13.3875300
  21.1789095  34.5337961   7.9908911  21.6044167  34.0810487   7.3792438
  20.5646088  33.9798031   8.2673699  21.1517740  34.3851937   7.9413937
  17.7396339  31.9516257  10.4353593  17.8724245  31.1547250  10.7634568
  18.1241492  32.4782660  11.0151868  17.8152668  31.9116173  10.5697096
  20.8128694  28.8746583   7.0334686  20.0074658  28.7644312   7.3502524
  20.6835430  28.9759038   6.1764552  20.6748827  28.8730253   6.9542726
  15.3984786  31.9475432   8.6831486  15.9429199  31.6066558   9.2735828
  15.4521722  32.8060893   8.8252771  15.4873905  32.0230691   8.7913360
  14.0422061  17.3409949  -0.3622376  14.2142565  17.2315844   0.4862906
  14.5791419  17.9864354  -0.5991184  14.1467065  17.4201951  -0.2717279
  19.9796763  25.2614200   1.5886700  20.7637179  25.3745048   1.9542442
  19.7793357  24.4355337   1.7845386  20.0662788  25.1560919   1.6721086
  19.1967893  20.9184747   3.1273344  18.4040874  21.2328259   3.3125964
  19.3116820  21.1336215   2.2894129  19.0963303  20.9968584   3.0311679
  15.9041607  11.4818155   2.8423704  15.5895048  12.2517717   2.5793267
  15.5831540  10.9188411   2.2575931  15.8100526  11.5128423   2.7165054
  15.5358112  14.0815406   1.5808919  14.7257888  14.3873185   1.4698761
  16.0132799  14.8020988   1.6961503  15.4861591  14.2330007   1.5815990
  15.8868402  18.8119135  -1.9539349  16.0311778  19.3920343  -2.5896239
  16.2344051  19.1895432  -1.2489495  15.9595864  18.9539839  -1.9440354
  18.6910305  16.3722217  -1.9553491  18.6269446  17.2332173  -2.0833354
  18.8307493  16.0554210  -2.7557940  18.7025775  16.4522384  -2.0925278
  23.0708096  23.1466939   3.6010960  23.8842961  22.8752088   3.7616092
  22.9103062  22.8474479   2.7971156  23.1678044  23.0621865   3.5056366
  22.5119346  15.4389661  -2.5210345  21.6996028  15.1315551  -2.4397172
  22.9709280  14.9588661  -1.9567633  22.4599731  15.3226153  -2.4255751
  19.6072853  16.8449732   2.2618357  20.0772485  17.4691849   2.6486231
  19.6534734  16.1766708   2.8211572  19.6840729  16.8384413   2.4018429
  16.2580764  20.0607450   0.5343738  15.4076395  20.1979164   0.6701383
  16.4208892  19.3271228   0.9791440  16.1564628  19.9721551   0.6199337
  20.0091211  22.2069063   0.5393236  19.9687066  21.5618740  -0.0461608
  20.8214530  22.1505680   0.8518648  20.1234365  22.1028030   0.4990185
  19.5737991  13.7590244  -0.4654751  20.1309421  13.5304054  -1.0976286
  19.2499056  14.5195910  -0.7419539  19.6084401  13.8374081  -0.5998254
  17.2921108  16.8457897   0.4997256  18.0432435  17.1609574   0.8136810
  17.4843684  16.6437068  -0.3268822  17.4312522  16.8625279   0.4240652
  36.2882544  36.2882544  36.2882544 109.4712190 109.4712190 109.4712190
