ACE
  3778
  17.7410533  18.2589333  13.3778809  17.1153132  18.3514270  14.2655713
  16.4160203  17.5163108  14.3064235  16.5596450  19.2881891  14.2230440
  17.9622013  18.3427406  15.5397790  19.1852417  18.2405637  15.4751867
  17.3036019  18.4505358  16.6960021  15.8514622  18.5706564  16.7472404
  15.4008552  17.5835075  16.6443292  15.5104825  19.2116734  15.9342650
  15.6054263  19.1783783  18.0963659  14.7112791  18.7304237  18.5298823
  15.4617043  20.2545281  17.9996862  16.8319478  18.8704044  18.9215308
  16.6062907  18.0559500  19.6098926  17.1148473  19.7570851  19.4888621
  17.9922285  18.4548159  17.9731769  18.6868267  19.2914796  18.0481804
  18.7448851  17.1502772  18.1926566  18.7675885  16.2882938  17.3169231
  19.3626139  17.0069208  19.3674269  19.3152117  17.7441161  20.0561907
  20.1122248  15.8116352  19.6975448  20.0713049  15.1138892  18.8611377
  21.1502157  16.0769500  19.8982525  19.6798438  15.3436410  20.5819248
  14.7672537  20.3285414  36.3316664  14.1829752  20.8335445  36.7382528
  14.3642632  20.1027801  35.5913256  14.6211841  20.3693662  36.2821689
  19.2249751  16.5751066  34.8085585  19.4645755  16.7829050  33.9960928
  19.5465592  15.7708575  34.9174529  19.3086909  16.4865167  34.7046138
  19.6106451  22.6918907  34.2407517  20.0257600  22.3603931  33.5492013
  18.7798381  22.4587809  34.1127653  19.5494460  22.6090163  34.1198364
  22.3039841  18.9429467  33.4268718  22.2220004  19.0131654  34.2923705
  22.9419562  19.5059210  33.2352459  22.3859679  19.0368438  33.5258668
  19.4079952  18.9649921  36.4377325  20.2220590  19.2564814  36.3260096
  19.3439093  18.3109783  35.8635618  19.5182691  18.9115116  36.3366162
  15.9190675  17.6573728  35.9024526  16.3035828  17.4381435  36.6541071
  15.6702295  18.4836673  36.0325603  15.9392747  17.7471874  36.0325603
  20.8455974  22.1811721  31.7793130  21.6128959  22.2411846  31.3698982
  20.3987283  21.6092162  31.2949448  20.8929401  22.1048297  31.6470840
  16.8930574  18.4530487  33.2430240  17.1823099  19.2295370  33.5173814
  16.9802373  17.9419219  33.9444739  16.9484830  18.4922405  33.3872738
  21.6862193  13.8463750  37.4983927  21.1585212  13.9292494  36.8089636
  22.1457901  14.5881622  37.4948572  21.6764044  13.9684413  37.3958622
  13.6795258  12.1166270  32.5224822  13.3308063  12.7685995  32.9856372
  13.1991704  12.1023383  31.7948693  13.5565502  12.2109323  32.4835913
  16.6938716  14.1211261  34.9308879  17.0737680  14.1390890  34.1459994
  15.9531312  14.5665250  34.8099727  16.6407553  14.1893036  34.7972447
  17.4923470  20.9588767  36.3217669  16.6834792  20.6355441  36.2750979
  17.9998379  20.2521989  36.2545918  17.4473136  20.8070084  36.3047964
  13.6800264   2.0693957  26.9009070  12.9283164   1.6909495  26.6725115
  14.1286276   2.1012390  26.1527880  13.6349931   2.0179564  26.7566572
  19.1325224   2.4919326  22.3294617  18.7976593   3.1696248  21.8938839
  19.6452095   2.1024637  21.7411489  19.1590805   2.5343904  22.1781409
  18.6729516   4.4433595  28.2705729  19.0568895   5.0120493  27.7310504
  18.6088657   3.7183105  27.7911545  18.7202943   4.4209058  28.1199591
  15.0985760   6.9989938  30.5686699  15.7423216   7.4403102  30.9582857
  15.4242016   6.1943364  30.4816957  15.2417589   6.9455133  30.6132176
  15.8006340   0.0101913  25.9406560  16.1222181   0.5507120  25.3367868
  16.4478436  -0.5601316  26.0728850  15.9432395   0.0061088  25.8713596
  15.8964741   2.8156735  24.9096943  16.1863040   2.4245716  24.1856170
  16.6268222   2.9973440  25.3502219  16.0471626   2.7850549  24.8679750
  13.8370657   4.7924118  27.9757093  13.6170952   4.5021472  28.7683760
  13.6165179   4.1339073  27.4475005  13.7718251   4.6523826  28.0146002
  16.0038613   6.1653508  26.7587785  16.6562671   5.6329950  26.9878811
  15.3064222   5.8122160  27.1455659  15.9969331   6.0343031  26.8499953
  20.4685109   1.4296706  25.5255844  20.2271785   0.6964566  25.1182909
  20.6486442   1.9783563  24.8722177  20.4592733   1.4019097  25.3686067
  18.0188137   2.0877668  26.7333227  18.7838028   1.8187312  26.4115892
  17.9166227   1.6027679  27.4503290  18.1169633   1.9767233  26.7913055
  17.2445870   0.7221763  23.4827529  17.3138691  -0.1363699  23.6220529
  18.0234326   0.9393644  23.1546553  17.3698720   0.6274627  23.4544686
  21.6353358   3.1459464  27.6964022  21.2433150   2.8426179  26.9786888
  21.7906430   3.9828554  27.5068976  21.6006948   3.2243301  27.5620519
  22.4043663   2.5494957  31.1294056  22.2063352   3.0385771  30.4350268
  21.7831374   2.7536198  31.7078190  22.2831228   2.6511495  31.1117280
  21.1953949   3.4166150  23.7231692  20.4783259   3.2427012  23.2578929
  21.8460687   3.1818722  23.1907178  21.1855800   3.3561942  23.5760910
  16.4767111   4.6527909  30.1521840  16.0627510   3.9902039  29.7625682
  17.1614485   4.8005767  29.6317534  16.5165483   4.5768567  30.0178337
  19.8432405   3.8117994  30.9045456  19.4448689   3.9220264  30.1366277
  19.2283625   4.0200060  31.4872016  19.6931295   3.8591562  30.8776756
  24.6532848  17.5879264  26.9009070  23.9015748  17.2094803  26.6725115
  25.1018860  17.6197698  26.1527880  24.6082515  17.5364872  26.7566572
  30.1057808  18.0104634  22.3294617  29.7709176  18.6881556  21.8938839
  30.6184678  17.6209945  21.7411489  30.1323389  18.0529212  22.1781409
  29.6462099  19.9618903  28.2705729  30.0301479  20.5305801  27.7310504
  29.5821240  19.2368413  27.7911545  29.6935526  19.9394366  28.1199591
  26.2317604  17.5997657  29.1671843  26.3327967  16.7898011  29.4768970
  25.6359349  17.5054603  28.5371521  26.1590143  17.4662685  29.1198081
  26.0718344  22.5175246  30.5686699  26.7155799  22.9588410  30.9582857
  26.3974599  21.7128672  30.4816957  26.2150172  22.4640441  30.6132176
  19.4282648  13.6217943  28.7924176  19.1932833  12.7885596  28.6856445
  19.5668289  13.9022609  27.9785377  19.4138311  13.5401447  28.6566531
  21.7272736   5.7903674  31.6908484  21.1077768   5.1996321  31.5218499
  21.6256600   6.3815109  31.0572807  21.6210411   5.7907756  31.5713473
  26.7738923  15.5287221  25.9406560  27.0954765  16.0692428  25.3367868
  27.4211020  14.9583992  26.0728850  26.9164979  15.5246396  25.8713596
  28.8240632   7.5303216  26.0240947  29.5220796   7.7091343  26.5162410
  29.1392964   7.0073555  25.4011336  28.9735969   7.4796988  26.0042957
  21.4541869   9.3355956  33.9352053  21.3300566   9.9218401  34.5701872
  22.1060153   8.8416151  34.2364328  21.5315518   9.3494760  34.0737982
  29.0128567  13.9173661  26.0120738  29.4522202  13.3090761  26.4575511
  28.8633230  13.5381034  25.2406204  29.0550033  13.7712132  25.9639906
  26.4800210  12.5117672  33.2139564  27.1249212  12.0190116  32.8950513
  26.7201987  12.6542459  34.0405642  26.6110795  12.4595115  33.2889097
  29.0186301  15.3572578  32.8646457  29.3009544  14.5623984  32.6433212
  29.7472462  15.8353166  32.8851518  29.1675865  15.3107175  32.8349472
  32.6137904  12.2700842  22.9651508  32.5289199  13.1261809  23.1101077
  33.1022287  11.9945166  23.6333667  32.6726801  12.3558163  23.0853589
  33.5456337   8.8885636  24.4649243  33.0167808   9.1045270  25.1246549
  34.0681357   9.5821775  24.3850212  33.5444790   9.0228773  24.5504842
  25.4355945  12.7848853  23.2656711  24.8513160  13.2898884  23.6722575
  25.0326040  12.5591240  22.5253303  25.2895248  12.8257101  23.2161736
  20.9899973  18.5003614  30.0680382  20.5067551  19.2254104  30.0439966
  21.8023291  18.7979744  30.1790540  21.0390721  18.6505968  30.0807662
  27.0614127  17.2935795  32.6730197  26.5441069  16.9343210  32.0691505
  27.7588518  16.7697969  32.6836263  27.0879708  17.1633483  32.5860456
  29.8933159   9.0314505  21.7425631  30.1329163   9.2392489  20.9300975
  30.2149000   8.2272014  21.8514576  29.9770317   8.9428606  21.6386185
  23.8444170  19.0159790  30.2200662  24.5464750  18.5011779  30.2773419
  23.7641653  19.3433941  31.0247537  23.9367931  18.9874016  30.3473454
  23.5580514   3.3678220  22.2863282  23.3756087   3.5850100  21.4604275
  24.4206127   3.4817232  22.3421897  23.6585103   3.4168118  22.1717769
  23.1694946  15.2066142  29.7286270  24.0083845  15.4389075  29.7760032
  23.2006715  14.3370453  29.6593306  23.2976663  15.1123088  29.7250915
  23.7947649  15.6267017  34.0299576  24.3345874  15.4838148  34.7002948
  23.1117595  16.0263768  34.3983602  23.7739803  15.6646688  34.1833998
  19.1984794  11.8467308  34.1833997  18.9323209  11.0306425  34.3424988
  19.2123358  11.8920463  33.3129513  19.1609516  11.7324213  34.0787479
  23.1042541   6.6452392  20.7985755  22.3900718   6.3590572  21.2108188
  23.5886510   6.9849018  21.4392143  23.0701904   6.6534042  20.9541390
  30.2789859  15.1482346  21.1747564  30.6941007  14.8167370  20.4832059
  29.4481788  14.9151249  21.0467700  30.2177868  15.0653602  21.0538411
  19.6078208  12.6326087  31.4645742  19.4253781  12.6072973  30.6118034
  20.3427876  13.1025025  31.5034650  19.6892271  12.6987450  31.3443660
  32.7200228   9.5544166  27.1271813  32.8147082  10.2933460  27.5811439
  32.0959071   9.1261641  27.5606378  32.6409258   9.6005486  27.2579961
  19.5749118   9.5119588  31.6144808  20.1522621   9.3756039  32.2537054
  18.8763180   9.0555372  31.8690393  19.5570139   9.4241854  31.7467098
  32.9723249  11.3992906  20.3608765  32.8903411  11.4695093  21.2263752
  33.6102969  11.9622650  20.1692506  33.0543086  11.4931877  20.4598715
  26.3316420  11.1653644  29.8283291  26.0735664  10.3325378  29.8014591
  26.3864903  11.3911257  28.9875792  26.3016198  11.0751415  29.7003428
  25.3051132   8.7191406  30.3148186  24.7300723   8.8783574  30.9512147
  24.9286809   8.0826815  29.8516637  25.1653945   8.6489219  30.3402745
  15.0507951   8.3631481  28.3292627  15.1368203   7.9863349  29.1106157
  15.6783749   7.9891926  27.8512585  15.1564502   8.2516963  28.3738104
  30.0763359  11.4213360  23.3717372  30.8903998  11.7128253  23.2600143
  30.0122500  10.7673222  22.7975665  30.1866098  11.3678555  23.2706209
  25.9471267  14.8934877  28.4989684  26.5845214  14.6546625  29.0441477
  26.3726339  15.0972036  27.7642844  26.1047434  14.8885888  28.4706841
  20.6383910  17.1323214  32.3823987  20.6788055  17.4038065  31.5543767
  21.1978434  17.6565122  32.7981775  20.7267256  17.2498969  32.3215876
  26.5874082  10.1137167  22.8364573  26.9719235   9.8944874  23.5881118
  26.3385703  10.9400113  22.9665649  26.6076155  10.2035313  22.9665649
  28.3292739  15.3707300  30.1783470  28.4031748  15.2082472  31.0325320
  29.1462246  15.5597490  29.9343952  28.4609098  15.3744042  30.2681496
  22.0898496  15.7165163  27.2077913  21.2636614  15.9626900  27.0812192
  22.1510487  15.6377244  28.0739971  21.9772663  15.7410112  27.3166858
  24.3074520   1.7834104  28.1673354  23.4396945   1.8556703  28.2330963
  24.5949724   2.5856183  28.3561329  24.2214268   1.9128251  28.2048120
  26.8697325  18.3342043  24.9096943  27.1595623  17.9431024  24.1856170
  27.6000806  18.5158748  25.3502219  27.0204209  18.3035857  24.8679750
  24.8103241  20.3109426  27.9757093  24.5903536  20.0206780  28.7683760
  24.5897763  19.6524381  27.4475005  24.7450835  20.1709134  28.0146002
  23.7220188  12.3982742  30.2412795  23.4333436  11.7720213  30.7758522
  24.5903536  12.3403029  30.3077475  23.8080440  12.2970286  30.3303749
  26.9771196  21.6838815  26.7587785  27.6295254  21.1515258  26.9878811
  26.2796805  21.3307468  27.1455659  26.9701914  21.5528338  26.8499953
  23.9252461  14.0377993  26.1655160  24.6798429  14.4191032  26.3790622
  23.3323074  14.4889137  26.6201856  23.9489175  14.1606820  26.2638038
  25.2450688  15.2086554  31.5395275  24.7231441  15.3486846  32.2247140
  25.6324708  14.4497219  31.7297392  25.2254389  15.1172078  31.6696352
  22.2341872   5.2592363  25.6090230  21.9466668   4.8893634  24.8722177
  22.9212340   5.7287218  25.3473935  22.2930769   5.2739333  25.4605306
  31.4417693  16.9482014  25.5255844  31.2004369  16.2149874  25.1182909
  31.6219026  17.4968871  24.8722177  31.4325317  16.9204405  25.3686067
  26.6717013  12.2390573  26.9376766  26.4759796  12.8465308  26.3437069
  26.8951359  11.5458517  26.4568440  26.6751654  12.2268099  26.7792847
  25.0695543   9.1245311  27.0557635  25.7918195   9.2886469  26.5961441
  24.5903536   9.8454976  26.9496974  25.1059274   9.2543541  26.9723249
  22.7203160  11.5303384  36.1611774  23.2324257  11.8087637  35.5120534
  22.4339503  12.2692678  36.5274587  22.7538023  11.6805737  36.1201652
  19.8070066   6.0373576  26.4575511  19.9086203   6.8399737  26.7856486
  20.6025953   5.8360912  26.1598591  19.9397972   6.1259474  26.4610866
  30.7772391   7.9887844  28.3441121  30.5307105   7.9083595  29.1777910
  31.1057514   7.2041312  28.1503648  30.7893634   7.8614109  28.4388644
  28.9920721  17.6062976  26.7333227  29.7570612  17.3372620  26.4115892
  28.8898811  17.1212987  27.4503290  29.0902216  17.4952541  26.7913055
  31.5139381  14.6375160  18.7133177  32.2812366  14.6975285  18.3039029
  31.0670690  14.0655601  18.2289495  31.5612809  14.5611736  18.5810887
  32.4117177  13.4429816  30.9985909  31.7362179  13.2115048  31.4999296
  32.4209553  12.8350999  30.3728014  32.3135681  13.3188741  30.9802061
  34.4133911  16.2994948  23.2296087  34.4953749  17.1061934  22.9057538
  34.8983654  16.3190907  23.9536860  34.4971069  16.4215611  23.2882986
  28.2230415  10.9779784  31.8966165  27.7992664  11.1784283  31.1605183
  28.0475270  10.1308632  32.0090465  28.1341295  10.8828566  31.8039855
  23.5112860  11.4731836  27.3294137  23.6677479  11.4078638  28.1850130
  23.8513453  12.2480388  27.1172817  23.5846094  11.5781034  27.4248732
  30.0492004  10.8489719  26.1987501  30.5907550  10.3460100  26.6626121
  30.3638563  10.7954914  25.3876986  30.1756401  10.7669140  26.1471313
  28.2178454  16.2407071  23.4827529  28.2871274  15.3821609  23.6220529
  28.9966909  16.4578952  23.1546553  28.3431304  16.1459935  23.4544686
  32.6085942  18.6644772  27.6964022  32.2165733  18.3611487  26.9786888
  32.7639014  19.5013862  27.5068976  32.5739531  18.7428609  27.5620519
  20.0847121   8.6566786  27.6454905  20.4646086   9.0751331  26.9815172
  19.5102486   9.2380242  27.9523748  20.0558446   8.8044645  27.5931646
  32.7725616  15.2294761  27.6370053  32.4140271  15.4009404  28.4134085
  32.2864327  15.6907966  27.0798051  32.6484313  15.3233732  27.6695322
  27.5613982  10.9093926  20.1770287  27.8506507  11.6858809  20.4513861
  27.6485781  10.3982658  20.8784786  27.6168238  10.9485845  20.3212785
  23.7277923  10.2227191  32.2770399  22.8865929  10.1231065  32.4849293
  23.9367931  10.9922671  32.6284720  23.6342615  10.3219234  32.3597714
  21.2053490   7.8446728  30.1055150  20.8110187   7.9189740  29.3305259
  20.6493606   8.2304674  30.6563511  21.0656302   7.9128502  30.0722810
  27.5394588   8.1508590  31.5267997  27.2357725   7.5964578  32.1278404
  26.8374008   8.3300800  31.0396031  27.3910797   8.0953372  31.5437702
  26.5960685   5.4609110  26.0912698  26.8720419   4.7428022  25.6790266
  27.1959354   6.0594030  25.8833805  26.7253949   5.4429480  25.9993460
  25.6012939  15.3658311  36.2340094  25.4933293  15.3760373  37.1002152
  25.8108720  16.1913091  36.0445048  25.6163050  15.4899385  36.3344186
  23.6186731  12.6170953  33.6962032  23.0274664  13.2580451  33.6665047
  24.3807754  13.0408570  33.6693331  23.6434991  12.7746791  33.6877179
  33.3776247  18.0680265  31.1294056  33.1795935  18.5571079  30.4350268
  32.7563958  18.2721506  31.7078190  33.2563811  18.1696803  31.1117280
  27.4384225   9.8365161  25.4704301  28.1826270  10.2239438  25.7087251
  27.5844921   8.9922587  25.6344788  27.5694810   9.7695634  25.5298270
  32.3545601   6.3027189  24.4323974  31.8268619   6.3855933  23.7429683
  32.8141309   7.0445061  24.4288618  32.3447451   6.4247852  24.3298669
  24.1636917   6.2304591  33.3992184  23.5389987   6.2422982  32.7918137
  23.8282512   6.7064766  34.0483424  24.0222409   6.3023107  33.4048753
  24.3478666   4.5729709  19.4564869  23.9991470   5.2249434  19.9196418
  23.8675112   4.5586822  18.7288740  24.2248910   4.6672763  19.4175960
  20.8762593  14.2905051  34.8395948  20.3462517  13.5997490  34.8890923
  21.1487686  14.2815236  34.0108657  20.8387315  14.1872182  34.7243364
  31.9082683  14.8730753  23.5633631  32.6316882  15.3388866  23.4198204
  31.4683274  14.9404363  22.8131228  31.9498375  14.9514590  23.4318412
  16.1558435  10.9632815  32.1964297  16.0501884  10.9179659  31.3316381
  15.4058655  11.3086595  32.4778581  16.0294038  11.0073723  32.1101626
  24.7202575   7.1988239  24.9690914  24.8605536   7.6960704  25.6719555
  25.2185107   6.4974534  25.1105127  24.8143655   7.1690218  25.0942493
  24.7502797   8.0655350  22.2983490  25.3847876   8.6615775  22.2332952
  24.8328408   7.7658808  23.1129360  24.8559348   8.1096259  22.4086577
  26.3281780   3.9969326  22.2728932  26.6497621   3.5172408  21.6188195
  26.5908724   4.8068972  22.0819744  26.4147805   4.0459224  22.1484424
  21.2555785  10.2623191  25.5673036  21.7648014  10.8587699  25.9484342
  21.7290057   9.9949165  24.8849456  21.3999160  10.3109007  25.5227559
  32.1686533  18.9351458  23.7231692  31.4515843  18.7612320  23.2578929
  32.8193270  18.7004030  23.1907178  32.1588383  18.8747250  23.5760910
  28.8021238  19.9512758  32.6984755  28.5786892  19.1931588  33.0668782
  28.3131081  19.9810780  31.9765195  28.6964687  19.8434983  32.6461496
  23.6146317   6.8979450  28.4346217  22.8958306   7.3143582  28.7019080
  23.9858679   7.4633689  27.8837855  23.5638248   7.0428731  28.3929024
  27.4499695  20.1713217  30.1521840  27.0360093  19.5087347  29.7625682
  28.1347069  20.3191075  29.6317534  27.4898066  20.0953875  30.0178337
  30.8164989  19.3303302  30.9045456  30.4181272  19.4405572  30.1366277
  30.2016208  19.5385368  31.4872016  30.6663878  19.3776870  30.8776756
  29.3892891   5.9377450  23.7719596  28.7957730   6.2594446  23.2204163
  29.4268169   5.0918545  23.5640702  29.3067280   5.8601778  23.6602368
  25.3195470   4.4333500  28.4975542  25.7952836   4.7950580  27.8625723
  24.8184070   5.0889968  28.7775685  25.3160829   4.5827689  28.4452283
  27.3622123   6.5774700  21.8648926  27.7421088   6.5954329  21.0800041
  26.6214719   7.0228689  21.7439773  27.3090961   6.6456475  21.7312494
  17.0524685   8.3096676  31.8683321  16.8746446   7.8573285  32.5938237
  16.7643707   9.1122837  32.0521799  16.9837638   8.3619234  32.0026824
  28.1606877  13.4152206  23.2557716  27.3518200  13.0918880  23.2091026
  28.6681786  12.7085429  23.1885965  28.1156544  13.2633523  23.2388010
  18.7897154  10.8424400  28.9805080  17.9242674  10.8310090  28.8687852
  18.8895970  10.6554622  29.8276220  18.6771321  10.8130461  29.0894025
  24.4154164  20.6122298  32.5535186  24.7300723  21.4258687  32.5612968
  24.8247578  20.2272517  33.2217345  24.5222262  20.6751001  32.6539278
  31.3678684  16.0292345  30.1238998  31.8389862  16.7432608  30.2928983
  31.7038863  15.4291095  30.6598867  31.4873799  16.0463809  30.2271374
  21.7567185  14.5595407  32.2013794  22.3612042  14.5191241  31.5727615
  21.5494497  15.4066559  32.2317850  21.8156082  14.6783409  32.1129911
  16.9918467  13.5430024  32.0712717  16.8942745  12.7326296  32.3802774
  17.7747336  13.5221818  31.6858986  17.0934603  13.4197114  32.0599580
  34.0775124  22.1637700  20.7985755  33.3633302  21.8775880  21.2108188
  34.5619093  22.5034326  21.4392143  34.0434488  22.1719350  20.9541390
  26.0240535  23.8816789  28.3292627  26.1100787  23.5048657  29.1106157
  26.6516332  23.5077234  27.8512585  26.1297086  23.7702271  28.3738104
  33.2074455  20.7777671  25.6090230  32.9199251  20.4078942  24.8722177
  33.8944924  21.2472526  25.3473935  33.2663353  20.7924640  25.4605306
  30.7802650  21.5558884  26.4575511  30.8818786  22.3585045  26.7856486
  31.5758537  21.3546219  26.1598591  30.9130556  21.6444782  26.4610866
  31.0579705  24.1752094  27.6454905  31.4378670  24.5936639  26.9815172
  30.4835070  24.7565550  27.9523748  31.0291030  24.3229953  27.5931646
  32.2288368  25.7808499  25.5673036  32.7380598  26.3773007  25.9484342
  32.7022641  25.5134473  24.8849456  32.3731744  25.8294315  25.5227559
  34.5878900  22.4164758  28.4346217  33.8690889  22.8328890  28.7019080
  34.9591262  22.9818996  27.8837855  34.5370832  22.5614039  28.3929024
  30.0966056   6.0781382  15.7264223  29.8616240   5.2449035  15.6196492
  30.2351697   6.3586048  14.9125424  30.0821718   5.9964886  15.5906578
  31.6583381  10.9567053  17.0020429  31.1750959  11.6817543  16.9780013
  32.4706699  11.2543183  17.1130587  31.7074128  11.1069407  17.0147708
  34.5127578  11.4723229  17.1540709  35.2148157  10.9575218  17.2113466
  34.4325061  11.7997380  17.9587584  34.6051338  11.4437455  17.2813501
  33.8378353   7.6629581  16.6626317  34.6767253   7.8952514  16.7100079
  33.8690123   6.7933892  16.5933353  33.9660071   7.5686527  16.6590962
  34.4631056   8.0830456  20.9639623  35.0029281   7.9401587  21.6342995
  33.7801003   8.4827207  21.3323649  34.4423210   8.1210127  21.1174044
  30.2761615   5.0889526  18.3985788  30.0937188   5.0636412  17.5458081
  31.0111284   5.5588464  18.4374697  30.3575679   5.1550889  18.2783707
  31.3067317   9.5886653  19.3164034  31.3471463   9.8601504  18.4883814
  31.8661841  10.1128561  19.7321822  31.3950663   9.7062408  19.2555922
  32.7581904   8.1728602  14.1417960  31.9320021   8.4190339  14.0152239
  32.8193895   8.0940683  15.0080018  32.6456071   8.1973551  14.2506905
  31.5446000   6.7468490  21.7735995  31.0145925   6.0560929  21.8230970
  31.8171094   6.7378675  20.9448704  31.5070723   6.6435622  21.6583411
  26.8241842   3.4196254  19.1304343  26.7185292   3.3743098  18.2656427
  26.0742062   3.7650034  19.4118628  26.6977445   3.4637162  19.0441673
  32.4250592   7.0158846  19.1353841  33.0295449   6.9754680  18.5067662
  32.2177905   7.8629998  19.1657897  32.4839489   7.1346848  19.0469958
  27.6601874   5.9993463  19.0052764  27.5626152   5.1889735  19.3142821
  28.4430744   5.9785257  18.6199032  27.7618011   5.8760553  18.9939627
   4.5359806   8.6907551  26.1084269   4.5053810   9.5452188  26.2802538
   5.1341155   8.3902843  26.6670412   4.6196964   8.7724047  26.2159071
   2.3576381  11.2659853  24.3802578   2.2415906  12.0167539  24.8094716
   3.1532267  11.0083806  24.6298665   2.4580970  11.3394700  24.4806670
   6.4672172  14.1898596  29.5647648   5.6369875  14.4009239  29.7281064
   6.4181424  13.3635650  29.2889931   6.3378908  14.0988202  29.5485013
   3.7236487  14.8597950  29.7012364   3.2871719  14.8634693  30.4571335
   3.3899403  15.5403449  29.2691941   3.6099107  14.9610406  29.7493196
   6.8580834  11.5778870  28.5932001   7.5197268  11.0169539  28.4927909
   6.2172246  11.0830901  28.9184692   6.8609701  11.4215279  28.6264341
   3.1445664  12.5944252  28.3343990   3.3801253  12.7389451  27.5070840
   3.2935228  13.3586660  28.7275503   3.2011468  12.7283307  28.2707593
   4.9736121  11.4345918  26.1713593   5.3044338  11.9673559  25.5653688
   5.5469209  11.4884806  26.8275544   5.1069800  11.5215487  26.1791375
   2.4378897  13.7309885  25.8284125   3.0036930  14.3903095  25.7442668
   1.7906801  14.0759583  26.3000527   2.4257654  13.8791826  25.8856882
   3.6341595  13.7816112  22.6209762   3.2548404  12.9953250  22.6139051
   2.9707841  14.3302969  22.4781406   3.4800070  13.7460936  22.5990559
   1.8801694  16.0261603  22.9561447   1.9621531  16.8328590  22.6322898
   2.3651436  16.0457563  23.6802221   1.9638852  16.1482266  23.0148346
   6.0174614  13.6321924  24.0153908   6.4008220  14.3813280  24.2452005
   5.2218727  13.8787743  23.7565897   5.9568396  13.7791618  24.0111481
  15.5092390  24.2092859  26.1084269  15.4786394  25.0637495  26.2802538
  16.1073738  23.9088151  26.6670412  15.5929547  24.2909355  26.2159071
   8.7092074  23.2968510  30.8637199   7.8529970  23.4577008  30.9146316
   8.7559728  22.4260574  30.8842260   8.5891186  23.1919312  30.8743265
  11.5543895  25.3560554  33.5068851  12.0999855  26.0345640  33.5662820
  11.4960772  25.2148015  32.6470432  11.6259810  25.4352555  33.3880911
  13.3308964  26.7845161  24.3802578  13.2148490  27.5352847  24.8094716
  14.1264851  26.5269114  24.6298665  13.4313554  26.8580008  24.4806670
   5.2139290  30.7739184  25.6671921   5.5355131  31.3144391  25.0633229
   5.8611386  30.2035955  25.7994211   5.3565345  30.7698359  25.5978956
   7.2640998  22.7755179  25.7506308   7.9621162  22.9543306  26.2427771
   7.5793330  22.2525518  25.1276697   7.4136335  22.7248951  25.7308318
   7.4528933  29.1625624  25.7386099   7.8922569  28.5542724  26.1840872
   7.3033596  28.7832997  24.9671564   7.4950399  29.0164095  25.6905266
   5.4367861  18.1447575  29.8327582   5.1071191  18.5958719  29.1631281
   4.7612863  18.0663739  30.3800589   5.2878298  18.1998711  29.8150805
  11.0538270  27.5152805  22.6916868  10.9689565  28.3713772  22.8366437
  11.5422653  27.2397129  23.3599027  11.1127167  27.6010126  22.8118950
  12.6444269  14.1333098  28.0777193  12.3297710  14.8236577  28.5097615
  12.1271211  14.0777881  27.3762693  12.5208739  14.2267987  28.0374142
  11.9856703  24.1337599  24.1914603  11.4568174  24.3497233  24.8511910
  12.5081723  24.8273738  24.1115573  11.9845156  24.2680736  24.2770203
  17.4404756  29.7083904  29.5647648  16.6102459  29.9194547  29.7281064
  17.3914008  28.8820958  29.2889931  17.3111491  29.6173510  29.5485013
   3.8756311  28.0300816  22.9922071   3.2913526  28.5350847  23.3987935
   3.4726406  27.8043203  22.2518663   3.7295614  28.0709064  22.9427097
   8.3333525  24.2766468  21.4690992   8.5729529  24.4844452  20.6566335
   8.6549366  23.4723977  21.5779936   8.4170683  24.1880569  21.3651545
   3.6423815  16.2059864  25.3150530   4.3969783  16.5738181  25.0767580
   3.4651350  16.5799418  26.0829709   3.7278294  16.3158052  25.3935418
  16.9358714  22.3554304  33.3598069  16.0987135  22.4256491  33.5945664
  16.9046945  22.3578799  32.4872371  16.8076996  22.3664531  33.2657617
   1.9980880  18.6130183  22.0128643   1.8156453  18.8302064  21.1869636
   2.8606493  18.7269196  22.0687257   2.0985469  18.6620081  21.8983130
   7.6780599  15.6156593  25.0477667   8.4066760  15.4372548  24.6015823
   7.7675492  16.4574673  25.2584845   7.7987261  15.7140472  25.0131184
  11.6588900  26.5509981  28.9509961  12.4146415  26.9841495  28.9898869
  11.7651224  25.9014751  29.5244597  11.7859070  26.5187465  29.0407986
  14.6969071  30.3783258  29.7012364  14.2604303  30.3820001  30.4571335
  14.3631986  31.0588757  29.2691941  14.5831691  30.4795714  29.7493196
  14.6166554  17.4197086  31.9441792  15.2592462  17.4895191  32.5303707
  14.8689575  16.7526309  31.4421333  14.7488686  17.3323435  31.9569071
   1.5442907  21.8904355  20.5251116   0.8301084  21.6042535  20.9373548
   2.0286876  22.2300981  21.1657503   1.5102270  21.8986005  20.6806751
  17.8313417  27.0964178  28.5932001  18.4929851  26.5354846  28.4927909
  17.1904829  26.6016209  28.9184692  17.8342285  26.9400587  28.6264341
   8.7190225  30.3934309  20.9012924   9.1341373  30.0619333  20.2097420
   7.8882155  30.1603212  20.7733061   8.6578234  30.3105565  20.7803771
  14.1178248  28.1129560  28.3343990  14.3533837  28.2574759  27.5070840
  14.2667812  28.8771968  28.7275503  14.1744051  28.2468615  28.2707593
  15.9468705  26.9531226  26.1713593  16.2776922  27.4858866  25.5653688
  16.5201793  27.0070114  26.8275544  16.0802384  27.0400795  26.1791375
  11.1600594  24.7996129  26.8537174  11.2547448  25.5385423  27.3076799
  10.5359437  24.3713604  27.2871738  11.0809624  24.8457450  26.9845321
  11.4123615  26.6444869  20.0874126  11.3303778  26.7147056  20.9529113
  12.0503336  27.2074613  19.8957866  11.4943452  26.7383840  20.1864075
   4.7716786  26.4105607  29.5548652   4.5136030  25.5777342  29.5279951
   4.8265269  26.6363220  28.7141152   4.7416564  26.3203378  29.4268789
   9.8517836  18.5134057  29.6552744   9.1474163  18.0243243  29.8136664
   9.9002811  18.5256532  28.7841189   9.7547888  18.4423705  29.5492084
  17.0548056  22.1941723  27.6753755  16.7984621  21.3821665  27.4851638
  17.8977370  22.2019290  27.4483942  17.1414082  22.0753721  27.6138572
  11.2351149  16.1341347  32.4129909  11.6161660  15.4519518  32.7997783
  10.4314433  15.8450949  32.2305574  11.1727610  15.9908396  32.4433965
   8.5163725  26.6665323  23.0982732   9.3304364  26.9580216  22.9865503
   8.4522867  26.0125185  22.5241025   8.6266464  26.6130518  22.9971569
   5.0274449  25.3589130  22.5629933   5.4119601  25.1396837  23.3146479
   4.7786069  26.1852076  22.6931010   5.0476521  25.4487277  22.6931010
   2.7474886  17.0286067  27.8938714   1.8797311  17.1008666  27.9596323
   3.0350090  17.8308146  28.0826689   2.6614634  17.1580214  27.9313481
  19.2470046  24.5473155  31.1755541  19.7977967  23.9141224  31.4152633
  19.2314161  25.0788548  31.8671045  19.3255242  24.5322103  31.3134399
  12.9498452  22.7869489  30.2860137  12.6063218  22.0659824  30.6367387
  13.0491494  22.5783340  29.4438495  12.9140495  22.6493692  30.2131817
  13.4111481  29.2495193  25.8284125  13.9769513  29.9088403  25.7442668
  12.7639384  29.5944891  26.3000527  13.3990237  29.3977134  25.8856882
   9.8818059  32.1933977  25.2521204   9.6404735  31.4601837  24.8448269
  10.0619392  32.7420834  24.5987538   9.8725683  32.1656368  25.0951427
   5.1117380  27.4842537  26.6642127   4.9160162  28.0917271  26.0702430
   5.3351725  26.7910481  26.1833801   5.1152021  27.4720062  26.5058207
   3.5095910  24.3697275  26.7822995   4.2318561  24.5338433  26.3226801
   3.0303902  25.0906939  26.6762335   3.5459640  24.4995504  26.6988609
  11.4689417  20.7061073  32.1619680  10.6300518  20.7322352  31.9257943
  11.5393784  21.3531809  32.7425027  11.3557811  20.8057199  32.2128797
   9.9158695  17.6046450  26.8947296  10.6185048  17.4054199  26.4167254
   9.6502884  16.8322393  27.2016139   9.9805328  17.4609416  26.8692737
  15.3446941  25.9129060  29.4480922  15.2580916  26.0684486  30.3015700
  14.8897421  26.5567136  29.0740327  15.2650198  26.0304815  29.5188028
   9.2172757  23.2339807  28.0706481   8.9707471  23.1535558  28.9043270
   9.5457880  22.4493275  27.8769009   9.2294001  23.1066073  28.1654004
  13.1120806  29.9423167  31.8593262  12.9735165  30.6404212  32.3642005
  12.3320804  29.7871823  31.5029444  12.9764033  30.0223333  31.8819537
  14.6074179  29.3001420  22.6209762  14.2280987  28.5138558  22.6139051
  13.9440424  29.8488277  22.4781406  14.4532653  29.2646244  22.5990559
  12.0618805  12.2427120  30.0243843  12.1802373  12.7003583  29.2911145
  11.8880980  11.4372381  29.7380060  12.0537976  12.1920892  29.8744776
   5.4673857  21.0539349  32.9991824   4.6769931  20.8730809  33.3209159
   5.8634479  20.2766301  32.9822118   5.4090733  20.9126810  33.0444372
   9.9539747  29.8827123  18.4398537  10.7212733  29.9427248  18.0304389
   9.5071056  29.3107565  17.9554856  10.0013175  29.8063699  18.3076248
  10.8517543  28.6881779  30.7251270  10.1762545  28.4567011  31.2264657
  10.8609919  28.0802962  30.0993375  10.7536047  28.5640704  30.7067422
  12.8534278  31.5446911  22.9561447  12.9354115  32.3513898  22.6322898
  13.3384020  31.5642871  23.6802221  12.9371435  31.6667574  23.0148346
   6.6630781  26.2231747  31.6231525   6.2393030  26.4236246  30.8870544
   6.4875636  25.3760595  31.7355825   6.5741661  26.1280529  31.5305216
   1.9513226  26.7183799  27.0559498   2.1077845  26.6530601  27.9115490
   2.2913819  27.4932351  26.8438178   2.0246461  26.8232997  27.1514092
   8.4892370  26.0941682  25.9252861   9.0307916  25.5912063  26.3891482
   8.8038929  26.0406877  25.1142346   8.6156767  26.0121103  25.8736673
   6.6578820  31.4859034  23.2092889   6.7271640  30.6273572  23.3485890
   7.4367275  31.7030915  22.8811914   6.7831670  31.3911898  23.1810046
   9.6381640  20.9877987  35.9775162   9.8523609  20.3488901  35.4238516
   9.0215539  21.4323811  35.5483023   9.5786969  20.9588130  35.8325593
  11.8020728  22.5967052  36.9158469  10.9897409  22.2892942  36.9971641
  12.2610662  22.1166052  37.4801181  11.7501113  22.4803544  37.0113063
  11.2125982  30.4746724  27.3635413  10.8540637  30.6461367  28.1399445
  10.7264693  30.9359930  26.8063412  11.0884679  30.5685695  27.3960682
   9.0296368  14.0977922  30.9662504   8.1589926  14.0716644  30.9195814
   9.2836710  13.9255115  30.1488350   8.9389929  14.0688066  30.8382641
   6.0014348  26.1545889  19.9035647   6.2906873  26.9310772  20.1779222
   6.0886147  25.6434621  20.6050147   6.0568604  26.1937808  20.0478145
  14.0987722  23.2139766  32.8768530  13.6715330  23.1266114  32.1216629
  13.4613775  23.3217541  33.4623374  13.9417329  23.2172426  32.8513971
  11.2818803  16.0679985  29.5124389  11.4868396  16.0002293  30.3581386
  10.9545227  16.8738806  29.4445567  11.2634050  16.1765925  29.6284044
   5.9794954  23.3960553  31.2533357   5.6758091  22.8416541  31.8543765
   5.2774374  23.5752763  30.7661391   5.8311163  23.3405335  31.2703063
   5.0361051  20.7061073  25.8178059   5.3120785  19.9879985  25.4055626
   5.6359720  21.3045993  25.6099165   5.1654315  20.6881444  25.7258820
  14.5352490  16.6211749  28.9927155  13.9226804  17.1082151  29.3780886
  14.6316665  15.9455240  29.5364806  14.4590388  16.5930058  29.1306013
   8.5371571  18.3774590  24.0924654   8.9915318  18.5485151  24.8172498
   9.0111617  17.7642701  23.6922430   8.6739891  18.3125475  24.1398415
   5.8784591  25.0817125  25.1969661   6.6226636  25.4691401  25.4352611
   6.0245287  24.2374550  25.3610149   6.0095176  25.0147597  25.2563631
   7.7964167  16.8767384  30.2301523   6.9500212  17.0490191  30.1042872
   7.7935299  16.0716727  30.5667351   7.6711317  16.7828412  30.2612650
   8.8662467  20.6542598  31.0963580   8.3922421  20.1284360  31.6068891
   9.2380603  20.1072071  30.5278442   8.8512356  20.4958595  31.0878728
  15.1299198  25.7144974  32.5070361  14.8897421  24.8751389  32.5112787
  15.6091205  25.7945140  33.2311134  15.1651381  25.6026373  32.6145163
  10.7945967  21.5479153  24.1589334  10.2668985  21.6307896  23.4695043
  11.2541675  22.2897024  24.1553979  10.7847817  21.6699815  24.0564029
  17.1304385  22.4946431  30.4599620  16.8914155  22.4542265  29.6220405
  17.2938286  23.3417583  30.5865341  17.1194688  22.6138516  30.3553102
   2.7879032  19.8181672  19.1830229   2.4391836  20.4701397  19.6461779
   2.3075478  19.8038785  18.4554101   2.6649276  19.9124726  19.1441321
  10.3483049  30.1182716  23.2898991  11.0717248  30.5840829  23.1463565
   9.9083640  30.1856326  22.5396588  10.3898741  30.1966553  23.1583773
   7.0851211  18.9253283  32.4886513   7.1093698  18.3913395  31.7999293
   7.3362685  18.4170592  33.1512104   7.1261130  18.7714187  32.4851158
   3.3652533  17.6524101  31.8692257   3.4050905  18.1533308  32.5826965
   2.5402198  17.7434495  31.5998180   3.2492059  17.7405917  31.9342795
   3.1602941  22.4440203  24.6956274   3.3005902  22.9412667  25.3984915
   3.6585473  21.7426497  24.8370488   3.2544022  22.4142181  24.8207853
   3.1903163  23.3107314  22.0248851   3.8248243  23.9067739  21.9598313
   3.2728774  23.0110771  22.8394721   3.2959714  23.3548222  22.1351937
   4.7682146  19.2421289  21.9994293   5.0897987  18.7624371  21.3453555
   5.0309090  20.0520935  21.8085104   4.8548171  19.2911187  21.8749785
  10.1641301  18.6293483  34.3617772  10.5896372  18.1766009  33.7501298
   9.5498294  18.0753554  34.6382559  10.1369946  18.4807459  34.3122797
   8.6035524  15.1008583  27.7708349   7.9603842  14.9506229  28.3393487
   8.2634931  14.8550928  27.0057454   8.4580601  15.0420705  27.7411364
  13.1934870  23.0568010  27.1938357  12.5226060  23.5997712  27.0651423
  13.8874620  23.5262865  26.9520052  13.1963738  23.2066281  27.1393885
  13.3562998  19.5123893  30.1028731  13.7090608  19.0853616  30.7774529
  12.4977799  19.4274737  30.2329807  13.2812442  19.4368634  30.2223741
   2.0546683  22.1431413  28.1611577   1.3358672  22.5595545  28.4284441
   2.4259045  22.7085652  27.6103215   2.0038614  22.2880694  28.1194384
  11.3546263  22.7759262  34.0513573  11.3344191  22.5942557  34.9048352
  11.4025464  23.6471280  34.0273157  11.3580904  22.8775800  34.1736868
   7.8293257  21.1829413  23.4984957   7.2358096  21.5046409  22.9469524
   7.8668535  20.3370508  23.2906063   7.7467646  21.1053741  23.3867728
  14.7887058  14.6342305  31.0313043  14.2817922  13.9271445  30.9634221
  15.5854491  14.3035494  31.1614120  14.8314297  14.4815456  31.0412038
  10.7051074  21.1408917  26.9286707  10.4764767  21.1641619  26.0865065
  10.9649150  20.3166384  27.0481717  10.7097262  21.0224997  26.8211905
   3.7595836  19.6785464  28.2240903   4.2353202  20.0402543  27.5891084
   3.2584436  20.3341931  28.5041045   3.7561195  19.8279652  28.1717644
  16.9907198  29.1507232  24.0153908  17.3740803  29.8998588  24.2452005
  16.1951311  29.3973051  23.7565897  16.9300980  29.2976925  24.0111481
   5.8022489  21.8226663  21.5914287   6.1821454  21.8406293  20.8065401
   5.0615085  22.2680652  21.4705134   5.7491327  21.8908438  21.4577855
  13.4307780  20.1308855  27.1789865  13.4302006  19.9757511  28.0374142
  13.2263960  20.9771842  27.1231251  13.4007558  20.2329475  27.2977805
  11.1548632  24.8106356  30.8326072  11.6502297  24.0929351  30.7930092
  10.3448408  24.5077154  30.7180559  11.1092525  24.6604003  30.8099798
   6.6007243  28.6604170  22.9823077   5.7918566  28.3370843  22.9356386
   7.1082152  27.9537392  22.9151325   6.5556910  28.5085486  22.9653371
  13.2200451  27.5610044  33.5203201  13.6455522  27.0384466  32.9673626
  12.8557371  28.1590881  32.9991824  13.2287053  27.5720271  33.3612211
   9.8079050  31.2744308  29.8504358  10.2790228  31.9884571  30.0194344
  10.1439229  30.6743058  30.3864228   9.9274165  31.2915772  29.9536734
  13.2546861  19.1347597  33.9983243  12.6709850  19.6356803  33.5860811
  13.5751155  18.6277153  33.3647567  13.2160036  19.1339432  33.8441750
   5.7941660  18.0488192  24.2741918   6.6157354  18.2186504  24.0323613
   5.3311311  18.2035453  23.5508216   5.8472822  18.0969925  24.1313562
  16.4100445  33.6632883  29.8327582  16.0803775  34.1144027  29.1631281
  15.7345447  33.5849047  30.3800589  16.2610881  33.7184019  29.8150805
  23.6176853  29.6518406  28.0777193  23.3030294  30.3421885  28.5097615
  23.1003794  29.5963188  27.3762693  23.4941323  29.7453295  28.0374142
  14.6156399  31.7245172  25.3150530  15.3702367  32.0923489  25.0767580
  14.4383934  32.0984726  26.0829709  14.7010877  31.8343360  25.3935418
  18.6513183  31.1341901  25.0477667  19.3799343  30.9557856  24.6015823
  18.7408076  31.9759981  25.2584845  18.7719845  31.2325780  25.0131184
  13.7207469  32.5471375  27.8938714  12.8529895  32.6193974  27.9596323
  14.0082674  33.3493454  28.0826689  13.6347218  32.6765522  27.9313481
  20.8891279  33.1231758  26.8947296  21.5917632  32.9239507  26.4167254
  20.6235468  32.3507701  27.2016139  20.9537911  32.9794724  26.8692737
  23.0351388  27.7612428  30.0243843  23.1534956  28.2188891  29.2911145
  22.8613564  26.9557689  29.7380060  23.0270559  27.7106200  29.8744776
  20.0028952  29.6163230  30.9662504  19.1322510  29.5901951  30.9195814
  20.2569293  29.4440423  30.1488350  19.9122512  29.5873374  30.8382641
  19.5104155  33.8959898  24.0924654  19.9647901  34.0670459  24.8172498
  19.9844201  33.2828009  23.6922430  19.6472475  33.8310783  24.1398415
  19.5768107  30.6193891  27.7708349  18.9336425  30.4691537  28.3393487
  19.2367514  30.3736236  27.0057454  19.4313185  30.5606013  27.7411364
  16.7674244  33.5673499  24.2741918  17.5889938  33.7371812  24.0323613
  16.3043894  33.7220760  23.5508216  16.8205406  33.6155232  24.1313562
  15.2043214   1.1470990  13.0424315  15.1737218   2.0015627  13.2142585
  15.8024562   0.8466282  13.6010459  15.2880371   1.2287486  13.1499118
   2.7884038   9.7709359  13.5614477   2.0366938   9.3924897  13.3330522
   3.2370050   9.8027792  12.8133288   2.7433705   9.7194966  13.4171980
  11.7136615   6.5033167  27.4037702  12.4203382   6.0085197  27.5324636
  11.9024550   6.9442248  26.6740360  11.8464521   6.4951517  27.3146747
   8.2408998  10.1934728   8.9900024   7.9060366  10.8711650   8.5544247
   8.7535868   9.8040040   8.4016896   8.2674579  10.2359306   8.8386816
   7.7813289  12.1448997  14.9311136   8.1652669  12.7135896  14.3915911
   7.7172430  11.4198507  14.4516952   7.8286716  12.1224460  14.7804999
  11.2494719   2.2938685  20.4408897  11.7950679   2.9723771  20.5002867
  11.1911596   2.1526146  19.5810479  11.3210634   2.3730687  20.3220958
   4.3668794   9.7827751  15.8277250   4.4679157   8.9728105  16.1374378
   3.7710540   9.6884697  15.1976928   4.2941333   9.6492779  15.7803488
  13.0259788   3.7223292  11.3142625  12.9099314   4.4730978  11.7434763
  13.8215675   3.4647245  11.5638712  13.1264377   3.7958139  11.4146717
   4.2069534  14.7005340  17.2292106   4.8506989  15.1418504  17.6188264
   4.5325789  13.8958766  17.1422365   4.3501363  14.6470535  17.2737583
   4.9090114   7.7117315  12.6011968   5.2305955   8.2522522  11.9973276
   5.5562210   7.1414086  12.7334257   5.0516169   7.7076490  12.5319003
   7.1479757   6.1003755  12.6726146   7.5873393   5.4920855  13.1180919
   6.9984420   5.7211128  11.9011611   7.1901223   5.9542226  12.6245313
   4.6151400   4.6947767  19.8744971   5.2600403   4.2020210  19.5555920
   4.8553177   4.8372553  20.7011050   4.7461985   4.6425209  19.9494504
   7.1537491   7.5402673  19.5251864   7.4360734   6.7454078  19.3038620
   7.8823652   8.0183260  19.5456925   7.3027055   7.4937270  19.4954879
  10.7489094   4.4530936   9.6256915  10.6640389   5.3091903   9.7706484
  11.2373477   4.1775260  10.2939074  10.8077991   4.5388258   9.7458997
  11.6807527   1.0715730  11.1254650  11.1518998   1.2875364  11.7851956
  12.2032547   1.7651869  11.0455619  11.6795980   1.2058867  11.2110249
  17.1355580   6.6462035  16.4987695  16.3053283   6.8572679  16.6621111
  17.0864832   5.8199089  16.2229978  17.0062315   6.5551641  16.4825060
   5.1965317   9.4765889  19.3335604   4.6792259   9.1173304  18.7296912
   5.8939709   8.9528063  19.3441670   5.2230898   9.3463577  19.2465863
   8.8528909   9.9260703  25.2951777   8.9412255   9.7386843  26.1429988
   9.2818622   9.2798133  24.8956624   8.9291012   9.8023711  25.3623529
   6.4199369   9.2091863  24.2769439   5.8570204   8.7964473  24.8009101
   7.1820393   9.1344769  24.6962583   6.4493818   9.1369264  24.4162440
   1.9795361  11.1989884  16.8806069   2.6815940  10.6841873  16.9378826
   1.8992844  11.5264036  17.6852945   2.0719121  11.1704110  17.0078862
  16.6309538  -0.7067565  20.2938116  15.7937959  -0.6365377  20.5285710
  16.5997769  -0.7043070  19.4212418  16.5027820  -0.6957337  20.1997664
   1.3046136   7.3896236  16.3891678   2.1435035   7.6219169  16.4365439
   1.3357905   6.5200548  16.3198713   1.4327854   7.2953183  16.3856322
   1.9298839   7.8097111  20.6904983   2.4697064   7.6668242  21.3608355
   1.2468785   8.2093862  21.0589009   1.9090993   7.8476782  20.8439405
  11.3539724   3.4888112  15.8850007  12.1097239   3.9219626  15.9238916
  11.4602048   2.8392882  16.4584643  11.4809894   3.4565596  15.9748033
  14.3919895   7.3161389  16.6352410  13.9555127   7.3198132  17.3911382
  14.0582810   7.9966888  16.2031988  14.2782515   7.4173845  16.6833243
   8.9648969   9.3569722  27.9595561   9.7489385   9.4700570  28.3251303
   8.7645563   8.5310859  28.1554247   9.0514994   9.2516442  28.0429947
   9.1219362  11.2679824  21.6062016   8.3234608  11.0279324  21.8635885
   9.5705373  11.3194217  22.3529064   9.0693973  11.2402215  21.7546941
  17.5264241   4.0342309  15.5272048  18.1880675   3.4732978  15.4267956
  16.8855653   3.5394340  15.8524739  17.5293109   3.8778718  15.5604388
   8.4141049   7.3312441   7.8352971   8.8292197   6.9997464   7.1437467
   7.5832979   7.0981343   7.7073108   8.3529058   7.2483697   7.7143818
  13.8129072   5.0507692  15.2684036  14.0484661   5.1952890  14.4410887
  13.9618635   5.8150100  15.6615550  13.8694875   5.1846746  15.2047640
  15.6419529   3.8909357  13.1053640  15.9727746   4.4236998  12.4993735
  16.2152617   3.9448245  13.7615591  15.7753208   3.9778926  13.1131422
  10.8551418   1.7374260  13.7877220  10.9498272   2.4763554  14.2416846
  10.2310261   1.3091736  14.2211785  10.7760448   1.7835581  13.9185368
   9.1103892   4.9160473  24.4367501   9.6842753   4.2787717  24.5916065
   9.0318695   4.9164555  23.5677159   9.1837126   4.8225584  24.3313912
   8.2114549   3.6043454  10.0322779   9.0255188   3.8958347   9.9205550
   8.1473690   2.9503317   9.4581072   8.3217288   3.5508649   9.9311616
  14.4324039   6.2869450  24.4452354  14.1962677   5.4557515  24.3264415
  15.0767268   6.2355058  25.0307199  14.4918710   6.1567138  24.5138248
   4.0822457   7.0764972  15.1595091   4.7196404   6.8376719  15.7046884
   4.5077529   7.2802131  14.4248251   4.2398624   7.0715982  15.1312248
  15.4560460   6.0713899  20.5080649  15.1506277   6.8041956  20.8693965
  14.7366676   5.6651829  20.2273435  15.3047802   6.1195632  20.5193786
   6.4643929   7.5537394  16.8388877   6.5382938   7.3912566  17.6930727
   7.2813436   7.7427584  16.5949359   6.5960288   7.5574137  16.9286903
  21.1562252   2.7106900  19.8348993  21.0886752   2.7302859  18.9651580
  21.1417915   3.5537227  20.0604664  21.1441009   2.8380635  19.7401470
   5.0048515  10.5172137  11.5702351   5.2946814  10.1261119  10.8461577
   5.7351996  10.6988842  12.0107626   5.1555399  10.4865951  11.5285158
  18.9420869   1.4851286  18.1095588  19.4928791   0.8519355  18.3492680
  18.9264985   2.0166679  18.8011092  19.0206066   1.4700234  18.2474446
   5.5943260   5.3189883  22.6555481   5.0954954   6.0305651  22.7340369
   6.4043485   5.6390550  22.6173643   5.6399367   5.4716732  22.6612050
   2.9454431  12.4939520  14.6362500   2.7254726  12.2036875  15.4289167
   2.7248953  11.8354475  14.1080413   2.8802025  12.3539228  14.6751409
  12.6449276  -0.2752380  17.2200184  12.3014042  -0.9962045  17.5707433
  12.7442318  -0.4838529  16.3778542  12.6091319  -0.4128177  17.1471864
   5.1122386  13.8668910  13.4193193   5.7646444  13.3345352  13.6484219
   4.4147995  13.5137562  13.8061067   5.1053104  13.7358433  13.5105360
   2.0603651   6.2208087  12.8260567   2.8149619   6.6021126  13.0396030
   1.4674264   6.6719231  13.2807264   2.0840365   6.3436915  12.9243445
  13.1062305   6.1873324  12.7624172  13.6720337   6.8466534  12.6782715
  12.4590208   6.5323022  13.2340574  13.0941061   6.3355265  12.8196928
   3.3801878   7.3916649  18.2000682   2.8582631   7.5316940  18.8852547
   3.7675898   6.6327313  18.3902800   3.3605579   7.3002173  18.3301759
   9.5768883   9.1312108  12.1861251   9.3355559   8.3979969  11.7788316
   9.7570216   9.6798965  11.5327584   9.5676507   9.1034499  12.0291474
   4.8068203   4.4220668  13.5982173   4.6110986   5.0295402  13.0042476
   5.0302549   3.7288612  13.1173847   4.8102845   4.4098193  13.4398254
  15.0397765   2.8507191  16.3820968  14.9531739   3.0062617  17.2355747
  14.5848245   3.4945267  16.0080374  14.9601022   2.9682946  16.4528075
  12.8071630   6.8801298  18.7933309  12.6685989   7.5782343  19.2982052
  12.0271628   6.7249954  18.4369491  12.6714857   6.9601464  18.8159583
  11.1449715   3.1797673  25.0455691  11.1397753   2.3077490  25.0498117
  11.8510709   3.3785842  24.5725147  11.2494719   3.0801547  24.9762726
   4.8720608   2.9074657  24.4169511   5.0163984   3.4875865  23.7812621
   5.2196257   3.2850954  25.1219366   4.9448070   3.0495361  24.4268506
   7.0440526   2.1064825  22.1994643   6.2963840   2.2995840  21.7942921
   7.1982051   1.2810045  21.9618764   6.9562953   2.0129937  22.1040048
   3.9448363  11.0977429  21.2830538   4.0937927  10.5380345  20.6303942
   4.7248365  11.1769430  21.6663057   4.0822457  11.0262994  21.2427487
  14.3025003   6.2379551   9.5549808  13.9231811   5.4516689   9.5479098
  13.6391248   6.7866408   9.4121453  14.1483477   6.2024375   9.5330605
   6.4701664  11.2692072  22.5615029   6.3945335  10.6000882  23.1165817
   6.3991523  11.9709860  23.0755695   6.4482271  11.2736979  22.7191877
   7.1271911   9.7893071  13.3938635   7.8921802   9.5202714  13.0721299
   7.0250001   9.3043081  14.1108697   7.2253406   9.6782635  13.4518462
  10.5468367   5.6259910  17.6591316   9.8713369   5.3945142  18.1604703
  10.5560743   5.0181093  17.0333421  10.4486871   5.5018835  17.6407469
  12.5485101   8.4825042   9.8901494  12.6304939   9.2892029   9.5662945
  13.0334844   8.5021002  10.6142268  12.6322259   8.6045705   9.9488393
   6.3581605   3.1609878  18.5571572   5.9343854   3.3614377  17.8210591
   6.1826460   2.3138726  18.6695872   6.2692485   3.0658660  18.4645262
   5.8593298  14.6760391  21.0193030   6.3489229  13.9771181  20.8368694
   5.2877530  14.3784261  21.6069087   5.8477828  14.5286615  21.0794070
   8.1843194   3.0319813  12.8592908   8.7258740   2.5290195  13.3231529
   8.4989753   2.9785008  12.0482393   8.3107591   2.9499234  12.8076720
  12.0560302   7.2422461  29.9719820  12.8695167   6.9707610  30.1324953
  11.8955268   6.9430001  29.1680016  12.1530250   7.1577387  29.8765226
   6.3529644   8.4237165  10.1432936   6.4222464   7.5651703  10.2825936
   7.1318099   8.6409046   9.8151961   6.4782494   8.3290029  10.1150093
  10.7437132  10.8474866  14.3569429  10.3516923  10.5441581  13.6392295
  10.8990204  11.6843956  14.1674383  10.7090721  10.9258703  14.2225926
  11.4971552  -0.4654817  23.8498516  10.6848233  -0.7728926  23.9311688
  11.9561486  -0.9455817  24.4141228  11.4451936  -0.5818324  23.9453110
  10.9076806   7.4124855  14.2975460  10.5491461   7.5839498  15.0739492
  10.4215517   7.8738061  13.7403458  10.7835503   7.5063826  14.3300729
  12.0681546   8.3028751  25.2442661  12.7061266   7.8088947  24.9105117
  11.4255637   8.2306152  24.6594888  12.0675772   8.2187760  25.1085016
  13.7938546   0.1517897  19.8108576  13.3666154   0.0644246  19.0556676
  13.1564599   0.2595673  20.3963420  13.6368153   0.1550557  19.7854018
  12.1235802   8.9948559  21.8848017  12.9128180   8.6437624  22.0050099
  12.2979400   9.8084948  21.6224651  12.2656084   9.0634416  21.8635885
   3.7364129   7.5488405  22.8945502   3.6284484   7.5590467  23.7607560
   3.9459910   8.3743185  22.7050455   3.7514240   7.6729480  22.9949593
   1.7537921   4.8001047  20.3567439   1.1625854   5.4410546  20.3270454
   2.5158944   5.2238665  20.3298739   1.7786181   4.9576886  20.3482586
  17.8728342   4.6306817  21.3544717  17.9311466   5.0793466  22.1004694
  17.2394810   5.0405630  20.9174797  17.7879637   4.7580552  21.3997266
  11.5127437  10.2510359  17.7899464  11.3147126  10.7401173  17.0955675
  10.8915148  10.4551600  18.3683597  11.3915001  10.3526897  17.7722687
  14.8250022   2.6523105  19.4410408  14.5848245   1.8129520  19.4452834
  15.3042029   2.7323271  20.1651181  14.8602205   2.5404504  19.5485210
  16.8255209  -0.5675438  17.3939667  16.5864979  -0.6079604  16.5560452
  16.9889110   0.2795714  17.5205388  16.8145512  -0.4483353  17.2893149
  13.4301239   3.8174511  23.3244712  14.1535438   3.3647038  23.1455732
  13.1651201   4.0979177  22.5417040  13.4982512   3.7925480  23.1823427
  10.0433873   7.0560847  10.2239038  10.7668072   7.5218960  10.0803611
   9.6034464   7.1234457   9.4736635  10.0849565   7.1344684  10.0923820
   9.2120028   3.9158389  21.4739727   8.5977021   3.3716440  21.7688362
   9.7287313   3.4022626  20.9945543   9.1975691   3.7594799  21.4463956
   8.4516325   4.9862660  19.2084026   8.0243934   4.3612378  18.7749461
   8.4441270   4.7037581  20.0343033   8.3875467   4.8515440  19.2663853
  15.8636553   2.7800922  21.8275262  16.4554393   3.4198173  21.8593460
  16.2995547   2.0823959  22.1167329  16.0154984   2.7719272  21.8756094
   7.6929943   7.2018294  22.4533156   7.1855034   7.7554141  22.8973786
   7.3956589   7.2626584  21.6351930   7.5734828   7.2924606  22.3981612
  10.3037723  11.1181552  10.3837099   9.5867033  10.9442414   9.9184337
  10.9544461  10.8834124   9.8512585  10.2939573  11.0577345  10.2366317
  12.8885694  -0.0053859  14.1278404  12.2176884   0.5375843  13.9991470
  13.5825444   0.4640996  13.8860099  12.8914562   0.1444412  14.0733932
   6.9372428  12.1342853  19.3590163   6.7138082  11.3761682  19.7274189
   6.4482271  12.1640874  18.6370602   6.8315877  12.0265077  19.3066904
  11.0497087  -0.2862607  20.9853620  11.0295015  -0.4679312  21.8388399
  11.0976288   0.5849411  20.9613203  11.0531728  -0.1846069  21.1076914
   8.9943417   6.3024585  26.9102096   8.9539272   5.6574262  26.3247252
   9.8066736   6.2461202  27.2227508   9.1086571   6.1983552  26.8699045
   5.5850885  12.3543311  16.8127247   5.1711283  11.6917441  16.4231089
   6.2698259  12.5021170  16.2922941   5.6249257  12.2783969  16.6783744
   8.9516179  11.5133396  17.5650864   8.5532462  11.6235666  16.7971684
   8.3367399  11.7215462  18.1477424   8.8015068  11.5606964  17.5382163
  16.6858022   6.0885363  10.9493954  17.0691627   6.8376719  11.1792051
  15.8902135   6.3351182  10.6905943  16.6251804   6.2355057  10.9451528
  10.8499456   1.7484488  17.7666119  11.3453121   1.0307483  17.7270139
  10.0399232   1.4455285  17.6520606  10.8043349   1.5982134  17.7439845
   6.2958067   5.5982301   9.9163123   5.4869390   5.2748974   9.8696433
   6.8032976   4.8915523   9.8491372   6.2507734   5.4463617   9.8993418
  12.9151275   4.4988175  20.4543248  13.3406346   3.9762597  19.9013673
  12.5508195   5.0969012  19.9331871  12.9237877   4.5098402  20.2952257
   2.5505354  12.7952393  19.2140593   2.8651913  13.6088781  19.2218375
   2.9598768  12.4102611  19.8822752   2.6573452  12.8581095  19.3144685
   9.5029874   8.2122439  16.7844405   9.9741052   8.9262702  16.9534390
   9.8390053   7.6121189  17.3204275   9.6224989   8.2293904  16.8876781
  11.5906859   9.8223753  28.9636477  11.7003824   9.0332313  29.3193224
  11.9197755   9.7329689  28.1610815  11.6559264   9.6929606  28.8978868
  10.1403820   8.0040373  23.5472098   9.5924766   7.3798257  23.2792163
  10.6016849   8.1934645  22.8316177  10.1271030   7.9399424  23.4022529
   9.7062147   9.0091446  20.0781439  10.5260521   8.8654412  20.3397734
   9.4256224   9.6337645  20.6197877   9.7858890   9.0801798  20.1969378
  26.1775797  16.6656298  13.0424315  26.1469801  17.5200935  13.2142585
  26.7757146  16.3651590  13.6010459  26.2612955  16.7472794  13.1499118
  13.7616622  25.2894667  13.5614477  13.0099521  24.9110205  13.3330522
  14.2102633  25.3213100  12.8133288  13.7166288  25.2380274  13.4171980
  22.6869198  22.0218474  27.4037702  23.3935966  21.5270505  27.5324636
  22.8757134  22.4627556  26.6740360  22.8197104  22.0136825  27.3146747
  19.2141582  25.7120036   8.9900024  18.8792950  26.3896958   8.5544247
  19.7268452  25.3225347   8.4016896  19.2407163  25.7544614   8.8386816
  18.7545873  27.6634305  14.9311136  19.1385252  28.2321204  14.3915911
  18.6905014  26.9383815  14.4516952  18.8019300  27.6409768  14.7804999
  15.3401378  25.3013059  15.8277250  15.4411741  24.4913413  16.1374378
  14.7443123  25.2070005  15.1976928  15.2673916  25.1678087  15.7803488
  23.9992372  19.2408600  11.3142625  23.8831898  19.9916286  11.7434763
  24.7948258  18.9832553  11.5638712  24.0996961  19.3143447  11.4146717
  15.1802117  30.2190648  17.2292106  15.8239573  30.6603812  17.6188264
  15.5058373  29.4144074  17.1422365  15.3233946  30.1655843  17.2737583
   8.5366422  21.3233345  15.4529584   8.3016607  20.4900998  15.3461852
   8.6752063  21.6038011  14.6390784   8.5222085  21.2416849  15.3171938
  10.8356510  13.4919076  18.3513891  10.2161541  12.9011723  18.1823906
  10.7340373  14.0830511  17.7178214  10.7294185  13.4923159  18.2318881
  15.8822697  23.2302623  12.6011968  16.2038538  23.7707830  11.9973276
  16.5294794  22.6599394  12.7334257  16.0248752  23.2261798  12.5319003
  10.5625643  17.0371358  20.5957460  10.4384339  17.6233803  21.2307279
  11.2143927  16.5431553  20.8969735  10.6399292  17.0510162  20.7343389
  18.1270075  23.0587981  19.5251864  18.4093318  22.2639386  19.3038620
  18.8556235  23.5368568  19.5456925  18.2759639  23.0122577  19.4954879
  16.1051269  10.6011015  16.7667629  15.7754599  11.0522158  16.0971328
  15.4296271  10.5227178  17.3140635  15.9561705  10.6562150  16.7490852
  21.7221677  19.9716244   9.6256915  21.6372972  20.8277211   9.7706484
  22.2106060  19.6960568  10.2939074  21.7810574  20.0573566   9.7458997
  23.3127677   6.5896537  15.0117240  22.9981118   7.2800016  15.4437662
  22.7954618   6.5341320  14.3102740  23.1892147   6.6831426  14.9714189
  22.6540110  16.5901038  11.1254650  22.1251582  16.8060672  11.7851956
  23.1765130  17.2837177  11.0455619  22.6528563  16.7244175  11.2110249
  28.1088163  22.1647343  16.4987695  27.2785866  22.3757986  16.6621111
  28.0597416  21.3384397  16.2229978  27.9794899  22.0736949  16.4825060
  14.5439718  20.4864255   9.9262118  13.9596933  20.9914286  10.3327982
  14.1409813  20.2606642   9.1858710  14.3979022  20.5272503   9.8767143
  10.0983747  26.2019016  16.7285790   9.6151325  26.9269506  16.7045373
  10.9107065  26.4995146  16.8395947  10.1474495  26.3521370  16.7413069
  16.1697901  24.9951197  19.3335604  15.6524842  24.6358612  18.7296912
  16.8672292  24.4713371  19.3441670  16.1963482  24.8648885  19.2465863
  19.8261493  25.4446011  25.2951777  19.9144839  25.2572151  26.1429988
  20.2551205  24.7983441  24.8956624  19.9023595  25.3209019  25.3623529
  17.3931953  24.7277171  24.2769439  16.8302787  24.3149781  24.8009101
  18.1552976  24.6530077  24.6962583  17.4226401  24.6554571  24.4162440
  19.0016933  16.7329907   8.4031039  19.2412936  16.9407891   7.5906382
  19.3232774  15.9287416   8.5119983  19.0854090  16.6444008   8.2991592
  14.3107223   8.6623303  12.2490577  15.0653191   9.0301620  12.0107627
  14.1334757   9.0362857  13.0169756  14.3961701   8.7721491  12.3275465
  12.9527944  26.7175192  16.8806069  13.6548523  26.2027181  16.9378826
  12.8725427  27.0449343  17.6852945  13.0451704  26.6889418  17.0078862
  27.6042122  14.8117743  20.2938116  26.7670543  14.8819930  20.5285710
  27.5730353  14.8142238  19.4212418  27.4760404  14.8227970  20.1997664
  14.0006851  16.9550779  26.0086485  14.1727354  16.8456674  26.8571766
  14.5376208  17.6005185  25.7717677  14.1051855  17.0342781  26.0991581
  12.6664287  11.0693622   8.9468690  12.4839861  11.2865503   8.1209682
  13.5289901  11.1832635   9.0027304  12.7668877  11.1183520   8.8323177
  12.2778719  22.9081544  16.3891678  13.1167619  23.1404477  16.4365439
  12.3090489  22.0385856  16.3198713  12.4060437  22.8138491  16.3856322
  12.9031422  23.3282419  20.6904983  13.4429647  23.1853550  21.3608355
  12.2201369  23.7279170  21.0589009  12.8823576  23.3662090  20.8439405
  18.3464007   8.0720033  11.9817713  19.0750167   7.8935988  11.5355870
  18.4358900   8.9138112  12.1924892  18.4670669   8.1703911  11.9471231
  25.3652478  22.8346697  16.6352410  24.9287710  22.8383440  17.3911382
  25.0315394  23.5152196  16.2031988  25.2515098  22.9359153  16.6833243
  19.9381552  24.8755030  27.9595561  20.7221969  24.9885878  28.3251303
  19.7378147  24.0496167  28.1554247  20.0247577  24.7701749  28.0429947
   8.3068568  19.5482710  20.8439405   8.0406983  18.7321827  21.0030395
   8.3207132  19.5935866  19.9734920   8.2693290  19.4339615  20.7392887
  25.2849961   9.8760525  18.8781838  25.9275870   9.9458630  19.4643754
  25.5372982   9.2089748  18.3761380  25.4172094   9.7886874  18.8909118
  12.2126315  14.3467795   7.4591163  11.4984492  14.0605974   7.8713595
  12.6970283  14.6864420   8.0997550  12.1785678  14.3549444   7.6146798
  13.0567174  13.0861088  23.4906412  12.3638971  12.6158068  23.7367144
  13.6727501  12.8599393  24.0648119  13.0451704  12.9828220  23.6115565
  20.0951945  26.7865132  21.6062016  19.2967191  26.5464632  21.8635885
  20.5437957  26.8379525  22.3529064  20.0426557  26.7587523  21.7546941
  28.4996825  19.5527617  15.5272048  29.1613259  18.9918286  15.4267956
  27.8588237  19.0579648  15.8524739  28.5025692  19.3964026  15.5604388
  19.3873632  22.8497748   7.8352971  19.8024781  22.5182772   7.1437467
  18.5565562  22.6166651   7.7073108  19.3261641  22.7669004   7.7143818
   8.7161981  20.3341490  18.1251149   8.5337554  20.3088376  17.2723441
   9.4511650  20.8040427  18.1640058   8.7976045  20.4002852  18.0049067
  24.7861655  20.5692999  15.2684036  25.0217245  20.7138198  14.4410887
  24.9351219  21.3335408  15.6615550  24.8427459  20.7032054  15.2047640
  11.7807733  17.0526492  24.6333258  12.5047705  17.0379523  25.1198152
  11.8823869  17.7621848  24.1355226  11.9025942  17.1551196  24.6312044
  26.6152112  19.4094665  13.1053640  26.9460329  19.9422306  12.4993735
  27.1885200  19.4633553  13.7615591  26.7485791  19.4964234  13.1131422
  19.1552682  20.5325577  29.4982205  18.3625663  20.8469089  29.6834824
  19.2701609  20.7477045  28.6602989  19.0548093  20.6109414  29.4020539
  20.0836475  20.4345781  24.4367501  20.6575337  19.7973025  24.5916065
  20.0051279  20.4349863  23.5677159  20.1569710  20.3410892  24.3313912
   8.6832892  17.2134990  18.2750215   9.2606394  17.0771441  18.9142461
   7.9846953  16.7570774  18.5295800   8.6653913  17.1257256  18.4072505
  22.0807023  19.1008308   7.0214172  21.9987185  19.1710495   7.8869159
  22.7186743  19.6638052   6.8297913  22.1626860  19.1947279   7.1204122
  20.5201244  10.9697497  16.5892791  19.8157571  10.4806682  16.7476710
  20.5686218  10.9819971  15.7181236  20.4231295  10.8987145  16.4832131
  27.7231464  14.6505162  14.6093802  27.4668028  13.8385104  14.4191685
  28.5660778  14.6582729  14.3823989  27.8097489  14.5317160  14.5478619
   4.1591725  16.0646883  14.9898034   4.2451977  15.6878751  15.7711564
   4.7867522  15.6907329  14.5117992   4.2648276  15.9532365  15.0343511
  21.9034556   8.5904786  19.3469956  22.2845068   7.9082957  19.7337830
  21.0997840   8.3014388  19.1645621  21.8411018   8.4471835  19.3774012
  19.1847133  19.1228762  10.0322779  19.9987772  19.4143655   9.9205550
  19.1206274  18.4688625   9.4581072  19.2949872  19.0693957   9.9311616
  25.4056623  21.8054758  24.4452354  25.1695260  20.9742823  24.3264415
  26.0499852  21.7540366  25.0307199  25.4651294  21.6752446  24.5138248
  15.0555041  22.5950280  15.1595091  15.6928988  22.3562027  15.7046884
  15.4810113  22.7987439  14.4248251  15.2131207  22.5901290  15.1312248
   9.7467683  24.8338616  19.0429395   9.7871829  25.1053467  18.2149174
  10.3062207  25.3580524  19.4587183   9.8351029  24.9514371  18.9821283
  15.6957856  17.8152569   9.4969980  16.0803009  17.5960276  10.2486525
  15.4469476  18.6415515   9.6271057  15.7159929  17.9050716   9.6271057
  15.8626396  11.0958985  29.2132565  15.5479838  11.8658547  28.9502127
  15.5416329  10.5329241  28.6284791  15.7685316  11.1269253  29.0873914
  26.4293044  21.5899207  20.5080649  26.1238861  22.3227264  20.8693965
  25.7099259  21.1837137  20.2273435  26.2780386  21.6380940  20.5193786
  17.4376513  23.0722702  16.8388877  17.5115521  22.9097874  17.6930727
  18.2546019  23.2612892  16.5949359  17.5692872  23.0759445  16.9286903
  32.1294836  18.2292208  19.8348993  32.0619336  18.2488167  18.9651580
  32.1150498  19.0722535  20.0604664  32.1173592  18.3565942  19.7401470
  11.1982270  23.4180565  13.8683321  10.3720387  23.6642302  13.7417599
  11.2594261  23.3392646  14.7345379  11.0856437  23.4425514  13.9772265
  13.4158293   9.4849506  14.8278761  12.5480719   9.5572106  14.8936370
  13.7033498  10.2871585  15.0166736  13.3298042   9.6143653  14.8653527
  22.5391182   9.6327365  23.1590083  23.2844774   9.4437176  22.7453508
  22.1228487  10.1585603  22.6003939  22.5876156   9.6829511  23.0154656
  15.9781099  26.0357445  11.5702351  16.2679397  25.6446427  10.8461577
  16.7084580  26.2174150  12.0107626  16.1287983  26.0051259  11.5285158
  29.9153453  17.0036594  18.1095588  30.4661375  16.3704663  18.3492680
  29.8997568  17.5351987  18.8011092  29.9938649  16.9885542  18.2474446
  16.5675844  20.8375191  22.6555481  16.0687538  21.5490959  22.7340369
  17.3776068  21.1575858  22.6173643  16.6131951  20.9902040  22.6612050
  13.9187014  28.0124828  14.6362500  13.6987310  27.7222182  15.4289167
  13.6981536  27.3539783  14.1080413  13.8534608  27.8724536  14.6751409
  23.6181859  15.2432928  17.2200184  23.2746625  14.5223263  17.5707433
  23.7174902  15.0346779  16.3778542  23.5823902  15.1057131  17.1471864
  16.0854970  29.3854218  13.4193193  16.7379028  28.8530660  13.6484219
  15.3880579  29.0322870  13.8061067  16.0785688  29.2543741  13.5105360
  13.0336235  21.7393395  12.8260567  13.7882203  22.1206434  13.0396030
  12.4406848  22.1904539  13.2807264  13.0572948  21.8622223  12.9243445
  24.0794888  21.7058632  12.7624172  24.6452921  22.3651842  12.6782715
  23.4322792  22.0508330  13.2340574  24.0673645  21.8540573  12.8196928
  15.4942902  13.6956236  27.9517779  14.6842678  14.0014015  27.8407622
  15.9717589  14.4161818  28.0670363  15.4446381  13.8470837  27.9524850
  11.3425646  12.9607765  12.2695637  11.0550441  12.5909036  11.5327584
  12.0296114  13.4302621  12.0079342  11.4014543  12.9754735  12.1210713
  20.5501466  24.6497416  12.1861251  20.3088142  23.9165277  11.7788316
  20.7302799  25.1984273  11.5327584  20.5409090  24.6219807  12.0291474
  11.8286934  19.2318786  22.8217182  12.3408031  19.5103039  22.1725941
  11.5423276  19.9708080  23.1879995  11.8621797  19.3821140  22.7807060
  20.5842103  10.0609889  13.8287343  21.2868456   9.8617638  13.3507301
  20.3186292   9.2885832  14.1356186  20.6488735   9.9172855  13.8032784
  26.0130349  18.3692499  16.3820968  25.9264323  18.5247925  17.2355747
  25.5580828  19.0130575  16.0080374  25.9333605  18.4868254  16.4528075
   8.9153840  13.7388978  13.1180918   9.0169977  14.5415139  13.4461894
   9.7109727  13.5376314  12.8203999   9.0481746  13.8274877  13.1216273
  15.3470659  11.3245175  22.8818223  15.1553856  11.3400309  23.7317647
  16.1969255  11.5208849  22.8584878  15.4446381  11.3559526  23.0041518
   9.7317572  13.8536156  20.8602040   9.5903064  13.0020097  20.9846548
  10.0158136  13.8964817  20.0364246   9.7525418  13.7335906  20.7569664
  23.7804213  22.3986606  18.7933309  23.6418573  23.0967651  19.2982052
  23.0004211  22.2435262  18.4369491  23.6447440  22.4786772  18.8159583
  22.1182299  18.6982981  25.0455691  22.1130337  17.8262798  25.0498117
  22.8243292  18.8971150  24.5725147  22.2227303  18.5986855  24.9762726
  15.8453192  18.4259965  24.4169511  15.9896568  19.0061173  23.7812621
  16.1928840  18.8036262  25.1219366  15.9180653  18.5680669  24.4268506
  14.9180947  26.6162737  21.2830538  15.0670511  26.0565653  20.6303942
  15.6980949  26.6954738  21.6663057  15.0555040  26.5448302  21.2427487
  25.2757586  21.7564859   9.5549808  24.8964395  20.9701997   9.5479098
  24.6123832  22.3051716   9.4121453  25.1216061  21.7209683   9.5330605
  17.4434247  26.7877380  22.5615029  17.3677919  26.1186190  23.1165817
  17.3724107  27.4895168  23.0755695  17.4214854  26.7922287  22.7191877
  18.2574886  11.5200684  23.0890046  18.7147500  12.2524658  23.2162839
  18.3331215  11.0967149  23.8477302  18.3365856  11.5657922  23.2191123
  10.5007877  11.7666504  24.1779490   9.9650067  11.1546862  24.4940257
  10.5625642  12.3414640  24.8313157  10.4303510  11.7613431  24.3214917
  22.7302212   4.6990559  16.9583889  22.8485780   5.1567022  16.2251192
  22.5564388   3.8935820  16.6720107  22.7221383   4.6484331  16.8084823
  18.1004494  25.3078378  13.3938635  18.8654386  25.0388022  13.0721299
  17.9982584  24.8228389  14.1108697  18.1985990  25.1967943  13.4518462
  16.1357264  13.5102788  19.9331870  15.3453339  13.3294248  20.2549206
  16.5317887  12.7329740  19.9162165  16.0774140  13.3690249  19.9784419
  20.6223155  22.3390562   5.3738584  21.3896140  22.3990687   4.9644436
  20.1754464  21.7671004   4.8894903  20.6696582  22.2627138   5.2416294
  21.5200950  21.1445218  17.6591316  20.8445952  20.9130450  18.1604703
  21.5293327  20.5366401  17.0333421  21.4219455  21.0204143  17.6407469
  18.6495094  15.9863047  24.4155369  18.5854236  16.8473003  24.2875506
  18.7892282  15.6695040  23.6150921  18.6610564  16.0663214  24.2783582
  23.5217685  24.0010350   9.8901494  23.6037522  24.8077337   9.5662945
  24.0067427  24.0206310  10.6142268  23.6054843  24.1231013   9.9488393
  16.8325882  30.1945699  21.0193030  17.3221812  29.4956489  20.8368694
  16.2610114  29.8969569  21.6069087  16.8210412  30.0471923  21.0794070
  12.6196633  19.1747238  13.9899545  12.7761252  19.1094041  14.8455537
  12.9597226  19.9495790  13.7778224  12.6929868  19.2796436  14.0854139
  23.0292885  22.7607769  29.9719820  23.8427751  22.4892918  30.1324953
  22.8687852  22.4615309  29.1680016  23.1262834  22.6762695  29.8765226
  17.3262228  23.9422473  10.1432936  17.3955048  23.0837011  10.2825936
  18.1050683  24.1594354   9.8151961  17.4515078  23.8475337  10.1150093
  21.7169715  26.3660174  14.3569429  21.3249507  26.0626889  13.6392295
  21.8722787  27.2029264  14.1674383  21.6823305  26.4444011  14.2225926
   9.1930895  16.3582188  14.3060312   9.5729860  16.7766733  13.6420579
   8.6186260  16.9395644  14.6129155   9.1642220  16.5060047  14.2537053
  22.4704135  15.0530491  23.8498516  21.6580817  14.7456381  23.9311688
  22.9294070  14.5729491  24.4141228  22.4184520  14.9366983  23.9453110
  21.8809390  22.9310163  14.2975460  21.5224045  23.1024806  15.0739492
  21.3948101  23.3923369  13.7403458  21.7568087  23.0249134  14.3300729
  19.6979776   6.5541362  17.9002551  18.8273334   6.5280083  17.8535861
  19.9520117   6.3818554  17.0828397  19.6073336   6.5251505  17.7722688
  16.6697755  18.6109328   6.8375694  16.9590280  19.3874211   7.1119269
  16.7569554  18.0998060   7.5390194  16.7252012  18.6501247   6.9818192
  19.5657643  16.4590562  28.6327218  20.0357274  17.0832679  29.0195092
  19.6119523  15.7907538  29.1920433  19.6425519  16.4525243  28.7727289
  16.7228916   8.5647590  19.3576022  16.2067405   7.8727781  19.4827601
  16.1622845   9.2318367  19.3038620  16.5635430   8.5610848  19.3682088
  18.7921150   9.1040550  21.1868874  18.4052903   9.1289581  21.9682404
  18.3054087   8.5382229  20.7343391  18.6633659   9.0236301  21.2356778
  23.0414129  23.8214059  25.2442661  23.6793850  23.3274255  24.9105117
  22.3988221  23.7491459  24.6594888  23.0408356  23.7373067  25.1085016
  24.7671129  15.6703205  19.8108576  24.3398737  15.5829554  19.0556676
  24.1297182  15.7780980  20.3963420  24.6100737  15.6735865  19.7854018
  18.4578292   5.9907536  23.4779134  19.0871410   6.5267836  23.2000204
  18.6264154   5.8984894  24.3292700  18.5756086   6.0568898  23.5627662
  18.2592206  10.7778730  25.7505546  19.0865636  10.5063879  25.8064160
  18.2800053  11.5739572  26.1069364  18.3845057  10.8558484  25.8120729
  23.0968386  24.5133867  21.8848017  23.8860764  24.1622932  22.0050099
  23.2711984  25.3270256  21.6224651  23.2388668  24.5819724  21.8635885
  10.3137263  15.5462130  16.7660557   9.9193961  15.6205142  15.9910667
   9.7577380  15.9320076  17.3168919  10.1740076  15.6143905  16.7328217
  21.9502210   8.5243424  16.4464436  22.1551803   8.4565732  17.2921433
  21.6228634   9.3302245  16.3785613  21.9317458   8.6329364  16.5624091
  15.7044458  13.1624512  12.7518106  15.9804193  12.4443425  12.3395673
  16.3043128  13.7609432  12.5439212  15.8337723  13.1444883  12.6598867
  14.7096712  23.0673713  22.8945502  14.6017067  23.0775775  23.7607560
  14.9192494  23.8928493  22.7050455  14.7246823  23.1914788  22.9949593
  25.2035898   9.0775188  15.9267201  24.5910211   9.5645590  16.3120933
  25.3000073   8.4018679  16.4704853  25.1273795   9.0493497  16.0646060
  19.2054979  10.8338029  11.0264701  19.6598725  11.0048590  11.7512545
  19.6795025  10.2206140  10.6262476  19.3423299  10.7688915  11.0738462
  13.1231127  11.4788353  21.0235457  13.5832609  11.5527282  21.7610581
  13.1687234  12.2769607  20.6735278  13.1981682  11.6082500  21.0808213
  14.7714477  12.1455048  25.5907484  14.3800042  11.4988395  26.0263262
  14.9400339  12.7366483  26.2101739  14.7385387  12.1369316  25.7470190
  28.8460926  20.1492125  21.3544717  28.9044049  20.5978774  22.1004694
  28.2127393  20.5590938  20.9174797  28.7612221  20.2765860  21.3997266
  22.4860020  25.7695667  17.7899464  22.2879709  26.2586481  17.0955675
  21.8647731  25.9736908  18.3683597  22.3647585  25.8712205  17.7722687
  18.4647574   9.3330823  17.1641569  17.6183619   9.5053630  17.0382919
  18.4618707   8.5280166  17.5007398  18.3394724   9.2391852  17.1952696
   9.9118905  15.1077544  23.3987173  10.7744518  15.0073253  23.3124503
   9.5810688  14.5272253  22.8372745   9.9904101  15.0069170  23.3032579
  25.7982605  18.1708413  19.4410408  25.5580828  17.3314828  19.4452834
  26.2774612  18.2508579  20.1651181  25.8334789  18.0589812  19.5485210
  21.4629374  14.0042592  11.0929381  20.9352393  14.0871336  10.4035090
  21.9225082  14.7460463  11.0894026  21.4531225  14.1263254  10.9904076
  27.7987792  14.9509870  17.3939667  27.5597562  14.9105704  16.5560452
  27.9621694  15.7981022  17.5205388  27.7878096  15.0701955  17.2893149
  24.4033822  19.3359819  23.3244712  25.1268021  18.8832346  23.1455732
  24.1383785  19.6164485  22.5417040  24.4715096  19.3110788  23.1823427
  13.2720691  13.9319993  20.0597591  12.6473761  13.9438385  19.4523544
  12.9366286  14.4080168  20.7088831  13.1306183  14.0038510  20.0654160
  13.4562439  12.2745111   6.1170276  13.1075244  12.9264836   6.5801826
  12.9758885  12.2602224   5.3894147  13.3332683  12.3688165   6.0781368
   9.9846366  21.9920453  21.5001356   9.4546291  21.3012892  21.5496330
  10.2571460  21.9830638  20.6714064   9.9471089  21.8887585  21.3848771
  21.0166457  22.5746155  10.2239038  21.7400656  23.0404268  10.0803611
  20.5767048  22.6419765   9.4736635  21.0582149  22.6529992  10.0923820
  12.5411436  15.5413141  22.2772460  12.7004923  14.7856465  22.6824182
  12.3604330  16.0904080  22.9313197  12.5376795  15.5106954  22.4335166
  20.4831739   7.7074376  22.8323249  19.9872300   7.9038050  22.1414816
  21.2400801   8.1067044  22.6612051  20.5218564   7.7952110  22.7043386
  17.7534619  11.3816722  19.4226560  17.7777106  10.8476834  18.7339340
  18.0046092  10.8734031  20.0852150  17.7944537  11.2277626  19.4191204
   5.2642209  18.6648217  18.8569704   5.1585658  18.6195061  17.9921788
   4.5142429  19.0101998  19.1383989   5.1377811  18.7089125  18.7707034
  14.0335941  10.1087540  18.8032304  14.0734313  10.6096747  19.5167011
  13.2085606  10.1997934  18.5338227  13.9175467  10.1969357  18.8682842
  16.2165554  19.6748280  26.9052599  15.3661184  19.8119994  27.0410244
  16.3793682  18.9412058  27.3500300  16.1149417  19.5862381  26.9908198
  13.2634088  10.1156943  26.7362614  13.8886791   9.5719076  27.0092046
  12.8084568   9.6351861  26.1670404  13.2882348   9.9646424  26.6924208
  13.8286348  14.9003642  11.6296321  13.9689309  15.3976106  12.3324962
  14.3268881  14.1989936  11.7710534  13.9227429  14.8705620  11.7547900
  13.8586571  15.7670753   8.9588898  14.4931650  16.3631178   8.8938359
  13.9412181  15.4674210   9.7734768  13.9643122  15.8111661   9.0691984
  26.8369136  18.2986230  21.8275262  27.4286977  18.9383481  21.8593460
  27.2728131  17.6009267  22.1167329  26.9887568  18.2904580  21.8756094
  15.4365553  11.6984728   8.9334340  15.7581394  11.2187811   8.2793602
  15.6992497  12.5084374   8.7425151  15.5231579  11.7474626   8.8089832
  18.6662526  22.7203602  22.4533156  18.1587617  23.2739449  22.8973786
  18.3689172  22.7811892  21.6351930  18.5467411  22.8109914  22.3981612
  20.8324708  11.0856922  21.2957819  21.2579780  10.6329448  20.6841345
  20.2181702  10.5316993  21.5722606  20.8053354  10.9370898  21.2462844
  10.3639558  17.9638593  12.2278444  10.8731788  18.5603101  12.6089749
  10.8373831  17.6964567  11.5454863  10.5082934  18.0124409  12.1832966
  21.2770307  26.6366860  10.3837099  20.5599616  26.4627722   9.9184337
  21.9277044  26.4019432   9.8512585  21.2672157  26.5762653  10.2366317
  19.2718931   7.5572022  14.7048396  18.6287249   7.4069668  15.2733534
  18.9318338   7.3114367  13.9397500  19.1264009   7.4984144  14.6751411
  23.8618278  15.5131449  14.1278404  23.1909468  16.0561151  13.9991470
  24.5558028  15.9826304  13.8860099  23.8647145  15.6629720  14.0733932
  17.9105011  27.6528161  19.3590163  17.6870666  26.8946990  19.7274189
  17.4214855  27.6826182  18.6370602  17.8048460  27.5450385  19.3066904
  24.0246405  11.9687332  17.0368778  24.3774015  11.5417055  17.7114576
  23.1661207  11.8838176  17.1669854  23.9495850  11.8932073  17.1563788
  12.7230090  14.5994852  15.0951624  12.0042079  15.0158985  15.3624488
  13.0942452  15.1649091  14.5443262  12.6722022  14.7444133  15.0534431
  19.9676001  21.8209893  26.9102096  19.9271856  21.1759570  26.3247252
  20.7799319  21.7646510  27.2227508  20.0819154  21.7168860  26.8699045
  16.5583468  27.8728619  16.8127247  16.1443867  27.2102749  16.4231089
  17.2430843  28.0206478  16.2922941  16.5981840  27.7969277  16.6783744
  19.9248763  27.0318704  17.5650864  19.5265046  27.1420974  16.7971684
  19.3099982  27.2400770  18.1477424  19.7747652  27.0792272  17.5382163
  18.4976665  13.6392852  10.4325004  17.9041504  13.9609848   9.8809571
  18.5351942  12.7933947  10.2246110  18.4151054  13.5617180  10.3207775
  25.4570465   7.0905744  17.9653090  24.9501330   6.3834884  17.8974267
  26.2537899   6.7598933  18.0954167  25.4997704   6.9378895  17.9752085
  21.3734481  13.5972356  13.8626754  21.1448174  13.6205058  13.0205112
  21.6332557  12.7729823  13.9821764  21.3780669  13.4788436  13.7551951
  15.6553710  15.4506829  23.4651854  15.1432613  14.8428012  23.8236885
  15.4833206  16.1663422  23.9325830  15.5543347  15.4670129  23.5868078
  10.5019424  13.8944405  26.1154216  10.3322015  14.5545780  25.5702422
  10.0585374  14.1050966  26.8366705  10.4118758  14.0230387  26.1415845
  14.4279244  12.1348903  15.1580949  14.9036610  12.4965982  14.5231131
  13.9267843  12.7905370  15.4381092  14.4244603  12.2843091  15.1057690
  27.6590605  21.6070671  10.9493954  28.0424211  22.3562027  11.1792051
  26.8634719  21.8536490  10.6905943  27.5984387  21.7540365  10.9451528
  19.5322780  13.3731074  25.9054109  20.0894210  13.1444884  25.2732575
  19.2083845  14.1336740  25.6289322  19.5669190  13.4514911  25.7710607
   7.4021489  16.7991270  21.3742706   6.8548208  16.1291916  21.4923574
   8.1913867  16.4321118  21.4386173   7.4373672  16.6456257  21.4011406
  17.2505897  16.4598727  26.8706117  18.0017224  16.7750404  27.1845671
  17.4428474  16.2577898  26.0440038  17.3897311  16.4766109  26.7949512
  16.4705897  14.2790102   8.5254333  16.8504862  14.2969732   7.7405448
  15.7298493  14.7244091   8.4045181  16.4174735  14.3471877   8.3917902
  24.0991187  12.5872294  14.1129912  24.0985414  12.4320950  14.9714188
  23.8947367  13.4335281  14.0571298  24.0690965  12.6892914  14.2317851
   6.1608458  16.0112078  18.5288729   5.9830219  15.5588687  19.2543644
   5.8727480  16.8138239  18.7127206   6.0921411  16.0634636  18.6632231
  17.2690651  21.1167609   9.9163123  16.4601974  20.7934282   9.8696433
  17.7765560  20.4100831   9.8491372  17.2240318  20.9648925   9.8993418
   7.8980928  18.5439802  15.6410488   7.0326448  18.5325492  15.5293259
   7.9979744  18.3570025  16.4881627   7.7855095  18.5145863  15.7499432
  23.8883858  20.0173483  20.4543248  24.3138930  19.4947905  19.9013673
  23.5240778  20.6154320  19.9331871  23.8970461  20.0283710  20.2952257
  13.5237938  28.3137700  19.2140593  13.8384497  29.1274089  19.2218375
  13.9331351  27.9287919  19.8822752  13.6306036  28.3766403  19.3144685
  20.4762458  23.7307747  16.7844405  20.9473636  24.4448010  16.9534390
  20.8122636  23.1306497  17.3204275  20.5957573  23.7479211  16.8876781
  22.5639442  25.3409061  28.9636477  22.6736408  24.5517621  29.3193224
  22.8930339  25.2514997  28.1610815  22.6291848  25.2114914  28.8978868
  17.3931953   8.5035218  23.7402500  17.5259858   7.7066211  24.0683475
  17.7777105   9.0301621  24.3200776  17.4688281   8.4635134  23.8746003
  21.1136404  23.5225681  23.5472098  20.5657350  22.8983565  23.2792163
  21.5749433  23.7119953  22.8316177  21.1003613  23.4584732  23.4022529
  20.4664308   5.4265544  20.3383593  19.6610272   5.3163274  20.6551432
  20.3371043   5.5278000  19.4813459  20.3284441   5.4249214  20.2591634
  23.9230268  11.5911036  20.9323290  23.3393257  12.0920242  20.5200857
  24.2434562  11.0840592  20.2987613  23.8843444  11.5902871  20.7781797
  16.4625067  10.5051631  11.2081965  17.2840762  10.6749944  10.9663660
  15.9994718  10.6598892  10.4848262  16.5156230  10.5533364  11.0653609
  15.0520399   8.4994393  21.9880394  15.5964812   8.1585520  22.5784735
  15.1057335   9.3579854  22.1301678  15.1409519   8.5749652  22.0962267
  10.8650958  22.2610809  18.8619202  11.4695816  22.2206643  18.2333022
  10.6578271  23.1081961  18.8923257  10.9239855  22.3798811  18.7735318
  20.6794730  24.5276754  20.0781439  21.4993104  24.3839720  20.3397734
  20.3988808  25.1522953  20.6197877  20.7591474  24.5987106  20.1969378
   6.1002240  21.2445426  18.7318125   6.0026518  20.4341698  19.0408181
   6.8831110  21.2237220  18.3464393   6.2018377  21.1212517  18.7204988
  30.3508066  31.2717257  17.7977246  29.4945961  31.4325755  17.8486363
  30.3975719  30.4009321  17.8182307  30.2307177  31.1668059  17.8083312
  21.8089093  29.0104384  18.3513891  21.1894125  28.4197031  18.1823906
  21.7072957  29.6015819  17.7178214  21.7026769  29.0108466  18.2318881
  28.9056989  30.7503926  12.6846354  29.6037153  30.9292053  13.1767818
  29.2209321  30.2274265  12.0616744  29.0552326  30.6997698  12.6648364
  21.5358226  32.5556666  20.5957460  21.4116923  33.1419111  21.2307279
  22.1876511  32.0616861  20.8969735  21.6131876  32.5695470  20.7343389
  26.5616567  35.7318383  19.8744971  27.2065570  35.2390826  19.5555920
  26.8018344  35.8743169  20.7011050  26.6927152  35.6795825  19.9494504
  27.0783852  26.1196322  16.7667629  26.7487182  26.5707466  16.0971328
  26.4028854  26.0412486  17.3140635  26.9294289  26.1747458  16.7490852
  34.2860260  22.1081845  15.0117240  33.9713701  22.7985324  15.4437662
  33.7687202  22.0526628  14.3102740  34.1624731  22.2016734  14.9714189
  25.2839806  24.1808611  12.2490577  26.0385774  24.5486928  12.0107627
  25.1067341  24.5548165  13.0169756  25.3694285  24.2906799  12.3275465
  24.9739434  32.4736087  26.0086485  25.1459938  32.3641982  26.8571766
  25.5108792  33.1190492  25.7717677  25.0784438  32.5528089  26.0991581
  23.6396871  26.5878930   8.9468690  23.4572444  26.8050811   8.1209682
  24.5022484  26.7017943   9.0027304  23.7401461  26.6368828   8.8323177
  29.3196590  23.5905341  11.9817713  30.0482751  23.4121295  11.5355870
  29.4091483  24.4323420  12.1924892  29.4403252  23.6889219  11.9471231
  19.2801151  35.0668018  20.8439405  19.0139566  34.2507135  21.0030395
  19.2939715  35.1121174  19.9734920  19.2425873  34.9524923  20.7392887
  23.1858898  29.8653102   7.4591163  22.4717075  29.5791282   7.8713595
  23.6702867  30.2049728   8.0997550  23.1518261  29.8734752   7.6146798
  24.0299758  28.6046396  23.4906412  23.3371554  28.1343376  23.7367144
  24.6460085  28.3784701  24.0648119  24.0184287  28.5013528  23.6115565
  19.6894565  35.8526797  18.1251149  19.5070138  35.8273683  17.2723441
  20.4244234  36.3225735  18.1640058  19.7708629  35.9188160  18.0049067
  22.7540316  32.5711800  24.6333258  23.4780289  32.5564831  25.1198152
  22.8556453  33.2807156  24.1355226  22.8758526  32.6736504  24.6312044
  19.6565475  32.7320298  18.2750215  20.2338978  32.5956749  18.9142461
  18.9579537  32.2756082  18.5295800  19.6386497  32.6442564  18.4072505
  26.4132777  34.3854354  16.4888699  26.1552022  33.5526089  16.4619998
  26.4681260  34.6111967  15.6481199  26.3832555  34.2952125  16.3608835
  31.4933827  26.4882804  16.5892791  30.7890154  25.9991990  16.7476710
  31.5418802  26.5005279  15.7181236  31.3963879  26.4172452  16.4832131
  25.3867489  31.9392116  16.9753593  24.8117081  32.0984285  17.6117554
  25.0103166  31.3027525  16.5122044  25.2470302  31.8689929  17.0008152
  29.0540778  30.4115466  21.8345972  28.6655211  29.9869683  21.1798163
  28.3895476  30.6597615  22.3422998  28.8987706  30.3854187  21.8133840
  15.1324308  31.5832191  14.9898034  15.2184560  31.2064059  15.7711564
  15.7600106  31.2092637  14.5117992  15.2380859  31.4717673  15.0343511
  32.8767140  24.1090094  19.3469956  33.2577651  23.4268265  19.7337830
  32.0730424  23.8199696  19.1645621  32.8143601  23.9657143  19.3774012
  26.6690440  33.3337877   9.4969980  27.0535592  33.1145584  10.2486525
  26.4202060  34.1600823   9.6271057  26.6892512  33.4236024   9.6271057
  26.8358980  26.6144293  29.2132565  26.5212421  27.3843855  28.9502127
  26.5148913  26.0514549  28.6284791  26.7417899  26.6454561  29.0873914
  24.3890877  25.0034814  14.8278761  23.5213302  25.0757414  14.8936370
  24.6766081  25.8056893  15.0166736  24.3030625  25.1328961  14.8653527
  33.5123766  25.1512673  23.1590083  34.2577358  24.9622484  22.7453508
  33.0961070  25.6770911  22.6003939  33.5608740  25.2014819  23.0154656
  23.8036545  35.6183452  16.9018202  23.5149794  34.9920923  17.4363929
  24.6719893  35.5603740  16.9682882  23.8896797  35.5170996  16.9909157
  26.4675485  29.2141544  27.9517779  25.6575261  29.5199323  27.8407622
  26.9450172  29.9347126  28.0670363  26.4178964  29.3656145  27.9524850
  22.3158229  28.4793073  12.2695637  22.0283025  28.1094344  11.5327584
  23.0028697  28.9487929  12.0079342  22.3747126  28.4940043  12.1210713
  26.7533371  35.4591284  13.5982173  26.5576153  36.0666018  13.0042476
  26.9767716  34.7659228  13.1173847  26.7568012  35.4468809  13.4398254
  25.1511901  32.3446022  13.7163042  25.8734553  32.5087180  13.2566848
  24.6719893  33.0655686  13.6102382  25.1875631  32.4744251  13.6328656
  33.1105408  28.6809820  19.0959727  32.2716509  28.7071099  18.8597990
  33.1809776  29.3280556  19.6765073  32.9973802  28.7805946  19.1468844
  22.8019517  34.7504094  22.8217182  23.3140614  35.0288347  22.1725941
  22.5155860  35.4893388  23.1879995  22.8354381  34.9006448  22.7807060
  31.5574687  25.5795197  13.8287343  32.2601039  25.3802946  13.3507301
  31.2918875  24.8071140  14.1356186  31.6221319  25.4358163  13.8032784
  19.8886424  29.2574286  13.1180918  19.9902560  30.0600447  13.4461894
  20.6842310  29.0561622  12.8203999  20.0214329  29.3460185  13.1216273
  26.3203243  26.8430483  22.8818223  26.1286440  26.8585617  23.7317647
  27.1701839  27.0394157  22.8584878  26.4178965  26.8744834  23.0041518
  20.7050156  29.3721464  20.8602040  20.5635648  28.5205405  20.9846548
  20.9890719  29.4150125  20.0364246  20.7258002  29.2521214  20.7569664
  30.8588748  31.2088554  15.0046528  30.6123462  31.1284305  15.8383317
  31.1873871  30.4242022  14.8109055  30.8709992  31.0814820  15.0994051
  26.8185775  33.9445273  24.4169511  26.9629151  34.5246481  23.7812621
  27.1661424  34.3221570  25.1219366  26.8913237  34.0865977  24.4268506
  28.9905693  33.1435441  22.1994643  28.2429007  33.3366456  21.7942921
  29.1447218  32.3180661  21.9618764  28.9028120  33.0500553  22.1040048
  29.2307470  27.0385992  23.0890046  29.6880084  27.7709966  23.2162839
  29.3063799  26.6152457  23.8477302  29.3098440  27.0843230  23.2191123
  21.4740461  27.2851812  24.1779490  20.9382651  26.6732170  24.4940257
  21.5358226  27.8599948  24.8313157  21.4036094  27.2798739  24.3214917
  33.7034796  20.2175867  16.9583889  33.8218364  20.6752330  16.2251192
  33.5296971  19.4121128  16.6720107  33.6953967  20.1669639  16.8084823
  27.1089848  29.0288096  19.9331870  26.3185922  28.8479556  20.2549206
  27.5050471  28.2515048  19.9162165  27.0506724  28.8875557  19.9784419
  29.6227678  31.5048355  24.4155369  29.5586819  32.3658311  24.2875506
  29.7624866  31.1880348  23.6150921  29.6343148  31.5848522  24.2783582
  28.3046772  34.1980494  18.5571572  27.8809021  34.3984993  17.8210591
  28.1291627  33.3509342  18.6695872  28.2157653  34.1029276  18.4645262
  23.5929217  34.6932546  13.9899545  23.7493836  34.6279349  14.8455537
  23.9329810  35.4681098  13.7778224  23.6662452  34.7981744  14.0854139
  31.2797631  28.9626734  22.9115208  31.4939600  28.3237648  22.3578562
  30.6631530  29.4072558  22.4823070  31.2202960  28.9336877  22.7665640
  20.1663478  31.8767496  14.3060312  20.5462443  32.2952041  13.6420579
  19.5918843  32.4580952  14.6129155  20.1374803  32.0245355  14.2537053
  33.4436719  30.5715799  23.8498516  32.6313401  30.2641689  23.9311688
  33.9026653  30.0914799  24.4141228  33.3917104  30.4552291  23.9453110
  30.6712360  22.0726669  17.9002551  29.8005917  22.0465391  17.8535861
  30.9252701  21.9003862  17.0828397  30.5805920  22.0436813  17.7722688
  27.6961500  24.0832898  19.3576022  27.1799989  23.3913089  19.4827601
  27.1355429  24.7503675  19.3038620  27.5368013  24.0796156  19.3682088
  29.7653733  24.6225858  21.1868874  29.3785487  24.6474889  21.9682404
  29.2786671  24.0567537  20.7343391  29.6366242  24.5421609  21.2356778
  29.4310875  21.5092843  23.4779134  30.0603993  22.0453143  23.2000204
  29.5996738  21.4170202  24.3292700  29.5488670  21.5754206  23.5627662
  29.2324790  26.2964038  25.7505546  30.0598219  26.0249187  25.8064160
  29.2532636  27.0924880  26.1069364  29.3577640  26.3743792  25.8120729
  23.8094280  33.4427901  18.9375806  22.9682286  33.3431775  19.1454700
  24.0184288  34.2123381  19.2890127  23.7158972  33.5419944  19.0203121
  21.2869847  31.0647438  16.7660557  20.8926545  31.1390450  15.9910667
  20.7309964  31.4505384  17.3168919  21.1472659  31.1329212  16.7328217
  32.9234794  24.0428732  16.4464436  33.1284387  23.9751040  17.2921433
  32.5961218  24.8487553  16.3785613  32.9050042  24.1514672  16.5624091
  27.6210945  31.3709300  18.1873404  27.3174082  30.8165288  18.7883812
  26.9190366  31.5501510  17.7001438  27.4727155  31.3154082  18.2043109
  26.6777042  28.6809820  12.7518106  26.9536776  27.9628732  12.3395673
  27.2775711  29.2794740  12.5439212  26.8070306  28.6630191  12.6598867
  30.1787562  26.3523337  11.0264701  30.6331309  26.5233898  11.7512545
  30.6527608  25.7391448  10.6262476  30.3155882  26.2874223  11.0738462
  23.7003088  35.8371663  20.3567439  23.1091021  36.4781161  20.3270454
  24.4624111  36.2609281  20.3298739  23.7251348  35.9947502  20.3482586
  24.0963711  26.9973661  21.0235457  24.5565192  27.0712590  21.7610581
  24.1419817  27.7954915  20.6735278  24.1714266  27.1267808  21.0808213
  25.7447060  27.6640356  25.5907484  25.3532625  27.0173703  26.0263262
  25.9132923  28.2551791  26.2101739  25.7117971  27.6554624  25.7470190
  27.5200582  33.0565872  12.1309708  28.2642627  33.4440148  12.3692658
  27.6661279  32.2123297  12.2950196  27.6511167  32.9896344  12.1903678
  29.4380158  24.8516131  17.1641569  28.5916203  25.0238938  17.0382919
  29.4351290  24.0465474  17.5007398  29.3127308  24.7577159  17.1952696
  30.5078458  28.6291345  18.0303627  30.0338412  28.1033107  18.5408938
  30.8796594  28.0820818  17.4618489  30.4928347  28.4707342  18.0218774
  20.8851488  30.6262852  23.3987173  21.7477101  30.5258561  23.3124503
  20.5543271  30.0457561  22.8372745  20.9636685  30.5254478  23.3032579
  32.4361958  29.5227900  11.0929381  31.9084976  29.6056644  10.4035090
  32.8957666  30.2645771  11.0894026  32.4263808  29.6448562  10.9904076
  24.2453274  29.4505301  20.0597591  23.6206344  29.4623693  19.4523544
  23.9098869  29.9265476  20.7088831  24.1038766  29.5223818  20.0654160
  24.4295023  27.7930419   6.1170276  24.0807827  28.4450144   6.5801826
  23.9491469  27.7787532   5.3894147  24.3065267  27.8873473   6.0781368
  23.5144020  31.0598448  22.2772460  23.6737506  30.3041773  22.6824182
  23.3336913  31.6089388  22.9313197  23.5109379  31.0292262  22.4335166
  31.4564323  23.2259684  22.8323249  30.9604884  23.4223358  22.1414816
  32.2133385  23.6252352  22.6612051  31.4951147  23.3137418  22.7043386
  28.7267202  26.9002030  19.4226560  28.7509689  26.3662142  18.7339340
  28.9778676  26.3919339  20.0852150  28.7677121  26.7462934  19.4191204
  16.2374792  34.1833525  18.8569704  16.1318241  34.1380369  17.9921788
  15.4875012  34.5287305  19.1383989  16.1110395  34.2274433  18.7707034
  25.0068525  25.6272848  18.8032304  25.0466896  26.1282055  19.5167011
  24.1818189  25.7183242  18.5338227  24.8908050  25.7154664  18.8682842
  26.4282888  32.1433358  21.1006203  25.5974818  32.3107176  20.8941451
  26.3734405  31.7669309  21.8855088  26.2972303  32.1123089  21.1854731
  24.2366671  25.6342251  26.7362614  24.8619375  25.0904384  27.0092046
  23.7817151  25.1537169  26.1670404  24.2614932  25.4831732  26.6924208
  24.8018932  30.4188950  11.6296321  24.9421893  30.9161414  12.3324962
  25.3001465  29.7175244  11.7710534  24.8960013  30.3890928  11.7547900
  24.8319154  31.2856061   8.9588898  25.4664234  31.8816486   8.8938359
  24.9144765  30.9859518   9.7734768  24.9375705  31.3296969   9.0691984
  26.4098137  27.2170036   8.9334340  26.7313978  26.7373118   8.2793602
  26.6725081  28.0269682   8.7425151  26.4964162  27.2659934   8.8089832
  31.8057292  26.6042230  21.2957819  32.2312364  26.1514756  20.6841345
  31.1914285  26.0502301  21.5722606  31.7785937  26.4556206  21.2462844
  21.3372142  33.4823901  12.2278444  21.8464371  34.0788409  12.6089749
  21.8106414  33.2149875  11.5454863  21.4815518  33.5309717  12.1832966
  30.2451515  23.0757330  14.7048396  29.6019833  22.9254976  15.2733534
  29.9050922  22.8299675  13.9397500  30.0996592  23.0169452  14.6751411
  23.6962674  30.1180160  15.0951624  22.9774663  30.5344292  15.3624488
  24.0675036  30.6834399  14.5443262  23.6454606  30.2629441  15.0534431
  29.4709248  29.1578160  10.4325004  28.8774087  29.4795156   9.8809571
  29.5084526  28.3119255  10.2246110  29.3883637  29.0802488  10.3207775
  32.3467065  29.1157664  13.8626754  32.1180758  29.1390366  13.0205112
  32.6065141  28.2915131  13.9821764  32.3513253  28.9973744  13.7551951
  26.6286293  30.9692137  23.4651854  26.1165196  30.3613320  23.8236885
  26.4565789  31.6848730  23.9325830  26.5275930  30.9855437  23.5868078
  21.4752008  29.4129713  26.1154216  21.3054598  30.0731087  25.5702422
  21.0317958  29.6236274  26.8366705  21.3851341  29.5415695  26.1415845
  25.4011827  27.6534211  15.1580949  25.8769193  28.0151290  14.5231131
  24.9000427  28.3090678  15.4381092  25.3977186  27.8028399  15.1057690
  30.5055363  28.8916382  25.9054109  31.0626794  28.6630191  25.2732575
  30.1816428  29.6522048  25.6289322  30.5401774  28.9700219  25.7710607
  18.3754072  32.3176578  21.3742706  17.8280792  31.6477224  21.4923574
  19.1646451  31.9506426  21.4386173  18.4106256  32.1641565  21.4011406
  27.4438480  29.7975410   8.5254333  27.8237445  29.8155040   7.7405448
  26.7031076  30.2429399   8.4045181  27.3907318  29.8657185   8.3917902
  35.0723771  28.1057602  14.1129912  35.0717997  27.9506258  14.9714188
  34.8679951  28.9520589  14.0571298  35.0423549  28.2078222  14.2317851
  17.1341042  31.5297386  18.5288729  16.9562803  31.0773995  19.2543644
  16.8460064  32.3323547  18.7127206  17.0653995  31.5819944  18.6632231
  18.8713512  34.0625110  15.6410488  18.0059031  34.0510800  15.5293259
  18.9712328  33.8755333  16.4881627  18.7587679  34.0331171  15.7499432
  28.3664536  24.0220526  23.7402500  28.4992442  23.2251519  24.0683475
  28.7509689  24.5486929  24.3200776  28.4420865  23.9820442  23.8746003
  31.4396891  20.9450852  20.3383593  30.6342855  20.8348581  20.6551432
  31.3103627  21.0463308  19.4813459  31.3017024  20.9434522  20.2591634
  34.8962852  27.1096344  20.9323290  34.3125841  27.6105550  20.5200857
  35.2167146  26.6025900  20.2987613  34.8576027  27.1088179  20.7781797
  27.4357651  26.0236939  11.2081965  28.2573345  26.1935251  10.9663660
  26.9727302  26.1784200  10.4848262  27.4888813  26.0718672  11.0653609
  26.0252983  24.0179701  21.9880394  26.5697396  23.6770828  22.5784735
  26.0789919  24.8765162  22.1301678  26.1142102  24.0934960  22.0962267
  19.5212317   2.3824142  12.2291824  19.6095663   2.1950283  13.0770034
  19.9502029   1.7361572  11.8296671  19.5974419   2.2587150  12.2963575
  17.0882777   1.6655302  11.2109486  16.5253611   1.2527912  11.7349147
  17.8503800   1.5908208  11.6302629  17.1177225   1.5932703  11.3502487
  19.6332376   1.8133161  14.8935608  20.4172793   1.9264009  15.2591350
  19.4328971   0.9874298  15.0894293  19.7198401   1.7079881  14.9769994
  19.7902769   3.7243263   8.5402063  18.9918015   3.4842763   8.7975932
  20.2388781   3.7757656   9.2869111  19.7377381   3.6965654   8.6886987
  14.6131771   3.5540868   8.2170585  14.7621335   2.9943784   7.5643989
  15.3931773   3.6332870   8.6003104  14.7505864   3.4826433   8.1767534
  17.1385071   3.7255511   9.4955076  17.0628743   3.0564321  10.0505864
  17.0674931   4.4273299  10.0095742  17.1165678   3.7300418   9.6531924
  16.5276706   7.1323830   7.9533076  17.0172636   6.4334620   7.7708741
  15.9560938   6.8347700   8.5409134  16.5161236   6.9850054   8.0134117
  14.4047536   0.0051844   9.8285548  14.2967891   0.0153906  10.6947607
  14.6143318   0.8306624   9.6390502  14.4197647   0.1292919   9.9289640
  22.1810844   2.7073798   4.7239510  21.9830533   3.1964613   4.0295722
  21.5598555   2.9115040   5.3023644  22.0598409   2.8090336   4.7062734
  18.3613350  -0.3418266   9.3873203  17.8538441   0.2117580   9.8313833
  18.0639996  -0.2809977   8.5691977  18.2418235  -0.2511955   9.3321659
  17.6055835   4.5906292   6.2930209  17.3821490   3.8325121   6.6614236
  17.1165679   4.6204313   5.5710649  17.4999284   4.4828516   6.2406950
  13.2188762   5.2515832   6.1480640  13.5335321   6.0652220   6.1558422
  13.6282175   4.8666050   6.8162799  13.3256860   5.3144534   6.2484732
  22.2590266   2.2787192  15.8976524  22.3687232   1.4895752  16.2533271
  22.5881163   2.1893128  15.0950862  22.3242672   2.1493045  15.8318915
  20.3745554   1.4654885   7.0121486  21.1943928   1.3217851   7.2737781
  20.0939632   2.0901084   7.5537924  20.4542298   1.5365237   7.1309425
  24.4300029  17.7458106   0.4954524  23.6782929  17.3673644   0.2670569
  24.8786041  17.7776539  -0.2526666  24.3849696  17.6943713   0.3512026
  33.3552606  14.4781914  14.3377749  34.0619373  13.9833944  14.4664683
  33.5440541  14.9190995  13.6080407  33.4880512  14.4700264  14.2486794
  32.8910710  10.2687432   7.3748944  33.4366671  10.9472518   7.4342914
  32.8327587  10.1274893   6.5150526  32.9626625  10.3479434   7.2561005
  26.0084785  17.7576498   2.7617297  26.1095148  16.9476852   3.0714424
  25.4126531  17.6633444   2.1316975  25.9357324  17.6241526   2.7143535
  25.8485525  22.6754087   4.1632153  26.4922980  23.1167251   4.5528311
  26.1741780  21.8707513   4.0762411  25.9917354  22.6219282   4.2077630
  19.2049830  13.7796785   2.3869630  18.9700014  12.9464437   2.2801899
  19.3435470  14.0601450   1.5730831  19.1905492  13.6980288   2.2511985
  21.5039917   5.9482515   5.2853938  20.8844949   5.3575162   5.1163953
  21.4023781   6.5393950   4.6518261  21.3977593   5.9486598   5.1658928
  21.2309050   9.4934797   7.5297507  21.1067747  10.0797242   8.1647326
  21.8827335   8.9994993   7.8309782  21.3082699   9.5073601   7.6683436
  26.2567391  12.6696514   6.8085018  26.9016394  12.1768957   6.4895967
  26.4969168  12.8121300   7.6351096  26.3877976  12.6173956   6.8834551
  28.7953482  15.5151420   6.4591911  29.0776725  14.7202825   6.2378666
  29.5239643  15.9932007   6.4796972  28.9443046  15.4686017   6.4294926
  20.7667154  18.6582455   3.6625836  20.2834733  19.3832945   3.6385420
  21.5790473  18.9558585   3.7735994  20.8157902  18.8084809   3.6753116
  26.8381308  17.4514636   6.2675651  26.3208250  17.0922051   5.6636959
  27.5355700  16.9276810   6.2781717  26.8646889  17.3212324   6.1805910
  30.4944900  17.9009450  12.2291824  30.5828246  17.7135591  13.0770034
  30.9234613  17.2546880  11.8296671  30.5707003  17.7772458  12.2963575
  28.0615360  17.1840610  11.2109486  27.4986195  16.7713220  11.7349147
  28.8236384  17.1093516  11.6302629  28.0909809  17.1118011  11.3502487
  23.6211352  19.1738631   3.8146116  24.3231931  18.6590620   3.8718873
  23.5408835  19.5012783   4.6192991  23.7135112  19.1452857   3.9418909
  24.6690258   9.4114218  12.9426531  24.8410762   9.3020113  13.7911813
  25.2059616  10.0568624  12.7057724  24.7735262   9.4906220  13.0331628
  22.9462127  15.3644983   3.3231724  23.7851026  15.5967916   3.3705486
  22.9773896  14.4949295   3.2538760  23.0743845  15.2701930   3.3196369
  23.5714830  15.7845858   7.6245030  24.1113055  15.6416989   8.2948402
  22.8884776  16.1842609   7.9929056  23.5506984  15.8225529   7.7779452
  30.6064960  17.3318469  14.8935608  31.3905376  17.4449317  15.2591350
  30.4061554  16.5059606  15.0894293  30.6930985  17.2265189  14.9769994
  18.9751975  12.0046149   7.7779451  18.7090390  11.1885266   7.9370442
  18.9890539  12.0499305   6.9074967  18.9376697  11.8903054   7.6732933
  23.7250581   5.5424527  10.4246459  23.0322378   5.0721507  10.6707191
  24.3410909   5.3162832  10.9988166  23.7135111   5.4391659  10.5455612
  30.7635353  19.2428571   8.5402063  29.9650599  19.0028071   8.7975932
  31.2121364  19.2942964   9.2869111  30.7109964  19.2150962   8.6886987
  19.3845389  12.7904929   5.0591196  19.2020962  12.7651815   4.2063488
  20.1195058  13.2603866   5.0980104  19.4659453  12.8566291   4.9389114
  22.4491140   9.5089931  11.5673304  23.1731113   9.4942962  12.0538199
  22.5507277  10.2185287  11.0695273  22.5709349   9.6114635  11.5652091
  29.8236090  12.9889016  16.4322251  29.0309071  13.3032528  16.6174871
  29.9385017  13.2040485  15.5943036  29.7231500  13.0672853  16.3360586
  30.7519883  12.8909220  11.3707548  31.3258744  12.2536464  11.5256112
  30.6734686  12.8913302  10.5017206  30.8253117  12.7974331  11.2653959
  19.3516299   9.6698429   5.2090262  19.9289802   9.5334880   5.8482508
  18.6530361   9.2134213   5.4635847  19.3337320   9.5820695   5.3412552
  26.1083601  11.3232485   3.4228745  25.8502846  10.4904220   3.3960045
  26.1632084  11.5490098   2.5821246  26.0783379  11.2330256   3.2948882
  25.0818313   8.8770247   3.9093640  24.5067905   9.0362416   4.5457601
  24.7053990   8.2405657   3.4462091  24.9421126   8.8068060   3.9348199
  28.7491602   7.3493597   8.7686019  28.3606035   6.9247814   8.1138210
  28.0846300   7.5975746   9.2763045  28.5938530   7.3232318   8.7473887
  25.7238449  15.0513719   2.0935138  26.3612395  14.8125466   2.6386931
  26.1493520  15.2550878   1.3588298  25.8814615  15.0464729   2.0652295
  20.4151091  17.2902055   5.9769441  20.4555236  17.5616906   5.1489221
  20.9745615  17.8143963   6.3927229  20.5034437  17.4077810   5.9161330
  26.5309804   3.5522424  16.1472611  26.2163245   4.3221986  15.8842174
  26.2099737   2.9892680  15.5624838  26.4368723   3.5832692  16.0213961
  28.1059921  15.5286141   3.7728924  28.1798929  15.3661313   4.6270774
  28.9229427  15.7176331   3.5289406  28.2376279  15.5322884   3.8626950
  21.8665677  15.8744004   0.8023367  21.0403795  16.1205741   0.6757646
  21.9277668  15.7956085   1.6685426  21.7539844  15.8988953   0.9112312
  27.2359251  13.2938630   9.5895528  26.7370945  14.0054398   9.6680416
  28.0459476  13.6139297   9.5513690  27.2815358  13.4465479   9.5952096
  24.5870422  20.4688267   1.5702547  24.3670717  20.1785622   2.3629214
  24.3664944  19.8103222   1.0420459  24.5218016  20.3287975   1.6091456
  23.4987369  12.5561583   3.8358249  23.2100618  11.9299055   4.3703976
  24.3670717  12.4981871   3.9022929  23.5847621  12.4549128   3.9249203
  23.7019642  14.1956834  -0.2399386  24.4565610  14.5769873  -0.0263924
  23.1090255  14.6467978   0.2147310  23.7256356  14.3185662  -0.1416508
  26.1626309   6.1519675  14.8857826  25.3526085   6.4577454  14.7747668
  26.6400996   6.8725257  15.0010410  26.1129788   6.3034276  14.8864897
  25.0217869  15.3665396   5.1340729  24.4998623  15.5065687   5.8192594
  25.4091889  14.6076060   5.3242847  25.0021570  15.2750920   5.2641806
  22.4970341  11.6882225   9.7557228  23.0091438  11.9666478   9.1065988
  22.2106684  12.4271519  10.1220041  22.5305204  11.8384579   9.7147107
  26.0154067   3.7808614   9.8158270  25.8237264   3.7963748  10.6657694
  26.8652663   3.9772288   9.7924925  26.1129789   3.8122965   9.9381565
  20.4000980   6.3099595   7.7942086  20.2586472   5.4583536   7.9186594
  20.6841543   6.3528256   6.9704293  20.4208826   6.1899345   7.6909711
  34.4487621  14.8550045   5.7273356  34.3101980  15.5531091   6.2322098
  33.6687619  14.6998701   5.3709538  34.3130848  14.9350211   5.7499630
  32.7865706  11.1546420  11.9795738  32.7813745  10.2826237  11.9838164
  33.4926700  11.3534589  11.5065193  32.8910710  11.0550294  11.9102773
  26.5136599  10.8823404  11.3509558  26.6579975  11.4624612  10.7152668
  26.8612248  11.2599701  12.0559412  26.5864061  11.0244108  11.3608553
  28.6856517  10.0813572   9.1334689  27.9379831  10.2744587   8.7282968
  28.8398042   9.2558792   8.8958811  28.5978944   9.9878684   9.0380095
  25.5864354  19.0726176   8.2170585  25.7353918  18.5129092   7.5643989
  26.3664356  19.1518177   8.6003104  25.7238448  19.0011741   8.1767534
  28.1117655  19.2440819   9.4955076  28.0361326  18.5749629  10.0505864
  28.0407514  19.9458607  10.0095742  28.0898262  19.2485726   9.6531924
  28.9258294   3.9764123  10.0230093  29.3830908   4.7088097  10.1502885
  29.0014623   3.5530588  10.7817349  29.0049264   4.0221361  10.1531170
  21.1691285   4.2229943  11.1119537  20.6333474   3.6110301  11.4280304
  21.2309050   4.7978079  11.7653204  21.0986918   4.2176871  11.2554964
  26.8040672   5.9666227   6.8671917  26.0136746   5.7857687   7.1889253
  27.2001294   5.1893180   6.8502212  26.7457548   5.8253688   6.9124466
  32.1884358  13.6008657   4.5931363  31.5129360  13.3693889   5.0944750
  32.1976734  12.9929840   3.9673468  32.0902863  13.4767582   4.5747515
  29.3178502   8.4426486  11.3495416  29.2537643   9.3036443  11.2215553
  29.4575690   8.1258479  10.5490967  29.3293972   8.5226653  11.2123629
  27.9997596  11.1358625   5.4911619  27.5759845  11.3363125   4.7550637
  27.8242451  10.2887473   5.6035919  27.9108476  11.0407407   5.3985309
  27.5009289  22.6509138   7.9533076  27.9905220  21.9519928   7.7708741
  26.9293522  22.3533008   8.5409134  27.4893819  22.5035362   8.0134117
  23.2880041  11.6310677   0.9239592  23.4444660  11.5657480   1.7795584
  23.6280634  12.4059229   0.7118271  23.3613276  11.7359875   1.0194186
  33.6976293  15.2171208  16.9059867  34.5111158  14.9456357  17.0664999
  33.5371259  14.9178748  16.1020063  33.7946241  15.1326134  16.8105273
  30.9748455   5.9004865   9.8455255  31.1890424   5.2615779   9.2918609
  30.3582354   6.3450689   9.4163117  30.9153784   5.8715009   9.7005686
  33.1387543   7.5093930  10.7838562  32.3264225   7.2019821  10.8651735
  33.5977477   7.0292930  11.3481275  33.0867928   7.3930423  10.8793156
  30.2341050   8.9154002  15.5667265  30.7040681   9.5396118  15.9535139
  30.2802930   8.2470977  16.1260479  30.3108926   8.9088682  15.7067336
  33.7097537  16.2777498  12.1782708  34.3477257  15.7837694  11.8445164
  33.0671628  16.2054899  11.5934934  33.7091763  16.1936507  12.0425063
  33.7651793  16.9697306   8.8188064  34.5544172  16.6186371   8.9390146
  33.9395391  17.7833695   8.5564698  33.9072075  17.0383164   8.7975932
  23.5045104  10.3806032   5.8715853  22.6633110  10.2809906   6.0794747
  23.7135112  11.1501512   6.2230174  23.4109796  10.4798075   5.9543168
  20.9820671   8.0025569   3.7000604  20.5877369   8.0768581   2.9250713
  20.4260788   8.3883515   4.2508966  20.8423483   8.0707344   3.6668264
  27.3161769   8.3087431   5.1213451  27.0124906   7.7543420   5.7223858
  26.6141189   8.4879641   4.6341485  27.1677979   8.2532214   5.1383156
  25.3780120  15.5237152   9.8285548  25.2700475  15.5339214  10.6947607
  25.5875901  16.3491932   9.6390502  25.3930231  15.6478227   9.9289640
  23.3953912  12.7749794   7.2907486  22.8041845  13.4159293   7.2610501
  24.1574935  13.1987412   7.2638786  23.4202172  12.9325633   7.2822633
  23.7914534   3.9351792   7.9575504  24.2516016   4.0090722   8.6950627
  23.8370641   4.7333046   7.6075325  23.8665090   4.0645939   8.0148260
  25.4397884   4.6018487  12.5247531  25.0483449   3.9551834  12.9603309
  25.6083747   5.1929922  13.1441786  25.4068795   4.5932755  12.6810237
  33.1543428  18.2259106   4.7239510  32.9563117  18.7149920   4.0295722
  32.5331139  18.4300347   5.3023644  33.0330992  18.3275644   4.7062734
  20.5802312   7.5640983  10.3327220  21.4427925   7.4636692  10.2464550
  20.2494095   6.9835692   9.7712792  20.6587509   7.4632610  10.2372626
  23.9404098   6.3883432   6.9937638  23.3157168   6.4001824   6.3863591
  23.6049693   6.8643607   7.6428878  23.7989590   6.4601949   6.9994207
  20.6529774  14.4483892   8.4341402  20.1229698  13.7576331   8.4836377
  20.9254867  14.4394077   7.6054111  20.6154496  14.3451024   8.3188818
  30.8536019  11.8907137   8.4079774  30.2393012  11.3465187   8.7028409
  31.3703304  11.3771373   7.9285590  30.8391682  11.7343546   8.3804002
  30.0932317  12.9611407   6.1424073  29.6659925  12.3361125   5.7089508
  30.0857261  12.6786328   6.9683080  30.0291458  12.8264187   6.2003900
  23.2094844   7.9976580   9.2112507  23.3688330   7.2419904   9.6164228
  23.0287737   8.5467519   9.8653244  23.2060203   7.9670393   9.3675213
  15.9325616  11.1211656   5.7909751  15.8269065  11.0758500   4.9261835
  15.1825836  11.4665437   6.0724036  15.8061219  11.1652564   5.7047080
  24.7019348   2.5650979   5.7372351  24.7417720   3.0660186   6.4507058
  23.8769013   2.6561373   5.4678274  24.5858874   2.6532796   5.8022889
  26.8848961  12.1311719  13.8392645  26.0344592  12.2683434  13.9750290
  27.0477089  11.3975498  14.2840347  26.7832825  12.0425821  13.9248245
  26.1233712   9.0811489   8.0346250  25.2925642   9.2485307   7.8281498
  26.0685229   8.7047440   8.8195135  25.9923127   9.0501220   8.1194778
  23.9317495   2.5720382  13.6702661  24.5570199   2.0282515  13.9432093
  23.4767975   2.0915300  13.1010451  23.9565756   2.4209863  13.6264254
  29.3345934  15.1767041   9.3873203  28.8271025  15.7302888   9.8313833
  29.0372580  15.2375331   8.5691977  29.2150819  15.2673353   9.3321659
  28.5788419  20.1091600   6.2930209  28.3554073  19.3510429   6.6614236
  28.0898262  20.1389621   5.5710649  28.4731868  20.0013824   6.2406950
  23.3913498   7.0558291   2.0291671  22.6725487   7.4722424   2.2964534
  23.7625860   7.6212530   1.4783309  23.3405429   7.2007572   1.9874478
  32.6913078   7.6886140   7.9193667  32.6711006   7.5069435   8.7728445
  32.7392279   8.5598158   7.8953250  32.6947720   7.7902678   8.0416961
  30.6359408  14.2773332  13.8442143  30.5955263  13.6323009  13.2587299
  31.4482727  14.2209949  14.1567555  30.7502562  14.1732299  13.8039092
  27.2266876  20.3292058   3.7467294  26.8127275  19.6666188   3.3571136
  27.9114250  20.4769917   3.2262988  27.2665248  20.2532716   3.6123791
  30.5932170  19.4882143   4.4990911  30.1948453  19.5984413   3.7311731
  29.9783390  19.6964209   5.0817470  30.4431059  19.5355711   4.4722210
  26.3237117   7.9070268  10.3991901  25.8116020   7.2991451  10.7576932
  26.1516613   8.6226861  10.8665877  26.2226754   7.9233568  10.5208124
  21.1702832   6.3507844  13.0494263  21.0005422   7.0109219  12.5042469
  20.7268782   6.5614405  13.7706752  21.0802165   6.4793826  13.0755892
  30.2006187   5.8294513  12.8394156  30.7577618   5.6008323  12.2072622
  29.8767252   6.5900179  12.5629369  30.2352598   5.9078350  12.7050653
  18.0704896   9.2554709   8.3082752  17.5231616   8.5855355   8.4263621
  18.8597274   8.8884557   8.3726220  18.1057080   9.1019696   8.3351453
  27.9189305   8.9162166  13.8046163  28.6700632   9.2313843  14.1185718
  28.1111881   8.7141337  12.9780085  28.0580719   8.9329548  13.7289559
  16.8291866   8.4675517   5.4628775  16.6513627   8.0152126   6.1883691
  16.5410888   9.2701679   5.6467253  16.7604819   8.5198075   5.5972278
  18.5664336  11.0003241   2.5750534  17.7009855  10.9888931   2.4633306
  18.6663152  10.8133464   3.4221674  18.4538503  10.9709302   2.6839479
  34.5567266  12.4736922   7.3883294  34.9822337  11.9511344   6.8353720
  34.1924186  13.0717759   6.8671917  34.5653868  12.4847149   7.2292304
  24.1921346  20.7701140   6.1480640  24.5067905  21.5837528   6.1558422
  24.6014759  20.3851358   6.8162799  24.2989444  20.8329842   6.2484732
  31.1445865  16.1871186   3.7184452  31.6157043  16.9011449   3.8874437
  31.4806044  15.5869936   4.2544321  31.2640980  16.2042651   3.8216828
  33.2322850  17.7972500  15.8976524  33.3419815  17.0081060  16.2533271
  33.5613746  17.7078436  15.0950862  33.2975256  17.6678353  15.8318915
  31.7819812  15.9789120  10.4812145  31.2340757  15.3547004  10.2132210
  32.2432840  16.1683392   9.7656224  31.7687021  15.9148171  10.3362576
  21.5334366  14.7174248   5.7959248  22.1379223  14.6770082   5.1673069
  21.3261678  15.5645400   5.8263304  21.5923263  14.8362251   5.7075365
  31.3478138  16.9840193   7.0121486  32.1676512  16.8403159   7.2737781
  31.0672215  17.6086392   7.5537924  31.4274881  17.0550545   7.1309425
  16.7685648  13.7008866   5.6658172  16.6709926  12.8905137   5.9748228
  17.5514518  13.6800659   5.2804440  16.8701784  13.5775956   5.6545034
  32.2041634  25.0120105   7.5297507  32.0800331  25.5982550   8.1647326
  32.8559918  24.5180300   7.8309782  32.2815283  25.0258909   7.6683436
  33.4223724  25.0275239  11.5673304  34.1463696  25.0128270  12.0538199
  33.5239860  25.7370595  11.0695273  33.5441933  25.1299943  11.5652091
  33.4702925  27.2067533   9.7557228  33.9824022  27.4851786   9.1065988
  33.1839268  27.9456827  10.1220041  33.5037788  27.3569887   9.7147107
  31.3733563  21.8284903   7.7942086  31.2319055  20.9768844   7.9186594
  31.6574127  21.8713564   6.9704293  31.3941409  21.7084653   7.6909711
  32.1423869  19.7415251  11.1119537  31.6066058  19.1295609  11.4280304
  32.2041633  20.3163387  11.7653204  32.0719501  19.7362178  11.2554964
  34.7647118  19.4537100   7.9575504  35.2248600  19.5276030   8.6950627
  34.8103225  20.2518354   7.6075325  34.8397673  19.5831247   8.0148260
  31.5534896  23.0826291  10.3327220  32.4160509  22.9822000  10.2464550
  31.2226679  22.5021000   9.7712792  31.6320092  22.9817917  10.2372626
  34.9136682  21.9068740   6.9937638  34.2889752  21.9187132   6.3863591
  34.5782277  22.3828915   7.6428878  34.7722174  21.9787257   6.9994207
  34.1827427  23.5161888   9.2112507  34.3420914  22.7605212   9.6164228
  34.0020321  24.0652827   9.8653244  34.1792786  23.4855701   9.3675213
  32.1435415  21.8693152  13.0494263  31.9738006  22.5294527  12.5042469
  31.7001365  22.0799713  13.7706752  32.0534749  21.9979134  13.0755892
  29.0437480  24.7740017   8.3082752  28.4964199  24.1040663   8.4263621
  29.8329858  24.4069865   8.3726220  29.0789664  24.6205004   8.3351453
  27.8024449  23.9860825   5.4628775  27.6246210  23.5337434   6.1883691
  27.5143471  24.7886987   5.6467253  27.7337403  24.0383383   5.5972278
   1.7528043  21.8348500  14.7382600   1.4381484  22.5251979  15.1703022
   1.2354984  21.7793283  14.0368101   1.6292513  21.9283389  14.6979549
   6.0442488  30.0569707  20.0203476   5.2070909  30.1271894  20.2551071
   6.0130719  30.0594201  19.1477779   5.9160770  30.0679934  19.9263024
   3.7250328  25.1212488  18.6047199   4.3676236  25.1910593  19.1909114
   3.9773348  24.4541711  18.1026741   3.8572460  25.0338837  18.6174478
   6.1631830  29.8957125  14.3359162   5.9068395  29.0837067  14.1457045
   7.0061144  29.9034693  14.1089350   6.2497855  29.7769123  14.2743979
   2.0582225  30.4884891  16.9465544   1.7146991  29.7675226  17.2972794
   2.1575268  30.2798742  16.1043903   2.0224268  30.3509094  16.8737224
   1.1702578  19.9442522  16.6849250   1.2886146  20.4018986  15.9516552
   0.9964754  19.1387784  16.3985467   1.1621749  19.8936294  16.5350183
   3.6436264  24.3227151  15.6532562   3.0310578  24.8097554  16.0386294
   3.7400439  23.6470642  16.1970213   3.5674162  24.2945460  15.7911420
   6.2388158  30.1961833  17.1205027   5.9997928  30.1557667  16.2825812
   6.4022060  31.0432985  17.2470748   6.2278462  30.3153918  17.0158509
   2.4646771  27.2139295  16.7634138   2.8174381  26.7869018  17.4379937
   1.6061573  27.1290139  16.8935214   2.3896216  27.1384036  16.8829148
   3.8970831  22.3357707  17.6918450   3.3901696  21.6286847  17.6239628
   4.6938265  22.0050896  17.8219527   3.9398071  22.1830859  17.7017445
   2.5391553  27.8324257  13.8395273   2.5385780  27.6772913  14.6979549
   2.3347733  28.6787244  13.7836658   2.5091331  27.9344878  13.9583212
   2.3630634  26.8362999  20.6588651   1.7793623  27.3372205  20.2466218
   2.6834929  26.3292555  20.0252974   2.3243810  26.8354834  20.5047158
   0.8220389  14.2048569  14.0643109   1.5287156  13.7100600  14.1930044
   1.0108324  14.6457650  13.3345767   0.9548294  14.1966919  13.9752155
   3.5407813  13.9884853  11.1057762   3.3046450  13.1572917  10.9869822
   4.1851042  13.9370460  11.6912606   3.6002484  13.8582541  11.1743655
   4.5644234  13.7729301   7.1686056   4.2590051  14.5057358   7.5299372
   3.8450449  13.3667231   6.8878842   4.4131576  13.8211034   7.1799193
  10.2646026  10.4122302   6.4954400  10.1970526  10.4318261   5.6256987
  10.2501688  11.2552629   6.7210071  10.2524782  10.5396037   6.4006877
   1.1644075  14.9437863  16.6325227   1.9778941  14.6723012  16.7930360
   1.0039042  14.6445403  15.8285423   1.2614024  14.8592789  16.5370633
   1.2319576  16.6963962   8.5453425   2.0211954  16.3453026   8.6655506
   1.4063174  17.5100350   8.2830059   1.3739858  16.7649819   8.5241293
   6.9812116  12.3322219   8.0150125   7.0395240  12.7808868   8.7610101
   6.3478583  12.7421032   7.5780205   6.8963411  12.4595954   8.0602673
   2.5385012  11.5189913   9.9850119   3.2619211  11.0662440   9.8061139
   2.2734975  11.7994579   9.2022447   2.6066286  11.4940882   9.8428835
   4.9720326  10.4816324   8.4880669   5.5638167  11.1213575   8.5198867
   5.4079321   9.7839361   8.7772736   5.1238758  10.4734675   8.5361502
   2.0235048  12.2003577   7.1148655   2.4490120  11.6777999   6.5619080
   1.6591968  12.7984415   6.5937278   2.0321651  12.2113804   6.9557665
   0.6990632  17.5239155  15.6241885   0.8087598  16.7347715  15.9798632
   1.0281529  17.4345091  14.8216223   0.7643038  17.3945008  15.5584275
  15.2859571  24.3671700  -0.2970277  15.2553575  25.2216337  -0.1252008
  15.8840919  24.0666993   0.2615866  15.3696729  24.4488197  -0.1895475
   8.4859256  23.4547351   4.4582653   7.6297151  23.6155849   4.5091770
   8.5326909  22.5839415   4.4787714   8.3658367  23.3498153   4.4688719
  11.7952972  29.7233877  14.0643109  12.5019739  29.2285907  14.1930044
  11.9840908  30.1642958  13.3345767  11.9280878  29.7152227  13.9752155
  11.3311077  25.5139395   7.1014305  11.8767037  26.1924482   7.1608274
  11.2727953  25.3726856   6.2415886  11.4026991  25.5931397   6.9826365
   4.6967757  27.9148477   6.5350379   5.3416760  27.4220920   6.2161327
   4.9369534  28.0573264   7.3616457   4.8278342  27.8625919   6.6099912
   7.2353849  30.7603383   6.1857271   7.5177091  29.9654789   5.9644027
   7.9640009  31.2383970   6.2062332   7.3843412  30.7137980   6.1560286
   5.2135042  18.3026417   3.4273036   4.8838372  18.7537560   2.7576735
   4.5380044  18.2242580   3.9746043   5.0645479  18.3577552   3.4096259
  16.7125895  22.5133146   6.9543523  15.8754316  22.5835333   7.1891118
  16.6814126  22.5157640   6.0817826  16.5844178  22.5243373   6.8603071
   3.1090624  24.6566181  12.6691892   3.2811128  24.5472076  13.5177173
   3.6459982  25.3020587  12.4323084   3.2135628  24.7358183  12.7596989
  11.4356081  26.7088822   2.5455415  12.1913596  27.1420337   2.5844323
  11.5418405  26.0593592   3.1190051  11.5626252  26.6766306   2.6353440
  14.4736252  30.5362099   3.2957818  14.0371484  30.5398842   4.0516789
  14.1399168  31.2167598   2.8637395  14.3598872  30.6374555   3.3438650
   9.0465326  32.5770432  14.6200968   9.8305742  32.6901280  14.9856710
   8.8461920  31.7511569  14.8159654   9.1331351  32.4717152  14.7035354
  14.3933735  17.5775927   5.5387246  15.0359643  17.6474032   6.1249161
  14.6456756  16.9105150   5.0366788  14.5255867  17.4902276   5.5514525
   2.1650948  20.7876491  10.1511820   1.4722744  20.3173470  10.3972551
   2.7811275  20.5614795  10.7253527   2.1535478  20.6843622  10.2720972
  17.6080598  27.2543019   2.1877455  18.2697032  26.6933688   2.0873363
  16.9672010  26.7595050   2.5130146  17.6109466  27.0979428   2.2209795
   0.8891507  24.7541895  11.2938665   1.6131479  24.7394925  11.7803559
   0.9907643  25.4637250  10.7960633   1.0109716  24.8566598  11.2917452
   8.2636456  28.2340979  16.1587612   7.4709437  28.5484491  16.3440231
   8.3785383  28.4492448  15.3208396   8.1631866  28.3124816  16.0625947
  10.9367775  24.9574970   0.4482628  11.0314629  25.6964264   0.9022253
  10.3126618  24.5292446   0.8817192  10.8576805  25.0036291   0.5790775
   9.1920249  28.1361183  11.0972908   9.7659110  27.4988427  11.2521472
   9.1135052  28.1365265  10.2282566   9.2653484  28.0426294  10.9919319
   9.6285018  18.6712899   3.2498199   8.9241344  18.1822084   3.4082118
   9.6769992  18.6835373   2.3786643   9.5315069  18.6002547   3.1437538
   7.1891968  22.5945560   8.4951379   6.8006401  22.1699778   7.8403570
   6.5246667  22.8427709   9.0028406   7.0338896  22.5684281   8.4739247
  16.8315237  22.3520565   1.2699209  16.5751802  21.5400506   1.0797092
  17.6744551  22.3598132   1.0429396  16.9181263  22.2332562   1.2084026
  11.0118330  16.2920189   6.0075363  11.3928841  15.6098360   6.3943238
  10.2081614  16.0029791   5.8251028  10.9494791  16.1487237   6.0379419
  14.5140397  29.5070161  11.1057762  14.2779034  28.6758225  10.9869822
  15.1583626  29.4555768  11.6912606  14.5735067  29.3767849  11.1743655
   4.9710170  18.7974387  15.8737972   4.6563611  19.5673950  15.6107534
   4.6500103  18.2344643  15.2890199   4.8769089  18.8284656  15.7479322
  15.5376817  29.2914609   7.1686056  15.2322634  30.0242666   7.5299372
  14.8183033  28.8852539   6.8878842  15.3864160  29.3396342   7.1799193
  21.2378609  25.9307610   6.4954400  21.1703110  25.9503569   5.6256987
  21.2234272  26.7737937   6.7210071  21.2257366  26.0581345   6.4006877
  11.6474956  17.3342768   9.8195490  12.3928548  17.1452578   9.4058915
  11.2312260  17.8601006   9.2609346  11.6959930  17.3844913   9.6760063
  19.0237227  24.7051996   4.7700995  19.5745148  24.0720065   5.0098087
  19.0081342  25.2367389   5.4616499  19.1022423  24.6900944   4.9079853
   5.6759618  28.5390593   9.3160888   5.1771311  29.2506361   9.3945777
   6.4859842  28.8591260   9.2779051   5.7215724  28.6917442   9.3217457
  12.7265633  22.9448330   3.8805591  12.3830399  22.2238665   4.2312841
  12.8258675  22.7362181   3.0383949  12.6907676  22.8072533   3.8077271
   4.6026676  21.3971638  14.6123187   3.7926451  21.7029418  14.5013029
   5.0801362  22.1177220  14.7275771   4.5530154  21.5486239  14.6130258
  11.2456598  20.8639915   5.7565134  10.4067699  20.8901194   5.5203397
  11.3160966  21.5110650   6.3370481  11.1324992  20.9636040   5.8074251
   9.6925877  17.7625292   0.4892750  10.3952229  17.5633040   0.0112708
   9.4270065  16.9901234   0.7961593   9.7572509  17.6188258   0.4638191
  15.1214122  26.0707901   3.0426376  15.0348097  26.2263327   3.8961155
  14.6664602  26.7145977   2.6685781  15.0417379  26.1883657   3.1133483
   4.4554433  19.0260577   9.5423631   4.2637630  19.0415711  10.3923054
   5.3053029  19.2224251   9.5190285   4.5530155  19.0574928   9.6646925
   8.9939938  23.3918649   1.6651935   8.7474653  23.3114399   2.4988724
   9.3225061  22.6072116   1.4714463   9.0061182  23.2644914   1.7599458
  12.8887987  30.1002008   5.4538716  12.7502346  30.7983054   5.9587459
  12.1087985  29.9450664   5.0974898  12.7531214  30.1802175   5.4764991
  11.2266072  26.3998383  11.7061098  11.2214111  25.5278200  11.7103525
  11.9327066  26.5986552  11.2330554  11.3311076  26.3002257  11.6368134
   4.9536966  26.1275367  11.0774918   5.0980341  26.7076575  10.4418028
   5.3012614  26.5051664  11.7824773   5.0264427  26.2696071  11.0873913
   7.1256883  25.3265535   8.8600050   6.3780197  25.5196550   8.4548328
   7.2798408  24.5010755   8.6224171   7.0379310  25.2330647   8.7645456
   7.3658660  19.2216086   9.7495454   7.8231274  19.9540061   9.8768246
   7.4414989  18.7982551  10.5082709   7.4449630  19.2673324   9.8796530
  11.8385986  12.4005961   3.6189297  11.9569554  12.8582425   2.8856599
  11.6648162  11.5951223   3.3325514  11.8305157  12.3499734   3.4690230
   5.2441038  21.2118190   6.5937278   4.4537113  21.0309650   6.9154613
   5.6401661  20.4345143   6.5767572   5.1857914  21.0705651   6.6389826
  10.6284724  28.8460620   4.3196724   9.9529726  28.6145853   4.8210111
  10.6377100  28.2381803   3.6938829  10.5303229  28.7219545   4.3012876
   7.7578868  23.6878449  11.0760777   7.6938009  24.5488406  10.9480913
   7.8976056  23.3710442  10.2756328   7.7694338  23.7678616  10.9388989
   6.4397962  26.3810589   5.2176979   6.0160211  26.5815088   4.4815998
   6.2642817  25.5339437   5.3301279   6.3508843  26.2859370   5.1250670
  12.1376659  30.4623171  16.6325227  12.9511524  30.1908320  16.7930360
  11.9771625  30.1630711  15.8285423  12.2346607  30.3778097  16.5370633
   9.4148821  21.1456828   9.5720616   9.6290790  20.5067742   9.0183970
   8.7982720  21.5902652   9.1428477   9.3554150  21.1166972   9.4271047
  11.5787909  22.7545893  10.5103923  10.7664591  22.4471784  10.5917096
  12.0377844  22.2744893  11.0746635  11.5268294  22.6382386  10.6058517
   8.8063550  14.2556764   4.5607959   7.9357108  14.2295485   4.5141268
   9.0603891  14.0833956   3.7433804   8.7157110  14.2266907   4.4328095
   8.6741416  24.1605965  15.2932625   9.1441048  24.7848081  15.6800499
   8.7203297  23.4922940  15.8525840   8.7509292  24.1540645  15.4332697
   5.8312690  16.2662992   6.0181429   5.3151179  15.5743184   6.1433008
   5.2706619  16.9333769   5.9644028   5.6719203  16.2626250   6.0287495
   7.9004924  16.8055952   7.8474281   7.5136677  16.8304984   8.6287811
   7.4137861  16.2397631   7.3948798   7.7717432  16.7251703   7.8962185
  12.1497903  31.5229461  11.9048068  12.7877623  31.0289657  11.5710524
  11.5071995  31.4506862  11.3200295  12.1492129  31.4388470  11.7690423
  13.8754903  23.3718607   6.4713984  13.4482511  23.2844956   5.7162083
  13.2380956  23.4796383   7.0568828  13.7184510  23.3751267   6.4459425
   7.5662065  13.6922938  10.1384541   8.1955183  14.2283238   9.8605612
   7.7347928  13.6000297  10.9898107   7.6839860  13.7584300  10.2233069
   7.3675980  18.4794132  12.4110953   8.1949409  18.2079281  12.4669567
   7.3883826  19.2754974  12.7674771   7.4928830  18.5573887  12.4726136
  12.2052160  32.2149270   8.5453425  12.9944538  31.8638334   8.6655506
  12.3795757  33.0285658   8.2830059  12.3472441  32.2835127   8.5241293
  11.0585984  16.2258826   3.1069843  11.2635577  16.1581134   3.9526840
  10.7312408  17.0317647   3.0391021  11.0401232  16.3344767   3.2229498
   5.7562135  23.5539394   4.8478811   5.4525272  22.9995383   5.4489219
   5.0541556  23.7331604   4.3606845   5.6078345  23.4984177   4.8648517
  14.3119671  16.7790590   2.5872609  13.6993985  17.2660993   2.9726340
  14.4083846  16.1034081   3.1310260  14.2357569  16.7508899   2.7251467
   2.2314901  19.1803755   7.6840864   2.6916382  19.2542685   8.4215988
   2.2771007  19.9785009   7.3340685   2.3065456  19.3097902   7.7413621
   3.8798250  19.8470450  12.2512891   3.4883816  19.2003797  12.6868669
   4.0484113  20.4381885  12.8707147   3.8469161  19.8384718  12.4075597
  17.9544699  27.8507527   8.0150125  18.0127823  28.2994176   8.7610101
  17.3211167  28.2606340   7.5780205  17.8695995  27.9781262   8.0602673
   7.5731348  17.0346225   3.8246977   6.7267393  17.2069033   3.6988326
   7.5702480  16.2295569   4.1612805   7.4478498  16.9407254   3.8558104
   8.6429648  20.8121439   4.6909035   8.1689603  20.2863201   5.2014345
   9.0147784  20.2650912   4.1223896   8.6279537  20.6537436   4.6824182
  14.9066379  25.8723815   6.1015815  14.6664602  25.0330230   6.1058242
  15.3858386  25.9523982   6.8256589  14.9418563  25.7605215   6.2090617
  16.9071566  22.6525272   4.0545074  16.6681336  22.6121106   3.2165859
  17.0705467  23.4996424   4.1810795  16.8961869  22.7717357   3.9498556
  13.5117596  27.0375221   9.9850119  14.2351795  26.5847748   9.8061139
  13.2467558  27.3179887   9.2022447  13.5798869  27.0126190   9.8428835
   2.3804464  21.6335395   6.7202999   1.7557535  21.6453787   6.1128951
   2.0450059  22.1095570   7.3694239   2.2389956  21.7053912   6.7259567
   9.2936386  27.1359100   8.1345134   8.6793379  26.5917150   8.4293770
   9.8103670  26.6223336   7.6550951   9.2792048  26.9795509   8.1069363
   8.5332683  28.2063370   5.8689433   8.1060291  27.5813088   5.4354868
   8.5257627  27.9238292   6.6948440   8.4691824  28.0716150   5.9269261
   1.6495210  23.2428543   8.9377867   1.8088697  22.4871867   9.3429589
   1.4688103  23.7919482   9.5918605   1.6460569  23.2122357   9.0940573
   9.5915513  15.4089778   9.4928657   9.0956074  15.6053453   8.8020223
  10.3484575  15.8082447   9.3217458   9.6302337  15.4967512   9.3648793
   6.8618392  19.0832124   6.0831967   6.8860880  18.5492237   5.3944747
   7.1129866  18.5749433   6.7457558   6.9028311  18.9293028   6.0796612
   3.1419715  17.8102942   5.4637711   3.1818086  18.3112149   6.1772419
   2.3169379  17.9013336   5.1943634   3.0259241  17.8984759   5.5288250
   5.3249327  27.3763682  13.5658006   4.4744958  27.5135397  13.7015651
   5.4877455  26.6427461  14.0105708   5.2233191  27.2877784  13.6513605
   4.5634078  24.3263452   7.7611610   3.7326008  24.4937270   7.5546858
   4.5085595  23.9499403   8.5460496   4.4323493  24.2953184   7.8460138
   2.3717861  17.8172345  13.3968021   2.9970565  17.2734478  13.6697453
   1.9168341  17.3367263  12.8275811   2.3966122  17.6661827  13.3529615
  15.9452910  26.0001632   8.4880669  16.5370750  26.6398883   8.5198867
  16.3811904  25.3024669   8.7772736  16.0971341  25.9919983   8.5361502
   7.7746300  30.4219005   9.1138563   7.2671391  30.9754851   9.5579193
   7.4772946  30.4827295   8.2957337   7.6551185  30.5125316   9.0587020
   9.9408482  18.7872324   7.9563226  10.3663554  18.3344851   7.3446752
   9.3265475  18.2332395   8.2328013   9.9137127  18.6386300   7.9068251
  12.9702051  23.2146851   0.7883812  12.2993241  23.7576553   0.6596877
  13.6641802  23.6841706   0.5465506  12.9730919  23.3645122   0.7339339
  13.1330179  19.6702734   3.6974185  13.4857789  19.2432457   4.3719984
  12.2744980  19.5853578   3.8275261  13.0579623  19.5947475   3.8169195
  11.1313445  22.9338103   7.6459027  11.1111372  22.7521398   8.4993806
  11.1792645  23.8050122   7.6218611  11.1348086  23.0354641   7.7682322
   9.0759774  29.5225295  13.5707504   9.0355629  28.8774972  12.9852659
   9.8883093  29.4661912  13.8832916   9.1902928  29.4184262  13.5304453
  14.5654239  14.7921146   4.6258497  14.0585104  14.0850286   4.5579675
  15.3621673  14.4614335   4.7559574  14.6081478  14.6394298   4.6357492
  10.4818255  21.2987759   0.5232161  10.2531948  21.3220460  -0.3189481
  10.7416331  20.4745226   0.6427172  10.4864443  21.1803839   0.4157359
   4.7637483  23.1522232  10.1257261   4.2516386  22.5443415  10.4842293
   4.5916979  23.8678824  10.5931237   4.6627120  23.1685531  10.2473485
   8.6406554  21.0746476  12.5659517   9.1977984  20.8460286  11.9337982
   8.3167619  21.8352142  12.2894729   8.6752964  21.1530313  12.4316014
   6.3589671  24.1614130  13.5311524   7.1100998  24.4765806  13.8451078
   6.5512247  23.9593300  12.7045446   6.4981085  24.1781511  13.4554920
  13.2074961  20.2887696   0.7735319  13.2069187  20.1336352   1.6319596
  13.0031141  21.1350683   0.7176705  13.1774739  20.3908317   0.8923259
  10.9315813  24.9685198   4.4271526  11.4269478  24.2508193   4.3875546
  10.1215589  24.6655995   4.3126013  10.8859706  24.8182844   4.4045252
  12.9967632  27.7188885   7.1148655  13.4222703  27.1963307   6.5619080
  12.6324552  28.3169723   6.5937278  13.0054234  27.7299112   6.9557665
  11.6723216  33.0424463  15.6241885  11.7820181  32.2533023  15.9798632
  12.0014113  32.9530399  14.8216223  11.7375622  32.9130316  15.5584275
   6.5015726  16.2050620  10.4007907   6.6343632  15.4081613  10.7288883
   6.8860879  16.7317023  10.9806183   6.5772055  16.1650537  10.5351410
  10.2220178  31.2241084  10.2077505   9.6741124  30.5998967   9.9397570
  10.6833206  31.4135356   9.4921584  10.2087387  31.1600134  10.0627936
   9.5748081  13.1280946   6.9989000   8.7694045  13.0178676   7.3156839
   9.4454817  13.2293402   6.1418866   9.4368214  13.1264616   6.9197041
  13.0314042  19.2926438   7.5928697  12.4477031  19.7935645   7.1806265
  13.3518336  18.7855994   6.9593021  12.9927217  19.2918273   7.4387205
   4.1604173  16.2009795   8.6485801   4.7048586  15.8600922   9.2390143
   4.2141109  17.0595257   8.7907086   4.2493292  16.2765054   8.7567674
   9.7878504  32.2292156   6.7386846  10.6076878  32.0855122   7.0003141
   9.5072582  32.8538355   7.2803284   9.8675247  32.3002508   6.8574786
  15.9442754  34.3159695  15.8737972  15.6296195  35.0859258  15.6107534
  15.6232686  33.7529951  15.2890199  15.8501673  34.3469963  15.7479322
  22.6207539  32.8528076   9.8195490  23.3661131  32.6637886   9.4058915
  22.2044844  33.3786314   9.2609346  22.6692514  32.9030221   9.6760063
  15.4287016  34.5445885   9.5423631  15.2370213  34.5601019  10.3923054
  16.2785612  34.7409559   9.5190285  15.5262738  34.5760236   9.6646925
  18.3391243  34.7401394   9.7495454  18.7963858  35.4725368   9.8768246
  18.4147572  34.3167859  10.5082709  18.4182213  34.7858632   9.8796530
  16.8045274  31.7848300   6.0181429  16.2883762  31.0928492   6.1433008
  16.2439203  32.4519077   5.9644028  16.6451787  31.7811558   6.0287495
  18.8737507  32.3241260   7.8474281  18.4869260  32.3490292   8.6287811
  18.3870444  31.7582939   7.3948798  18.7450016  32.2437011   7.8962185
  18.5394649  29.2108246  10.1384541  19.1687767  29.7468546   9.8605612
  18.7080512  29.1185605  10.9898107  18.6572443  29.2769608  10.2233069
  18.3408564  33.9979440  12.4110953  19.1681993  33.7264589  12.4669567
  18.3616410  34.7940282  12.7674771  18.4661414  34.0759195  12.4726136
  20.5648096  30.9275086   9.4928657  20.0688658  31.1238760   8.8020223
  21.3217158  31.3267755   9.3217458  20.6034921  31.0152820   9.3648793
  14.1152298  33.3288250   5.4637711  14.1550670  33.8297457   6.1772419
  13.2901963  33.4198644   5.1943634  13.9991824  33.4170067   5.5288250
  13.3450445  33.3357653  13.3968021  13.9703148  32.7919786  13.6697453
  12.8900925  32.8552571  12.8275811  13.3698705  33.1847134  13.3529615
  20.9141066  34.3057632   7.9563226  21.3396137  33.8530159   7.3446752
  20.2998059  33.7517703   8.2328013  20.8869711  34.1571608   7.9068251
  17.4748310  31.7235928  10.4007907  17.6076215  30.9266921  10.7288883
  17.8593463  32.2502331  10.9806183  17.5504639  31.6835845  10.5351410
  20.5480665  28.6466254   6.9989000  19.7426629  28.5363984   7.3156839
  20.4187400  28.7478710   6.1418866  20.4100798  28.6449924   6.9197041
  15.1336757  31.7195103   8.6485801  15.6781170  31.3786230   9.2390143
  15.1873692  32.5780565   8.7907086  15.2225876  31.7950362   8.7567674
  13.7774032  17.1129620  -0.3968061  13.9494535  17.0035515   0.4517220
  14.3143389  17.7584026  -0.6336869  13.8819036  17.1921622  -0.3062965
  19.7148733  25.0333871   1.5541015  20.4989150  25.1464719   1.9196757
  19.5145328  24.2075008   1.7499701  19.8014759  24.9280591   1.6375401
  18.9319863  20.6904418   3.0927659  18.1392844  21.0047930   3.2780278
  19.0468791  20.9055887   2.2548443  18.8315274  20.7688255   2.9965993
  15.6393578  11.2537826   2.8078019  15.3247019  12.0237389   2.5447581
  15.3183510  10.6908082   2.2230246  15.5452497  11.2848095   2.6819369
  15.2710083  13.8535077   1.5463233  14.4609859  14.1592857   1.4353076
  15.7484770  14.5740659   1.6615817  15.2213562  14.0049678   1.5470304
  15.6220373  18.5838806  -1.9885035  15.7663749  19.1640014  -2.6241925
  15.9696022  18.9615103  -1.2835180  15.6947834  18.7259510  -1.9786040
  22.8060066  22.9186610   3.5665274  23.6194932  22.6471759   3.7270407
  22.6455033  22.6194150   2.7625470  22.9030015  22.8341536   3.4710680
  22.2471316  15.2109332  -2.5556030  21.4347998  14.9035223  -2.4742858
  22.7061251  14.7308333  -1.9913318  22.1951701  15.0945825  -2.4601436
  19.3424824  16.6169404   2.2272672  19.8124455  17.2411520   2.6140546
  19.3886704  15.9486379   2.7865887  19.4192700  16.6104084   2.3672743
  15.9932735  19.8327122   0.4998053  15.1428366  19.9698836   0.6355698
  16.1560863  19.0990900   0.9445754  15.8916599  19.7441223   0.5853652
  19.7443182  21.9788734   0.5047550  19.7039037  21.3338411  -0.0807294
  20.5566500  21.9225352   0.8172962  19.8586336  21.8747701   0.4644500
  19.3089961  13.5309915  -0.5000436  19.8661391  13.3023725  -1.1321971
  18.9851026  14.2915581  -0.7765224  19.3436371  13.6093752  -0.6343939
  17.0273078  16.6177569   0.4651571  17.7784405  16.9329246   0.7791125
  17.2195655  16.4156740  -0.3614508  17.1664492  16.6344950   0.3894966
  35.4717054  35.4717054  35.4717054 109.4712190 109.4712190 109.4712190
