ACE
  4735
  18.2098856  19.5928305  13.2815854  18.0009764  20.1073472  14.2195244
  16.9399803  20.3515218  14.2721002  18.5873393  21.0248233  14.2696738
  18.3610333  19.2307290  15.4206904  18.8215257  18.1034476  15.2544879
  18.1480858  19.7561063  16.6293496  17.7674576  20.6876976  16.7151348
  18.4479714  19.0267567  17.8449647  17.8623029  18.1078606  17.8718278
  19.9274465  18.6639463  17.9167028  20.1910102  18.0404184  17.0623923
  20.5265677  19.5743712  17.8999630  20.2012896  17.8992879  19.2074126
  19.9383829  18.5223918  20.0622357  19.6028280  16.9884377  19.2246651
  21.6807652  17.5364787  19.2791524  21.9443304  16.9129525  18.4248414
  22.2798851  18.4469042  19.2624143  21.9546070  16.7718183  20.5698619
  21.6916996  17.3949210  21.4246854  21.3561475  15.8609683  20.5871113
  23.3807246  16.4220963  20.6390147  23.9354302  17.2659920  20.6234780
  23.5620892  15.9156644  21.4938443  23.6244489  15.8443614  19.8472319
  18.1116502  19.8540640  19.0774154  17.6486135  20.9865494  18.9611654
  18.3461441  19.2845907  20.2618721  18.7279466  18.3505982  20.3064172
  18.0684280  19.9685656  21.5087299  17.6635292  20.9584667  21.2983645
  17.3425938  19.3945868  22.0847626  18.9899544  20.0678926  22.0823354
  23.9123915   2.6950447   9.9852749  20.5579106  26.7979643  36.5619255
  20.2230474  27.4756565  36.1263477  21.0705976  26.4084955  35.9736127
  20.5844687  26.8404222  36.4106047  23.0659201  21.0575851  37.1976146
  22.9810496  21.9136818  37.3425715  23.5543584  20.7820175  37.8658305
  23.1248098  21.1433173  37.3178227  23.9977634  17.6760645  38.6973881
  23.4689106  17.8920279  39.3571187  24.5202654  18.3696784  38.6174850
  23.9966087  17.8103782  38.7829480  15.8877242  21.5723862  37.4981349
  15.3034457  22.0773894  37.9047213  15.4847337  21.3466249  36.7577941
  15.7416546  21.6132111  37.4486374  20.3454457  17.8189514  35.9750269
  20.5850460  18.0267498  35.1625612  20.6670298  17.0147023  36.0839214
  20.4291615  17.7303616  35.8710822  13.5563839  15.4327402  35.0310393
  12.8422016  15.1465581  35.4432826  14.0407807  15.7724028  35.6716781
  13.5223202  15.4409051  35.1866028  20.7311157  23.9357356  35.4072202
  21.1462305  23.6042379  34.7156697  19.9003086  23.7026258  35.2792338
  20.6699165  23.8528612  35.2863049  23.4244547  20.1867915  34.5933403
  23.3424709  20.2570102  35.4588390  24.0624267  20.7497659  34.4017144
  23.5064384  20.2806886  34.6923353  20.5284657  20.2088369  37.6042010
  21.3425296  20.5003262  37.4924781  20.4643798  19.5548232  37.0300302
  20.6387396  20.1553564  37.5030847  17.0395380  18.9012177  37.0689211
  17.4240533  18.6819883  37.8205756  16.7907000  19.7275122  37.1990287
  17.0597453  18.9910323  37.1990287  14.3773759  22.8253002  40.3979798
  15.1319727  23.2066042  40.6115260  13.7844372  23.2764146  40.8526494
  14.4010473  22.9481830  40.4962676  17.1238311  21.0265583  41.1701404
  16.9281094  21.6340317  40.5761707  17.3472657  20.3333527  40.6893078
  17.1272952  21.0143108  41.0117485  21.9660679  23.4250169  32.9457815
  22.7333664  23.4850294  32.5363666  21.5191988  22.8530611  32.4614133
  22.0134106  23.3486745  32.8135525  18.6699752  25.0282080  37.7152167
  18.7392572  24.1696619  37.8545167  19.4488207  25.2453961  37.3871191
  18.7952602  24.9334944  37.6869324  18.0135279  19.6968936  34.4094925
  18.3027804  20.4733818  34.6838499  18.1007078  19.1857667  35.1109424
  18.0689536  19.7360854  34.5537423  17.8905523  18.6240171  39.7028939
  18.6347568  19.0114447  39.9411889  18.0366219  17.7797596  39.8669426
  18.0216108  18.5570644  39.7622908  22.8066898  15.0902199  38.6648612
  22.2789917  15.1730943  37.9754321  23.2662607  15.8320070  38.6613256
  22.7968749  15.2122861  38.5623307  14.7999964  13.3604718  33.6889507
  14.4512768  14.0124444  34.1521056  14.3196409  13.3461831  32.9613378
  14.6770207  13.4547772  33.6500598  15.2024095  16.8530360  36.5308128
  15.8369174  17.4490785  36.4657590  15.2849705  16.5533817  37.3453998
  15.3080646  16.8971268  36.6411215  16.7803077  12.7844335  36.5053570
  17.1018919  12.3047418  35.8512833  17.0430021  13.5943981  36.3144382
  16.8669103  12.8334233  36.3809062  19.8414189  14.7252459  38.0044234
  19.2479028  15.0469455  37.4528801  19.8789466  13.8793554  37.7965340
  19.7588578  14.6476787  37.8927005  17.8143421  15.3649710  36.0973564
  18.1942386  15.3829339  35.3124679  17.0736017  15.8103698  35.9764411
  17.7612259  15.4331484  35.9637132  18.6128175  22.2027216  37.4882354
  17.8039498  21.8793889  37.4415664  19.1203084  21.4960438  37.4210603
  18.5677842  22.0508532  37.4712648  14.8004970   3.3132405  28.0673755
  14.0487869   2.9347943  27.8389800  15.2490981   3.3450839  27.3192565
  14.7554636   3.2618012  27.9231257  20.2529930   3.7357775  23.4959302
  19.9181298   4.4134696  23.0603524  20.7656800   3.3463086  22.9076174
  20.2795511   3.7782353  23.3446093  19.7934221   5.6872043  29.4370414
  20.1773600   6.2558942  28.8975189  19.7293362   4.9621554  28.9576230
  19.8407648   5.6647507  29.2864276  16.3789726   3.3250797  30.3336527
  16.4800089   2.5151151  30.6433655  15.7831471   3.2307744  29.7036206
  16.3062264   3.1915825  30.2862766  16.2190465   8.2428386  31.7351383
  16.8627921   8.6841550  32.1247542  16.5446721   7.4381813  31.6481642
  16.3622294   8.1893581  31.7796861  16.9211045   1.2540361  27.1071245
  17.2426886   1.7945569  26.5032553  17.5683142   0.6837133  27.2393535
  17.0637100   1.2499536  27.0378280  15.5828066  -1.4898007  24.4321396
  14.9985281  -0.9847975  24.8387260  15.1798161  -1.7155620  23.6917988
  15.4367370  -1.4489758  24.3826421  20.4261980   0.8735487  22.3412248
  20.8413129   0.5420511  21.6496744  19.5953910   0.6404389  22.2132385
  20.3649989   0.7906743  22.2203096  17.0169447   4.0595184  26.0761628
  17.3067745   3.6684165  25.3520855  17.7472928   4.2411889  26.5166903
  17.1676331   4.0288997  26.0344435  14.9575362   6.0362566  29.1421778
  14.7375658   5.7459921  29.9348445  14.7369884   5.3777521  28.6139690
  14.8922957   5.8962274  29.1810686  17.1243318   7.4091956  27.9252470
  17.7767376   6.8768398  28.1543496  16.4268927   7.0560608  28.3120344
  17.1174036   7.2781479  28.0164638  14.0724583  -0.2368866  27.3319844
  14.8270551   0.1444173  27.5455307  13.4795196   0.2142277  27.7866541
  14.0961296  -0.1140039  27.4302723  21.5889814   2.6735154  26.6920529
  21.3476490   1.9403015  26.2847594  21.7691147   3.2222011  26.0386862
  21.5797438   2.6457545  26.5350752  19.1392842   3.3316117  27.8997912
  19.9042734   3.0625761  27.5780576  19.0370932   2.8466127  28.6167975
  19.2374338   3.2205681  27.9577740  24.5606033   2.0248089  24.3960772
  24.6425870   2.8315075  24.0722223  25.0455775   2.0444048  25.1201545
  24.6443191   2.1468751  24.4547670  18.3650576   1.9660211  24.6492213
  18.4343396   1.1074750  24.7885214  19.1439031   2.1832092  24.3211238
  18.4903426   1.8713075  24.6209371  22.7558063   4.3897913  28.8628707
  22.3637855   4.0864628  28.1451573  22.9111135   5.2267002  28.6733661
  22.7211653   4.4681749  28.7285204  22.9197738   0.9547901  28.8034737
  22.5612393   1.1262544  29.5798770  22.4336449   1.4161107  28.2462736
  22.7956435   1.0486872  28.8360006  23.5248368   3.7933405  32.2958741
  23.3268057   4.2824220  31.6014953  22.9036080   3.9974647  32.8742875
  23.4035933   3.8949943  32.2781964  22.0554805   0.5983894  24.7298316
  22.7789004   1.0642006  24.5862889  21.6155396   0.6657503  23.9795913
  22.0970497   0.6767730  24.5983097  22.3158655   4.6604598  24.8896377
  21.5987964   4.4865461  24.4243614  22.9665392   4.4257171  24.3571863
  22.3060505   4.6000391  24.7425595  17.5971816   5.8966357  31.3186525
  17.1832215   5.2340487  30.9290366  18.2819191   6.0444216  30.7982219
  17.6370188   5.8207015  31.1843022  20.9637111   5.0556442  32.0710141
  20.5653394   5.1658713  31.3030962  20.3488330   5.2638509  32.6536701
  20.8136000   5.1030010  32.0441441  21.5150806   1.7545486  31.2903683
  21.9861984   2.4685748  31.4593668  21.8510984   1.1544236  31.8263552
  21.6345921   1.7716950  31.3936059  31.3896414   9.2954995  32.3036523
  30.5334309   9.4563493  32.3545640  31.4364067   8.4247059  32.3241584
  31.2695525   9.1905797  32.3142589  25.7737553  18.8317713  28.0673755
  25.0220453  18.4533251  27.8389800  26.2223565  18.8636147  27.3192565
  25.7287220  18.7803320  27.9231257  31.2262513  19.2543082  23.4959302
  30.8913882  19.9320004  23.0603524  31.7389384  18.8648394  22.9076174
  31.2528094  19.2967661  23.3446093  30.7666804  21.2057351  29.4370414
  31.1506184  21.7744250  28.8975189  30.7025946  20.4806861  28.9576230
  30.8140232  21.1832815  29.2864276  27.3522309  18.8436105  30.3336527
  27.4532672  18.0336459  30.6433655  26.7564055  18.7493052  29.7036206
  27.2794848  18.7101133  30.2862766  36.0113303  12.7831646  25.8201903
  35.8952829  13.5339332  26.2494041  36.8069190  12.5255599  26.0697990
  36.1117893  12.8566493  25.9205994  27.1923049  23.7613694  31.7351383
  27.8360504  24.2026858  32.1247542  27.5179305  22.9567120  31.6481642
  27.3354878  23.7078889  31.7796861  20.5487354  14.8656392  29.9588861
  20.3137538  14.0324044  29.8521130  20.6872994  15.1461057  29.1450062
  20.5343016  14.7839895  29.8231216  22.8477441   7.0342122  32.8573169
  22.2282473   6.4434770  32.6883183  22.7461305   7.6253558  32.2237492
  22.7415117   7.0346205  32.7378158  27.8943629  16.7725669  27.1071245
  28.2159470  17.3130876  26.5032553  28.5415725  16.2022441  27.2393535
  28.0369684  16.7684844  27.0378280  29.9445337   8.7741664  27.1905632
  30.6425501   8.9529792  27.6827095  30.2597669   8.2512003  26.5676021
  30.0940674   8.7235436  27.1707642  22.5746574  10.5794404  35.1016738
  22.4505271  11.1656850  35.7366557  23.2264859  10.0854600  35.4029013
  22.6520224  10.5933208  35.2402667  30.1333272  15.1612109  27.1785423
  30.5726908  14.5529210  27.6240196  29.9837935  14.7819482  26.4070888
  30.1754738  15.0150580  27.1304591  27.6004915  13.7556121  34.3804249
  28.2453918  13.2628564  34.0615197  27.8406692  13.8980908  35.2070327
  27.7315500  13.7033563  34.4553782  30.1391007  16.6011027  34.0311141
  30.4214249  15.8062433  33.8097897  30.8677167  17.0791614  34.0516202
  30.2880570  16.5545624  34.0014156  28.1172200   4.1434061  31.2726906
  27.7875530   4.5945204  30.6030605  27.4417202   4.0650224  31.8199913
  27.9682637   4.1985196  31.2550130  33.7342609  13.5139290  24.1316193
  33.6493904  14.3700257  24.2765761  34.2226992  13.2383614  24.7998352
  33.7931506  13.5996612  24.2518274  34.6661042  10.1324085  25.6313928
  34.1372513  10.3483718  26.2911234  35.1886062  10.8260223  25.5514897
  34.6649495  10.2667221  25.7169527  26.5560650  14.0287301  24.4321396
  25.9717865  14.5337333  24.8387260  26.1530745  13.8029688  23.6917988
  26.4099954  14.0695550  24.3826421  22.1104678  19.7442062  31.2345067
  21.6272257  20.4692552  31.2104651  22.9227997  20.0418193  31.3455225
  22.1595426  19.8944416  31.2472346  28.1818832  18.5374243  33.8394882
  27.6645774  18.1781658  33.2356190  28.8793224  18.0136418  33.8500948
  28.2084414  18.4071931  33.7525140  31.0137864  10.2752953  22.9090316
  31.2533868  10.4830937  22.0965659  31.3353705   9.4710462  23.0179261
  31.0975022  10.1867055  22.8050869  26.3228154   2.2046349  26.7549854
  27.0774122   2.5724666  26.5166904  26.1455689   2.5785904  27.5229034
  26.4082633   2.3144537  26.8334743  24.9648876  20.2598238  31.3865347
  25.6669455  19.7450227  31.4438104  24.8846359  20.5872390  32.1912222
  25.0572636  20.2312465  31.5138139  24.6785219   4.6116668  23.4527967
  24.4960792   4.8288549  22.6268960  25.5410832   4.7255681  23.5086582
  24.7789809   4.6606566  23.3382454  24.2899651  16.4504590  30.8950955
  25.1288550  16.6827523  30.9424717  24.3211420  15.5808902  30.8257990
  24.4181369  16.3561537  30.8915600  24.9152354  16.8705466  35.1964261
  25.4550579  16.7276597  35.8667633  24.2322300  17.2702216  35.5648287
  24.8944508  16.9085136  35.3498682  34.3393239  12.5496466  30.3909285
  35.0950754  12.9827981  30.4298194  34.4455563  11.9001236  30.9643921
  34.4663410  12.5173950  30.4807311  37.3773410  16.3769743  31.1411688
  36.9408642  16.3806486  31.8970659  37.0436326  17.0575242  30.7091265
  37.2636030  16.4782199  31.1892520  20.3189499  13.0905756  35.3498682
  20.0527914  12.2744873  35.5089672  20.3328063  13.1358912  34.4794198
  20.2814221  12.9762661  35.2452164  24.2247246   7.8890841  21.9650440
  23.5105423   7.6029020  22.3772873  24.7091215   8.2287467  22.6056828
  24.1906609   7.8972490  22.1206075  31.3994564  16.3920795  22.3412248
  31.8145713  16.0605819  21.6496744  30.5686494  16.1589697  22.2132385
  31.3382573  16.3092051  22.2203096  20.7282913  13.8764536  32.6310426
  20.5458486  13.8511422  31.7782719  21.4632582  14.3463474  32.6699335
  20.8096977  13.9425898  32.5108345  36.7982587  14.1116046  29.7743314
  37.0338176  14.2561245  28.9470165  36.9472151  14.8758454  30.1674828
  36.8548390  14.2455100  29.7106918  33.8404933  10.7982614  28.2936498
  33.9351787  11.5371908  28.7476123  33.2163776  10.3700090  28.7271062
  33.7613963  10.8443935  28.4244645  20.6953823  10.7558036  32.7809493
  21.2727326  10.6194487  33.4201738  19.9967885  10.2993821  33.0355077
  20.6774845  10.6680303  32.9131783  34.0927954  12.6431354  21.5273450
  34.0108117  12.7133541  22.3928437  34.7307675  13.2061098  21.3357190
  34.1747792  12.7370325  21.6263399  27.4521125  12.4092092  30.9947976
  27.1940370  11.5763827  30.9679276  27.5069608  12.6349705  30.1540477
  27.4220903  12.3189863  30.8668113  26.4255837   9.9629855  31.4812871
  25.8505429  10.1222023  32.1176832  26.0491514   9.3265264  31.0181321
  26.2858650   9.8927668  31.5067429  16.1712656   9.6069929  29.4957312
  16.2572908   9.2301798  30.2770841  16.7988454   9.2330375  29.0177270
  16.2769207   9.4955412  29.5402789  31.1968064  12.6651808  24.5382056
  32.0108703  12.9566701  24.4264828  31.1327206  12.0111671  23.9640349
  31.3070803  12.6117003  24.4370894  27.0675973  16.1373326  29.6654368
  27.7049920  15.8985073  30.2106162  27.4931044  16.3410485  28.9307529
  27.2252139  16.1324336  29.6371526  21.7588615  18.3761662  33.5488672
  21.7992760  18.6476513  32.7208452  22.3183139  18.9003570  33.9646460
  21.8471961  18.4937417  33.4880560  27.7078788  11.3575616  24.0029258
  28.0923940  11.1383322  24.7545803  27.4590408  12.1838561  24.1330334
  27.7280860  11.4473762  24.1330334  29.4497445  16.6145749  31.3448155
  29.5236453  16.4520920  32.1990005  30.2666951  16.8035938  31.1008636
  29.5813803  16.6182491  31.4346180  23.2103201  16.9603611  28.3742598
  22.3841319  17.2065349  28.2476877  23.2715192  16.8815692  29.2404656
  23.0977368  16.9848560  28.4831543  25.4279225   3.0272552  29.3338038
  24.5601650   3.0995152  29.3995648  25.7154429   3.8294631  29.5226013
  25.3418973   3.1566699  29.3712805  27.9902030  19.5780492  26.0761628
  28.2800329  19.1869473  25.3520855  28.7205511  19.7597197  26.5166903
  28.1408914  19.5474305  26.0344435  28.5796775  14.3798238  37.1614759
  28.0808469  15.0914005  37.2399647  29.3897000  14.6998904  37.1232921
  28.6252882  14.5325086  37.1671327  25.9307946  21.5547874  29.1421778
  25.7108241  21.2645229  29.9348445  25.7102468  20.8962829  28.6139690
  25.8655540  21.4147582  29.1810686  24.8424893  13.6421191  31.4077479
  24.5538142  13.0158662  31.9423207  25.7108241  13.5841478  31.4742160
  24.9285145  13.5408735  31.4968434  28.0975902  22.9277264  27.9252470
  28.7499960  22.3953706  28.1543496  27.4001510  22.5745916  28.3120344
  28.0906620  22.7966787  28.0164638  25.0457166  15.2816442  27.3319844
  25.8003134  15.6629481  27.5455307  24.4527779  15.7327585  27.7866541
  25.0693880  15.4045269  27.4302723  36.0915820  15.2481678  27.2683449
  36.6573853  15.9074888  27.1841992  35.4443723  15.5931376  27.7399852
  36.0794576  15.3963619  27.3256206  26.3655393  16.4525003  32.7059960
  25.8436147  16.5925295  33.3911825  26.7529413  15.6935667  32.8962077
  26.3459094  16.3610527  32.8361036  23.3546577   6.5030812  26.7754915
  23.0671373   6.1332082  26.0386862  24.0417045   6.9725667  26.5138619
  23.4135474   6.5177781  26.6269990  32.5622398  18.1920462  26.6920529
  32.3209074  17.4588323  26.2847594  32.7423731  18.7407319  26.0386862
  32.5530022  18.1642853  26.5350752  27.7921719  13.4829022  28.1041451
  27.5964501  14.0903756  27.5101754  28.0156064  12.7896966  27.6233125
  27.7956360  13.4706547  27.9457532  26.1900249  10.3683760  28.2222319
  26.9122901  10.5324918  27.7626125  25.7108241  11.0893425  28.1161659
  26.2263979  10.4981989  28.1387933  23.8407865  12.7741832  37.3276459
  24.3528962  13.0526086  36.6785219  23.5544208  13.5131126  37.6939272
  23.8742729  12.9244186  37.2866337  20.9274772   7.2812024  27.6240196
  21.0290908   8.0838186  27.9521171  21.7230658   7.0799360  27.3263276
  21.0602677   7.3697923  27.6275551  21.7438504   7.3959202  35.3661317
  21.6023996   6.5443143  35.4905825  22.0279067   7.4387863  34.5423523
  21.7646350   7.2758952  35.2628941  31.8977096   9.2326293  29.5105805
  31.6511810   9.1522043  30.3442594  32.2262219   8.4479760  29.3168333
  31.9098340   9.1052558  29.6053329  35.7925145  15.9409652  33.2992587
  35.6539504  16.6390698  33.8041329  35.0125143  15.7858308  32.9428768
  35.6568372  16.0209819  33.3218861  26.9301878  20.1585783  35.7889815
  27.0791442  19.5988699  35.1363220  27.7101881  20.2377785  36.1722334
  27.0675972  20.0871348  35.7486765  37.2878518  15.2987906  24.0609086
  36.9085327  14.5125044  24.0538375  36.6244763  15.8474763  23.9180730
  37.1336993  15.2632730  24.0389883  30.1125426  18.8501425  27.8997912
  30.8775317  18.5811068  27.5780576  30.0103516  18.3651435  28.6167975
  30.2106921  18.7390989  27.9577740  32.6344087  15.8813608  19.8797861
  33.4017072  15.9413733  19.4703713  32.1875395  15.3094050  19.3954180
  32.6817514  15.8050184  19.7475572  33.5321882  14.6868264  32.1650594
  32.8566884  14.4553497  32.6663981  33.5414258  14.0789447  31.5392699
  33.4340387  14.5627190  32.1466746  35.5338617  17.5433397  24.3960772
  35.6158454  18.3500383  24.0722223  36.0188359  17.5629356  25.1201545
  35.6175774  17.6654059  24.4547670  29.3435120  12.2218233  33.0630850
  28.9197369  12.4222732  32.3269868  29.1679975  11.3747081  33.1755150
  29.2546001  12.1267014  32.9704540  24.6317565  12.7170284  28.4958822
  24.7882184  12.6517087  29.3514814  24.9718158  13.4918837  28.2837502
  24.7050800  12.8219482  28.5913416  31.1696709  12.0928168  27.3652185
  31.7112255  11.5898549  27.8290806  31.4843269  12.0393362  26.5541671
  31.2961107  12.0107589  27.3135998  29.3383159  17.4845519  24.6492213
  29.4075980  16.6260058  24.7885214  30.1171614  17.7017400  24.3211238
  29.4636009  17.3898383  24.6209371  33.7290647  19.9083220  28.8628707
  33.3370439  19.6049936  28.1451573  33.8843719  20.7452310  28.6733661
  33.6944237  19.9867057  28.7285204  21.2051826   9.9005235  28.8119589
  21.5850791  10.3189779  28.1479857  20.6307191  10.4818690  29.1188433
  21.1763151  10.0483093  28.7596330  33.8930322  16.4733209  28.8034737
  33.5344976  16.6447852  29.5798770  33.4069032  16.9346415  28.2462736
  33.7689018  16.5672180  28.8360006  28.6818687  12.1532375  21.3434972
  28.9711212  12.9297257  21.6178546  28.7690486  11.6421106  22.0449471
  28.7372943  12.1924293  21.4877470  24.8482628  11.4665639  33.4435084
  24.0070634  11.3669513  33.6513978  25.0572636  12.2361120  33.7949404
  24.7547320  11.5657683  33.5262399  22.3258195   9.0885176  31.2719834
  21.9314893   9.1628188  30.4969944  21.7698312   9.4743123  31.8228196
  22.1861007   9.1566951  31.2387494  28.6599293   9.3947038  32.6932681
  28.3562430   8.8403027  33.2943089  27.9578714   9.5739248  32.2060716
  28.5115503   9.3391821  32.7102387  27.7165390   6.7047558  27.2577383
  27.9925124   5.9866471  26.8454951  28.3164059   7.3032478  27.0498489
  27.8458655   6.6867929  27.1658144  26.7217644  16.6096759  37.4004779
  26.6137999  16.6198821  38.2666837  26.9313425  17.4351540  37.2109733
  26.7367755  16.7337834  37.5008871  24.7391436  13.8609402  34.8626717
  24.1479369  14.5018900  34.8329732  25.5012459  14.2847019  34.8358016
  24.7639696  14.0185240  34.8541864  34.4980952  19.3118713  32.2958741
  34.3000641  19.8009528  31.6014953  33.8768663  19.5159955  32.8742875
  34.3768516  19.4135251  32.2781964  28.5588930  11.0803610  26.6368985
  29.3030975  11.4677886  26.8751935  28.7049627  10.2361035  26.8009473
  28.6899515  11.0134083  26.6962955  33.4750306   7.5465638  25.5988659
  32.9473325   7.6294382  24.9094367  33.9346014   8.2883509  25.5953303
  33.4652156   7.6686300  25.4963354  25.2841622   7.4743039  34.5656869
  24.6594693   7.4861431  33.9582821  24.9487217   7.9503214  35.2148109
  25.1427114   7.5461556  34.5713437  25.4683371   5.8168157  20.6229554
  25.1196175   6.4687883  21.0861103  24.9879817   5.8025271  19.8953425
  25.3453615   5.9111211  20.5840645  21.9967298  15.5343499  36.0060633
  21.4667222  14.8435938  36.0555608  22.2692391  15.5253684  35.1773342
  21.9592020  15.4310631  35.8908049  33.0287388  16.1169201  24.7298316
  33.7521587  16.5827314  24.5862889  32.5887979  16.1842811  23.9795913
  33.0703081  16.1953038  24.5983097  31.4369841  14.0471014  33.7143303
  31.0097449  13.4220732  33.2808739  31.4294785  13.7645936  34.5402310
  31.3728982  13.9123794  33.7723131  24.5532368   9.0836187  36.7831737
  24.7125854   8.3279511  37.1883459  24.3725261   9.6327126  37.4372475
  24.5497727   9.0530001  36.9394443  17.2763140  12.2071263  33.3628981
  17.1706589  12.1618108  32.4981065  16.5263360  12.5525044  33.6443266
  17.1498743  12.2512171  33.2766311  26.0456873   3.6510587  33.3091582
  26.0855244   4.1519793  34.0226289  25.2206537   3.7420980  33.0397505
  25.9296398   3.7392403  33.3742120  27.4671236  10.1671096  35.6065481
  26.6363166  10.3344914  35.4000729  27.4122753   9.7907047  36.3914366
  27.3360651  10.1360828  35.6914009  25.8407280   8.4426688  26.1355598
  25.9810241   8.9399152  26.8384240  26.3389813   7.7412982  26.2769812
  25.9348361   8.4128667  26.2607177  25.8707502   9.3093799  23.4648175
  26.5052582   9.9054224  23.3997637  25.9533113   9.0097257  24.2794045
  25.9764053   9.3534707  23.5751262  27.4486485   5.2407774  23.4393617
  27.7702326   4.7610857  22.7852879  27.7113429   6.0507420  23.2484429
  27.5352510   5.2897672  23.3149109  30.6783458  16.2626649  36.9592433
  30.1708549  16.8162495  37.4033064  30.3810104  16.3234939  36.1411208
  30.5588343  16.3532960  36.9040890  22.3760490  11.5061640  26.7337721
  22.8852719  12.1026147  27.1149027  22.8494762  11.2387613  26.0514141
  22.5203866  11.5547455  26.6892244  33.2891238  20.1789906  24.8896377
  32.5720548  20.0050769  24.4243614  33.9397976  19.9442479  24.3571863
  33.2793089  20.1185699  24.7425595  35.8739209   9.0554495  28.6337682
  35.2030399   9.5984197  28.5050747  36.5678960   9.5249350  28.3919377
  35.8768077   9.2052766  28.5793210  29.9225943  21.1951207  33.8649440
  29.6991597  20.4370036  34.2333466  29.4335786  21.2249228  33.1429880
  29.8169392  21.0873431  33.8126181  24.7351022   8.1417898  29.6010902
  24.0163011   8.5582031  29.8683765  25.1063384   8.7072137  29.0502540
  24.6842954   8.2867180  29.5593709  28.5704400  21.4151665  31.3186525
  28.1564799  20.7525795  30.9290366  29.2551774  21.5629524  30.7982219
  28.6102772  21.3392323  31.1843022  31.9369694  20.5741750  32.0710141
  31.5385977  20.6844021  31.3030962  31.3220914  20.7823817  32.6536701
  31.7868583  20.6215318  32.0441441  30.5097596   7.1815898  24.9384281
  29.9162435   7.5032895  24.3868848  30.5472874   6.3356994  24.7305387
  30.4271985   7.1040226  24.8267052  33.3855413   7.1395403  28.3686031
  33.1569106   7.1628104  27.5264389  33.6453489   6.3152870  28.4881042
  33.3901601   7.0211483  28.2611229  26.4400175   5.6771949  29.6640227
  26.9157541   6.0389029  29.0290408  25.9388775   6.3328416  29.9440370
  26.4365534   5.8266138  29.6116968  19.4142420  10.3414317  35.8801983
  18.8669140   9.6714962  35.9982851  20.2034799   9.9744164  35.9445450
  19.4494604  10.1879303  35.9070684  28.4826828   7.8213149  23.0313611
  28.8625793   7.8392778  22.2464726  27.7419424   8.2667138  22.9104458
  28.4295666   7.8894923  22.8977179  18.1729390   9.5535124  33.0348006
  17.9951151   9.1011733  33.7602922  17.8848412  10.3561286  33.2186484
  18.1042343   9.6057682  33.1691509  29.2811582  14.6590655  24.4222401
  28.4722905  14.3357328  24.3755710  29.7886491  13.9523877  24.3550650
  29.2361249  14.5071971  24.4052695  19.9101860  12.0862848  30.1469765
  19.0447379  12.0748539  30.0352536  20.0100676  11.8993071  30.9940904
  19.7976027  12.0568909  30.2558710  25.5358870  21.8560747  33.7199871
  25.8505429  22.6697135  33.7277652  25.9452283  21.4710965  34.3882030
  25.6426968  21.9189449  33.8203962  32.4883389  17.2730793  31.2903683
  32.9594567  17.9871056  31.4593668  32.8243568  16.6729544  31.8263552
  32.6078504  17.2902258  31.3936059  28.4745999   4.0474677  25.7141242
  29.2961693   4.2172990  25.4722937  28.0115650   4.2021938  24.9907540
  28.5277161   4.0956410  25.5712887  22.8771890  15.8033855  33.3678479
  23.4816747  15.7629689  32.7392300  22.6699202  16.6505007  33.3982535
  22.9360787  15.9221858  33.2794596  32.6915662  18.0699800  34.5840716
  33.5114036  17.9262766  34.8457012  32.4109740  18.6945999  35.1257154
  32.7712405  18.1410152  34.7028656  18.1123172  14.7868473  33.2377402
  18.0147450  13.9764744  33.5467459  18.8952042  14.7660266  32.8523670
  18.2139309  14.6635563  33.2264265  31.5219937  30.3841700  29.9588861
  31.2870122  29.5509352  29.8521130  31.6605578  30.6646365  29.1450062
  31.5075600  30.3025203  29.8231216  33.8210025  22.5527430  32.8573169
  33.2015056  21.9620077  32.6883183  33.7193888  23.1438865  32.2237492
  33.7147700  22.5531513  32.7378158  37.5293233  29.5472609  24.4321396
  36.9450449  30.0522641  24.8387260  37.1263329  29.3214996  23.6917988
  37.3832537  29.5880858  24.3826421  35.6517803  20.1301976  23.4527967
  35.4693376  20.3473857  22.6268960  36.5143416  20.2440989  23.5086582
  35.7522392  20.1791874  23.3382454  35.1979830  23.4076149  21.9650440
  34.4838007  23.1214328  22.3772873  35.6823798  23.7472775  22.6056828
  35.1639193  23.4157798  22.1206075  27.1445240  25.1255237  29.4957312
  27.2305492  24.7487106  30.2770841  27.7721037  24.7515683  29.0177270
  27.2501791  25.0140719  29.5402789  36.4011809  18.5457860  29.3338038
  35.5334234  18.6180460  29.3995648  36.6887013  19.3479939  29.5226013
  36.3151557  18.6752007  29.3712805  34.3279161  22.0216120  26.7754915
  34.0403956  21.6517390  26.0386862  35.0149629  22.4910975  26.5138619
  34.3868058  22.0363089  26.6269990  31.9007355  22.7997332  27.6240196
  32.0023492  23.6023493  27.9521171  32.6963242  22.5984668  27.3263276
  32.0335261  22.8883231  27.6275551  35.6050148  28.2355592  28.4958822
  35.7614768  28.1702395  29.3514814  35.9450742  29.0104145  28.2837502
  35.6783383  28.3404790  28.5913416  32.1784410  25.4190542  28.8119589
  32.5583375  25.8375087  28.1479857  31.6039775  26.0003998  29.1188433
  32.1495735  25.5668401  28.7596330  33.2990778  24.6070484  31.2719834
  32.9047476  24.6813496  30.4969944  32.7430895  24.9928430  31.8228196
  33.1593591  24.6752259  31.2387494  36.4415955  21.3353465  20.6229554
  36.0928759  21.9873191  21.0861103  35.9612400  21.3210578  19.8953425
  36.3186199  21.4296519  20.5840645  36.8139863  23.9611996  26.1355598
  36.9542824  24.4584460  26.8384240  37.3122396  23.2598290  26.2769812
  36.9080944  23.9313975  26.2607177  36.8440086  24.8279107  23.4648175
  37.4785165  25.4239532  23.3997637  36.9265697  24.5282564  24.2794045
  36.9496637  24.8720015  23.5751262  33.3493074  27.0246948  26.7337721
  33.8585303  27.6211455  27.1149027  33.8227346  26.7572921  26.0514141
  33.4936449  27.0732763  26.6892244  35.7083605  23.6603206  29.6010902
  34.9895594  24.0767339  29.8683765  36.0795968  24.2257445  29.0502540
  35.6575537  23.8052488  29.5593709  29.1461973  25.0720432  33.0348006
  28.9683735  24.6197041  33.7602922  28.8580996  25.8746594  33.2186484
  29.0774927  25.1242990  33.1691509  30.8834443  27.6048156  30.1469765
  30.0179963  27.5933846  30.0352536  30.9833259  27.4178379  30.9940904
  30.7708610  27.5754217  30.2558710  36.4420961  11.2881152  15.0013802
  35.6903860  10.9096690  14.7729847  36.8906972  11.3199586  14.2532612
  36.3970628  11.2366759  14.8571304  31.2170761   7.3219831  16.8928908
  30.9820946   6.4887483  16.7861177  31.3556402   7.6024496  16.0790109
  31.2026424   7.2403334  16.7571263  37.2244057   6.4850740  11.3661442
  36.6401273   6.9900772  11.7727306  36.8214152   6.2593127  10.6258034
  37.0783361   6.5258989  11.3166468  32.7788086  12.2005502  18.1685114
  32.2955664  12.9255991  18.1444698  33.5911404  12.4981632  18.2795272
  32.8278834  12.3507855  18.1812393  35.6332283  12.7161677  18.3205394
  36.3352862  12.2013667  18.3778150  35.5529766  13.0435829  19.1252269
  35.7256044  12.6875904  18.4478186  34.9583059   8.9068029  17.8291002
  35.7971958   9.1390962  17.8764763  34.9894828   8.0372341  17.7598037
  35.0864776   8.8124976  17.8255647  35.5835762   9.3268905  22.1304307
  36.1233987   9.1840036  22.8007680  34.9005708   9.7265655  22.4988334
  35.5627915   9.3648576  22.2838729  30.9872907   5.5469195  22.2838729
  30.7211322   4.7308312  22.4429719  31.0011471   5.5922351  21.4134244
  30.9497629   5.4326100  22.1792211  31.3966320   6.3327975  19.5650473
  31.2141894   6.3074861  18.7122765  32.1315989   6.8026913  19.6039382
  31.4780384   6.3989337  19.4448392  32.4272023  10.8325102  20.4828719
  32.4676168  11.1039953  19.6548499  32.9866547  11.3567010  20.8986507
  32.5155368  10.9500857  20.4220607  33.8786609   9.4167050  15.3082645
  33.0524726   9.6628788  15.1816924  33.9398600   9.3379131  16.1744703
  33.7660776   9.4411999  15.4171589  36.5991353  14.0111313  16.0761825
  36.3791649  13.7208668  16.8688492  36.3785875  13.3526268  15.5479737
  36.5338948  13.8711021  16.1150733  35.5108301   6.0984630  18.3417526
  35.2221549   5.4722101  18.8763254  36.3791649   6.0404917  18.4082207
  35.5968553   5.9972174  18.4308481  35.7140574   7.7379881  14.2659891
  36.4686542   8.1192920  14.4795354  35.1211187   8.1891024  14.7206588
  35.7377288   7.8608708  14.3642770  37.0338801   8.9088442  19.6400007
  36.5119554   9.0488734  20.3251871  37.4212821   8.1499106  19.8302124
  37.0142501   8.8173966  19.7701083  34.5091273   5.2305271  24.2616506
  35.0212370   5.5089525  23.6125266  34.2227616   5.9694565  24.6279319
  34.5426136   5.3807625  24.2206384  37.3901051   9.0660198  24.3344826
  37.2821406   9.0762260  25.2006884  37.5996833   9.8914979  24.1449780
  37.4051162   9.1901273  24.4348918  35.4074843   6.3172841  21.7966764
  34.8162777   6.9582339  21.7669779  36.1695867   6.7410458  21.7698063
  35.4323104   6.4748679  21.7881911  32.6650705   7.9906938  22.9400680
  32.1350630   7.2999377  22.9895655  32.9375799   7.9817124  22.1113388
  32.6275428   7.8874070  22.8248096  27.9446548   4.6634702  20.2969028
  27.8389997   4.6181547  19.4321112  27.1946768   5.0088483  20.5783313
  27.8182151   4.7075610  20.2106358  30.5785267   4.5426287  17.0809812
  29.7130787   4.5311978  16.9692583  30.6784083   4.3556510  17.9280951
  30.4659434   4.5132348  17.1898756  36.2042277  14.3124186  20.6539918
  36.5188836  15.1260574  20.6617699  36.6135690  13.9274404  21.3222077
  36.3110375  14.3752888  20.7544009  33.5455297   8.2597294  20.3018526
  34.1500155   8.2193128  19.6732347  33.3382610   9.1068446  20.3322582
  33.6044195   8.3785297  20.2134642  28.7806580   7.2431912  20.1717449
  28.6830858   6.4328183  20.4807506  29.5635449   7.2223705  19.7863717
  28.8822716   7.1199002  20.1604312   5.6564511   9.9345999  27.2748953
   5.6258516  10.7890636  27.4467223   6.2545860   9.6341292  27.8335097
   5.7401669  10.0162496  27.3823756   3.4781086  12.5098301  25.5467263
   3.3620612  13.2605987  25.9759401   4.2736972  12.2522255  25.7963350
   3.5785675  12.5833148  25.6471355   1.2010391  13.2405946  23.8581553
   1.1161686  14.0966912  24.0031122   1.6894775  12.9650270  24.5263712
   1.2599289  13.3263267  23.9783634   2.1328825   9.8590740  25.3579288
   1.6040296  10.0750373  26.0176594   2.6553844  10.5526878  25.2780257
   2.1317277   9.9933877  25.4434887   7.5876877  15.4337044  30.7312333
   6.7574581  15.6447688  30.8945749   7.5386130  14.6074099  30.4554616
   7.4583613  15.3426651  30.7149698   4.8441193  16.1036399  30.8677048
   4.4076425  16.1073141  31.6236020   4.5104108  16.7841898  30.4356626
   4.7303813  16.2048854  30.9157881   7.9785539  12.8217319  29.7596686
   8.6401973  12.2607987  29.6592594   7.3376951  12.3269349  30.0849377
   7.9814406  12.6653728  29.7929026   4.2650370  13.8382701  29.5008674
   4.5005959  13.9827900  28.6735525   4.4139933  14.6025109  29.8940188
   4.3216173  13.9721755  29.4372278   6.0940826  12.6784367  27.3378278
   6.4249043  13.2112007  26.7318373   6.6673914  12.7323255  27.9940229
   6.2274505  12.7653936  27.3456060   1.3072715  10.5249270  28.0201858
   1.4019570  11.2638564  28.4741484   0.6831559  10.0966745  28.4536423
   1.2281746  10.5710590  28.1510006   1.5595737  12.3698009  21.2538810
   1.4775899  12.4400197  22.1193797   2.1975457  12.9327753  21.0622551
   1.6415574  12.4636980  21.3528760   7.2020178   7.9194864  28.8418440
   6.9456743   7.1074805  28.6516323   8.0449492   7.9272431  28.6148627
   7.2886203   7.8006861  28.7803257  11.6083550  11.4981909  34.0673631
  11.5408050  11.5177868  33.1976218  11.5939212  12.3412236  34.2929302
  11.5962306  11.6255644  33.9726108   3.5583602  14.9748333  26.9948810
   4.1241635  15.6341543  26.9107353   2.9111506  15.3198031  27.4665212
   3.5462359  15.1230274  27.0521566   5.4919063  11.6382201  30.6145606
   5.4053037  11.7937627  31.4680385   5.0369543  12.2820276  30.2405011
   5.4122319  11.7557956  30.6852713   3.2592928  15.6676307  33.0257947
   3.1207287  16.3657353  33.5306690   2.4792925  15.5124964  32.6694129
   3.1236154  15.7476474  33.0484221   4.7546300  15.0254561  23.7874446
   4.3753109  14.2391699  23.7803736   4.0912546  15.5741418  23.6446091
   4.6004775  14.9899385  23.7655243   3.0006399  17.2700052  24.1226132
   3.0826237  18.0767038  23.7987583   3.4856141  17.2896011  24.8466906
   3.0843557  17.3920714  24.1813031   1.1958429  19.6349876  28.5894067
   0.8038221  19.3316591  27.8716933   1.3511502  20.4718966  28.3999021
   1.1612019  19.7133712  28.4550564   1.3598104  16.1999864  28.5300098
   1.0012759  16.3714507  29.3064130   0.8736815  16.6613070  27.9728096
   1.2356801  16.2938836  28.5625367   1.9648735  19.0385368  32.0224102
   1.7668423  19.5276183  31.3280313   1.3436446  19.2426610  32.6008235
   1.8436299  19.1401907  32.0047325   3.3406992   8.7821150  28.3603042
   2.6698182   9.3250852  28.2316108   4.0346742   9.2516005  28.1184737
   3.3435859   8.9319421  28.3058570   7.1379319  14.8760372  25.1818592
   7.5212925  15.6251728  25.4116689   6.3423433  15.1226192  24.9230581
   7.0773102  15.0230066  25.1776166  16.6297095  25.4531307  27.2748953
  16.5991099  26.3075944  27.4467223  17.2278444  25.1526600  27.8335097
  16.7134253  25.5347804  27.3823756   9.8296780  24.5406958  32.0301884
   8.9734675  24.7015456  32.0811001   9.8764433  23.6699022  32.0506945
   9.7095891  24.4357760  32.0407950   9.6662879  34.4995046  23.2224662
   9.3314248  35.1771967  22.7868885  10.1789750  34.1100357  22.6341534
   9.6928460  34.5419624  23.0711454  12.6748601  26.5999002  34.6733535
  13.2204561  27.2784089  34.7327505  12.6165477  26.4586463  33.8135117
  12.7464515  26.6791004  34.5545596  14.4513669  28.0283609  25.5467263
  14.3353195  28.7791295  25.9759401  15.2469556  27.7707563  25.7963350
  14.5518259  28.1018456  25.6471355   1.2877807  22.2794085  32.5838529
   0.6682839  21.6886733  32.4148544   1.1861671  22.8705521  31.9502852
   1.1815483  22.2798168  32.4643519   6.3343995  32.0177632  26.8336606
   6.6559836  32.5582840  26.2297914   6.9816091  31.4474404  26.9658895
   6.4770050  32.0136807  26.7643641   8.3845703  24.0193627  26.9170992
   9.0825868  24.1981755  27.4092456   8.6998035  23.4963967  26.2941382
   8.5341040  23.9687399  26.8973002   8.5733638  30.4064072  26.9050784
   9.0127274  29.7981173  27.3505557   8.4238301  30.0271446  26.1336249
   8.6155104  30.2602543  26.8569951   6.5572567  19.3886024  30.9992267
   6.2275897  19.8397167  30.3295966   5.8817568  19.3102187  31.5465273
   6.4083003  19.4437159  30.9815490  12.1742975  28.7591254  23.8581553
  12.0894270  29.6152220  24.0031122  12.6627358  28.4835578  24.5263712
  12.2331872  28.8448575  23.9783634  13.7648974  15.3771547  29.2441878
  13.4502415  16.0675025  29.6762300  13.2475916  15.3216329  28.5427378
  13.6413445  15.4706435  29.2038827  13.1061408  25.3776048  25.3579288
  12.5772880  25.5935681  26.0176594  13.6286428  26.0712186  25.2780257
  13.1049861  25.5119185  25.4434887  18.5609461  30.9522352  30.7312333
  17.7307164  31.1632996  30.8945749  18.5118713  30.1259407  30.4554616
  18.4316196  30.8611958  30.7149698   4.9961016  29.2739264  24.1586756
   4.4118231  29.7789296  24.5652620   4.5931111  29.0481651  23.4183348
   4.8500320  29.3147513  24.1091781   9.4538230  25.5204917  22.6355677
   9.6934234  25.7282900  21.8231020   9.7754071  24.7162425  22.7444621
   9.5375388  25.4319018  22.5316230   4.7628521  17.4498312  26.4815215
   5.5174489  17.8176629  26.2432265   4.5856055  17.8237867  27.2494394
   4.8482999  17.5596500  26.5600103  18.0563419  23.5992753  34.5262754
  17.2191840  23.6694940  34.7610348  18.0251650  23.6017248  33.6537056
  17.9281702  23.6102980  34.4322302   3.1185585  19.8568631  23.1793328
   2.9361158  20.0740512  22.3534320   3.9811198  19.9707644  23.2351942
   3.2190175  19.9058529  23.0647815   8.7985304  16.8595042  26.2142351
   9.5271465  16.6810997  25.7680508   8.8880197  17.7013122  26.4249530
   8.9191966  16.9578920  26.1795869  12.7793605  27.7948429  30.1174645
  13.5351120  28.2279944  30.1563554  12.8855930  27.1453199  30.6909281
  12.9063776  27.7625913  30.2072671  15.8173776  31.6221707  30.8677048
  15.3809008  31.6258449  31.6236020  15.4836692  32.3027206  30.4356626
  15.7036396  31.7234162  30.9157881  15.7371259  18.6635534  33.1106476
  16.3797168  18.7333639  33.6968392  15.9894280  17.9964757  32.6086018
  15.8693391  18.5761883  33.1233756   2.6647612  23.1342804  21.6915801
   1.9505789  22.8480983  22.1038233   3.1491581  23.4739430  22.3322188
   2.6306976  23.1424454  21.8471436  18.9518122  28.3402626  29.7596686
  19.6134557  27.7793295  29.6592594  18.3109534  27.8454657  30.0849377
  18.9546990  28.1839036  29.7929026   9.8394930  31.6372758  22.0677609
  10.2546079  31.3057782  21.3762105   9.0086860  31.4041660  21.9397746
   9.7782939  31.5544014  21.9468456  15.2382953  29.3568009  29.5008674
  15.4738542  29.5013208  28.6735525  15.3872517  30.1210417  29.8940188
  15.2948756  29.4907063  29.4372278  17.0673410  28.1969675  27.3378278
  17.3981627  28.7297315  26.7318373  17.6406498  28.2508563  27.9940229
  17.2007089  28.2839244  27.3456060  12.2805299  26.0434578  28.0201858
  12.3752153  26.7823872  28.4741484  11.6564143  25.6152053  28.4536423
  12.2014329  26.0895898  28.1510006  12.5328320  27.8883317  21.2538810
  12.4508483  27.9585504  22.1193797  13.1708041  28.4513061  21.0622551
  12.6148158  27.9822288  21.3528760   5.8921491  27.6544055  30.7213337
   5.6340736  26.8215790  30.6944636   5.9469974  27.8801668  29.8805837
   5.8621269  27.5641827  30.5933473  10.9722542  19.7572506  30.8217429
  10.2678868  19.2681691  30.9801348  11.0207516  19.7694980  29.9505874
  10.8752593  19.6862154  30.7156769   4.8656204  25.2081818  31.2078231
   4.2905795  25.3673986  31.8442192   4.4891880  24.5717227  30.7446682
   4.7259016  25.1379631  31.2332790   8.5329492  23.6805167  36.0670610
   8.1443925  23.2559385  35.4122801   7.8684191  23.9287317  36.5747636
   8.3776420  23.6543888  36.0458478  18.1752761  23.4380172  28.8418440
  17.9189326  22.6260113  28.6516323  19.0182075  23.4457739  28.6148627
  18.2618787  23.3192169  28.7803257  12.3555854  17.3779796  33.5794594
  12.7366366  16.6957967  33.9662468  11.5519138  17.0889398  33.3970258
  12.2932316  17.2346844  33.6098650   9.6368431  27.9103772  24.2647417
  10.4509069  28.2018664  24.1530188   9.5727572  27.2563634  23.6905710
   9.7471170  27.8568966  24.1636254   5.5076339  31.3825289  29.3919729
   6.1450286  31.1437037  29.9371522   5.9331410  31.5862448  28.6572889
   5.6652505  31.3776299  29.3636886   6.1479154  26.6027579  23.7294618
   6.5324307  26.3835286  24.4811163   5.8990774  27.4290524  23.8595695
   6.1681226  26.6925725  23.8595695  16.8814341  30.3774216  34.7405287
  16.5760158  31.1102273  35.1018602  16.1620557  29.9712146  34.4598073
  16.7301684  30.4255949  34.7518424   7.8897811  31.8597712  31.0713515
   7.9636819  31.6972884  31.9255365   8.7067317  32.0487901  30.8273997
   8.0214169  31.8634454  31.1611541  22.5816133  27.0167217  34.0673631
  22.5140634  27.0363176  33.1976218  22.5671796  27.8597544  34.2929302
  22.5694890  27.1440952  33.9726108   3.8679591  18.2724515  29.0603399
   3.0002017  18.3447115  29.1261008   4.1554795  19.0746594  29.2491374
   3.7819339  18.4018663  29.0978165  12.9912480  18.4202375  37.3914721
  13.7366072  18.2312185  36.9778146  12.5749785  18.9460613  36.8328577
  13.0397454  18.4704520  37.2479294  20.3674751  25.7911603  32.3420226
  20.9182672  25.1579672  32.5817318  20.3518866  26.3226996  33.0335730
  20.4459947  25.7760552  32.4799084  14.0703157  24.0307937  31.4524822
  13.7267923  23.3098272  31.8032071  14.1696200  23.8221788  30.6103180
  14.0345200  23.8932140  31.3796502   3.4857533  30.5268405  27.0585205
   4.2403501  30.9081444  27.2720667   2.8928145  30.9779548  27.5131901
   3.5094246  30.6497232  27.1568083  14.5316186  30.4933641  26.9948810
  15.0974219  31.1526851  26.9107353  13.8844090  30.8383339  27.4665212
  14.5194943  30.6415582  27.0521566   1.7946943  21.7482775  26.5020275
   1.5071739  21.3784045  25.7652222   2.4817411  22.2177630  26.2403980
   1.8535841  21.7629744  26.3535351  11.0022764  33.4372425  26.4185889
  10.7609440  32.7040286  26.0112954  11.1824097  33.9859282  25.7652222
  10.9930388  33.4094816  26.2616112   6.2322085  28.7280985  27.8306811
   6.0364867  29.3355720  27.2367114   6.4556430  28.0348929  27.3498485
   6.2356726  28.7158511  27.6722892   4.6300615  25.6135723  27.9487680
   5.3523267  25.7776881  27.4891486   4.1508608  26.3345388  27.8427019
   4.6664345  25.7433953  27.8653294  12.5894122  21.9499522  33.3284365
  11.7505223  21.9760801  33.0922628  12.6598490  22.5970257  33.9089711
  12.4762516  22.0495648  33.3793482  11.0363401  18.8484899  28.0611981
  11.7389753  18.6492647  27.5831939  10.7707589  18.0760841  28.3680824
  11.1010033  18.7047865  28.0357422  16.4651646  27.1567509  30.6145606
  16.3785621  27.3122935  31.4680385  16.0102126  27.8005584  30.2405011
  16.3854903  27.2743264  30.6852713  10.3377462  24.4778256  29.2371166
  10.0912177  24.3974007  30.0707955  10.6662585  23.6931724  29.0433693
  10.3498706  24.3504521  29.3318689  14.2325511  31.1861615  33.0257947
  14.0939870  31.8842661  33.5306690  13.4525509  31.0310271  32.6694129
  14.0968738  31.2661782  33.0484221  15.7278884  30.5439869  23.7874446
  15.3485693  29.7577007  23.7803736  15.0645129  31.0926726  23.6446091
  15.5737359  30.5084693  23.7655243  13.1823510  13.4865569  31.1908527
  13.3007078  13.9442032  30.4575830  13.0085686  12.6810830  30.9044745
  13.1742681  13.4359341  31.0409461   8.5525792  34.0953388  27.6263273
   9.3175683  33.8263032  27.3045937   8.4503882  33.6103398  28.3433335
   8.6507288  33.9842952  27.6843100   6.5878562  22.2977797  34.1656508
   5.7974637  22.1169257  34.4873844   6.9839185  21.5204750  34.1486803
   6.5295438  22.1565258  34.2109057  11.0744453  31.1265572  19.6063222
  11.8417438  31.1865697  19.1969074  10.6275762  30.5546013  19.1219540
  11.1217880  31.0502147  19.4740932  11.9722248  29.9320227  31.8915954
  11.2967250  29.7005460  32.3929341  11.9814624  29.3241410  31.2658059
  11.8740753  29.8079153  31.8732107  13.9738983  32.7885360  24.1226132
  14.0558820  33.5952346  23.7987583  14.4588725  32.8081319  24.8466906
  14.0576141  32.9106022  24.1813031   7.7835486  27.4670196  32.7896210
   7.3597735  27.6674695  32.0535229   7.6080341  26.6199044  32.9020510
   7.6946367  27.3718977  32.6969900   3.0717931  27.9622247  28.2224183
   3.2282550  27.8969050  29.0780175   3.4118524  28.7370800  28.0102862
   3.1451166  28.0671445  28.3178777   9.6097076  27.3380131  27.0917546
  10.1512621  26.8350512  27.5556166   9.9243635  27.2845325  26.2807031
   9.7361473  27.2559552  27.0401358   7.7783525  32.7297482  24.3757574
   7.8476346  31.8712021  24.5150574   8.5571980  32.9469363  24.0476599
   7.9036375  32.6350346  24.3474731  10.7586345  22.2316435  37.1439846
  10.9728315  21.5927349  36.5903200  10.1420244  22.6762259  36.7147708
  10.6991674  22.2026579  36.9990277  12.1691013  35.1535184  28.5894067
  11.7770805  34.8501899  27.8716933  12.3244085  35.9904274  28.3999021
  12.1344603  35.2319020  28.4550564  12.9225433  23.8405500  38.0823153
  12.1102115  23.5331391  38.1636326  13.3815368  23.3604501  38.6465866
  12.8705818  23.7241993  38.1777748  12.3330688  31.7185172  28.5300098
  11.9745342  31.8899815  29.3064130  11.8469398  32.1798378  27.9728096
  12.2089385  31.8124143  28.5625367  10.1501074  15.3416371  32.1327189
   9.2794632  15.3155092  32.0860499  10.4041415  15.1693563  31.3153035
  10.0594634  15.3126515  32.0047326   7.1219053  27.3984338  21.0700332
   7.4111578  28.1749220  21.3443906   7.2090852  26.8873069  21.7714832
   7.1773309  27.4376256  21.2142830   7.1750214  17.3522599  33.5900660
   6.6588703  16.6602791  33.7152239   6.6144143  18.0193376  33.5363258
   7.0156727  17.3485857  33.6006726   9.2442448  17.8915559  35.4193512
   8.8574201  17.9164591  36.2007042   8.7575385  17.3257238  34.9668029
   9.1154957  17.8111310  35.4681416  15.2192427  24.4578214  34.0433214
  14.7920035  24.3704563  33.2881314  14.5818480  24.5655990  34.6288058
  15.0622034  24.4610874  34.0178656  12.4023508  17.3118433  30.6789074
  12.6073101  17.2440741  31.5246071  12.0749932  18.1177255  30.6110251
  12.3838756  17.4204374  30.7948729   7.0999659  24.6399002  32.4198042
   6.7962796  24.0854990  33.0208449   6.3979080  24.8191212  31.9326076
   6.9515869  24.5843784  32.4367747   6.1565756  21.9499521  26.9842744
   6.4325490  21.2318434  26.5720311   6.7564425  22.5484441  26.7763850
   6.2859021  21.9319892  26.8923505  15.6557196  17.8650198  30.1591839
  15.0431509  18.3520600  30.5445571  15.7521370  17.1893688  30.7029490
  15.5795093  17.8368506  30.2970698   9.6576277  19.6213039  25.2589339
  10.1120023  19.7923599  25.9837183  10.1316322  19.0081149  24.8587114
   9.7944597  19.5563924  25.3063100   3.5752425  20.2663362  35.2560095
   4.0353906  20.3402292  35.9935219   3.6208531  21.0644616  34.9059916
   3.6502980  20.3957510  35.3132851  12.9381318  34.5570676  32.0224102
  12.7401007  35.0461491  31.3280313  12.3169029  34.7611918  32.6008235
  12.8168883  34.6587215  32.0047325   6.9989297  26.3255573  26.3634346
   7.7431341  26.7129849  26.6017296   7.1449993  25.4812998  26.5274834
   7.1299882  26.2586046  26.4228316   8.9168872  18.1205832  31.3966207
   8.0704917  18.2928640  31.2707557   8.9140004  17.3155176  31.7332036
   8.7916022  18.0266861  31.4277334   9.9867172  21.8981046  32.2628265
   9.5127127  21.3722808  32.7733576  10.3585308  21.3510519  31.6943127
   9.9717061  21.7397043  32.2543412  16.2503903  26.9583422  33.6735046
  16.0102126  26.1189837  33.6777472  16.7295910  27.0383589  34.3975819
  16.2856087  26.8464822  33.7809848  11.9150672  22.7917601  25.3254019
  11.3873691  22.8746345  24.6359728  12.3746380  23.5335472  25.3218664
  11.9052522  22.9138263  25.2228714  18.2509090  23.7384879  31.6264305
  18.0118860  23.6980713  30.7885089  18.4142991  24.5856031  31.7530026
  18.2399393  23.8576964  31.5217787  14.8555120  28.1234829  37.5569350
  15.5789319  27.6707355  37.3780370  14.5905082  28.4039494  36.7741678
  14.9236393  28.0985797  37.4148065   3.9083737  21.0620121  20.3494914
   3.5596541  21.7139846  20.8126464   3.4280183  21.0477234  19.6218785
   3.7853981  21.1563174  20.3106005  11.4687755  31.3621165  24.4563676
  12.1921953  31.8279278  24.3128249  11.0288346  31.4294774  23.7061273
  11.5103447  31.4405001  24.3248457  10.6373910  28.2218707  35.7064365
  10.0230903  27.6776757  36.0013000  11.1541195  27.7082943  35.2270181
  10.6229572  28.0655116  35.6788593   9.8770207  29.2922977  33.4408664
   9.4497815  28.6672695  33.0074099   9.8695151  29.0097899  34.2667671
   9.8129348  29.1575757  33.4988491   8.2055916  20.1691731  33.6551198
   8.2298404  19.6351844  32.9663978   8.4567390  19.6609040  34.3176788
   8.2465835  20.0152635  33.6515842   4.4857239  18.8962550  33.0356942
   4.5255610  19.3971756  33.7491649   3.6606903  18.9872943  32.7662865
   4.3696765  18.9844366  33.1007480   4.2807646  23.6878651  25.8620959
   4.4210607  24.1851115  26.5649600   4.7790179  22.9864945  26.0035172
   4.3748727  23.6580630  25.9872538   4.3107868  24.5545762  23.1913536
   4.9452948  25.1506187  23.1262997   4.3933479  24.2549220  24.0059406
   4.4164419  24.5986670  23.3016622  17.2890434  27.0861239  36.0599900
  17.8808274  27.7258490  36.0918098  17.7249429  26.3884276  36.3491967
  17.4408865  27.0779590  36.1080732   5.8886851  20.4859737  23.1658978
   6.2102692  20.0062820  22.5118240   6.1513795  21.2959383  22.9749789
   5.9752877  20.5349635  23.0414470  11.2846006  19.8731931  35.5282457
  11.7101078  19.4204458  34.9165983  10.6702999  19.3192002  35.8047244
  11.2574652  19.7245908  35.4787482   0.8160856  26.7513603  26.4603082
   1.3253086  27.3478110  26.8414387   1.2895128  26.4839576  25.7779501
   0.9604232  26.7999418  26.4157604  11.7291604  35.4241869  24.6161737
  11.0120914  35.2502732  24.1508974  12.3798342  35.1894442  24.0837223
  11.7193455  35.3637662  24.4690955   9.7240229  16.3447031  28.9373034
   9.0808547  16.1944678  29.5058172   9.3839636  16.0989376  28.1722138
   9.5785306  16.2859154  28.9076049  14.3139575  24.3006458  28.3603042
  13.6430765  24.8436160  28.2316108  15.0079326  24.7701313  28.1184737
  14.3168443  24.4504729  28.3058570  14.4767703  20.7562342  31.2693415
  14.8295313  20.3292065  31.9439214  13.6182504  20.6713185  31.3994492
  14.4017148  20.6807082  31.3888426   3.1751388  23.3869861  29.3276262
   2.4563377  23.8033994  29.5949126   3.5463750  23.9524100  28.7767900
   3.1243320  23.5319143  29.2859069  12.4750969  24.0197710  35.2178258
  12.4548896  23.8381005  36.0713037  12.5230169  24.8909729  35.1937841
  12.4785610  24.1214248  35.3401552   8.9497962  22.4267861  24.6649641
   8.3562802  22.7484858  24.1134208   8.9873240  21.5808957  24.4570748
   8.8672351  22.3492189  24.5532413  15.9091763  15.8780753  32.1977728
  15.4022628  15.1709893  32.1298905  16.7059197  15.5473942  32.3278805
  15.9519002  15.7253905  32.2076723  11.8255779  22.3847366  28.0951392
  11.5969472  22.4080067  27.2529750  12.0853855  21.5604833  28.2146402
  11.8301967  22.2663446  27.9876589   4.8800541  20.9223912  29.3905587
   5.3557908  21.2840992  28.7555768   4.3789141  21.5780380  29.6705730
   4.8765900  21.0718101  29.3382328  18.1111903  30.3945680  25.1818592
  18.4945509  31.1437036  25.4116689  17.3156016  30.6411500  24.9230581
  18.0505685  30.5415374  25.1776166   6.9227194  23.0665112  22.7578971
   7.3026159  23.0844741  21.9730086   6.1819791  23.5119101  22.6369819
   6.8696032  23.1346886  22.6242540  14.5512485  21.3747303  28.3454550
  14.5506711  21.2195960  29.2038826  14.3468665  22.2210290  28.2895936
  14.5212263  21.4767924  28.4642489  12.2753337  26.0544805  31.9990757
  12.7707002  25.3367800  31.9594777  11.4653113  25.7515603  31.8845244
  12.2297230  25.9042451  31.9764483   7.7211949  29.9042618  24.1487761
   6.9123271  29.5809292  24.1021071   8.2286857  29.1975840  24.0816010
   7.6761615  29.7523934  24.1318056  14.3405156  28.8048492  34.6867886
  14.7660227  28.2822914  34.1338311  13.9762076  29.4029330  34.1656509
  14.3491759  28.8158719  34.5276895  10.9283755  32.5182757  31.0169043
  11.3994934  33.2323019  31.1859028  11.2643934  31.9181507  31.5528913
  11.0478870  32.5354221  31.1201419  10.9185606  14.2140553  34.5708231
  10.1131569  14.1038283  34.8876069  10.7892341  14.3153009  33.7138097
  10.7805738  14.2124223  34.4916272  14.3751566  20.3786045  35.1647928
  13.7914555  20.8795252  34.7525495  14.6955860  19.8715601  34.5312251
  14.3364741  20.3777880  35.0106435   6.9146365  19.2926640  25.4406603
   7.7362060  19.4624953  25.1988298   6.4516016  19.4473901  24.7172900
   6.9677527  19.3408373  25.2978247  17.5305150  34.9071332  30.9992267
  17.2008480  35.3582475  30.3295966  16.8550152  34.8287495  31.5465273
  17.3815586  34.9622467  30.9815490  24.7381558  30.8956855  29.2441878
  24.4234999  31.5860333  29.6762300  24.2208500  30.8401637  28.5427378
  24.6146028  30.9891743  29.2038827  15.7361104  32.9683620  26.4815215
  16.4907072  33.3361937  26.2432265  15.5588639  33.3423175  27.2494394
  15.8215583  33.0781808  26.5600103  14.0918169  35.3753939  23.1793328
  13.9093742  35.5925820  22.3534320  14.9543782  35.4892952  23.2351942
  14.1922758  35.4243837  23.0647815  19.7717888  32.3780350  26.2142351
  20.5004048  32.1996305  25.7680508  19.8612781  33.2198430  26.4249530
  19.8924550  32.4764228  26.1795869  21.9455125  35.2757814  30.8217429
  21.2411452  34.7866999  30.9801348  21.9940099  35.2880288  29.9505874
  21.8485177  35.2047462  30.7156769  14.8412175  33.7909823  29.0603399
  13.9734600  33.8632423  29.1261008  15.1287379  34.5931902  29.2491374
  14.7551923  33.9203971  29.0978165  22.0095984  34.3670207  28.0611981
  22.7122337  34.1677955  27.5831939  21.7440173  33.5946149  28.3680824
  22.0742617  34.2233173  28.0357422  24.1556093  29.0050876  31.1908527
  24.2739662  29.4627340  30.4575830  23.9818269  28.1996138  30.9044745
  24.1475264  28.9544649  31.0409461  21.1233657  30.8601679  32.1327189
  20.2527215  30.8340400  32.0860499  21.3773998  30.6878871  31.3153035
  21.0327217  30.8311823  32.0047326  18.1482798  32.8707907  33.5900660
  17.6321286  32.1788099  33.7152239  17.5876727  33.5378684  33.5363258
  17.9889311  32.8671165  33.6006726  23.3756091  32.8303741  30.6789074
  23.5805685  32.7626049  31.5246071  23.0482515  33.6362563  30.6110251
  23.3571339  32.9389682  30.7948729  17.1298340  37.4684829  26.9842744
  17.4058074  36.7503742  26.5720311  17.7297009  38.0669749  26.7763850
  17.2591604  37.4505200  26.8923505  20.6308860  35.1398347  25.2589339
  21.0852607  35.3108907  25.9837183  21.1048906  34.5266457  24.8587114
  20.7677180  35.0749232  25.3063100  19.8901456  33.6391140  31.3966207
  19.0437501  33.8113948  31.2707557  19.8872588  32.8340484  31.7332036
  19.7648605  33.5452169  31.4277334  22.8883256  38.3102909  25.3254019
  22.3606274  38.3931653  24.6359728  23.3478964  39.0520780  25.3218664
  22.8785106  38.4323571  25.2228714  15.4589822  34.4147858  33.0356942
  15.4988194  34.9157064  33.7491649  14.6339487  34.5058251  32.7662865
  15.3429348  34.5029674  33.1007480  16.8619435  36.0045045  23.1658978
  17.1835276  35.5248128  22.5118240  17.1246378  36.8144691  22.9749789
  16.9485460  36.0534943  23.0414470  20.6972813  31.8632339  28.9373034
  20.0541130  31.7129985  29.5058172  20.3572220  31.6174684  28.1722138
  20.5517890  31.8044462  28.9076049  19.9230546  37.9453169  24.6649641
  19.3295385  38.2670166  24.1134208  19.9605824  37.0994265  24.4570748
  19.8404935  37.8677497  24.5532413  22.7988362  37.9032674  28.0951392
  22.5702055  37.9265375  27.2529750  23.0586439  37.0790141  28.2146402
  22.8034550  37.7848754  27.9876589  15.8533125  36.4409220  29.3905587
  16.3290491  36.8026300  28.7555768  15.3521725  37.0965688  29.6705730
  15.8498484  36.5903409  29.3382328  17.8878949  34.8111948  25.4406603
  18.7094643  34.9810261  25.1988298  17.4248600  34.9659209  24.7172900
  17.9410111  34.8593681  25.2978247  16.3247919   2.3909438  14.2089000
  16.2941923   3.2454075  14.3807270  16.9229268   2.0904731  14.7675144
  16.4085077   2.4725935  14.3163802   9.5247604   1.4785089  18.9641931
   8.6685499   1.6393588  19.0151047   9.5715257   0.6077153  18.9846992
   9.4046715   1.3735891  18.9747997   3.9088743  11.0147807  14.7279162
   3.1571643  10.6363346  14.4995207   4.3574755  11.0466241  13.9797972
   3.8638410  10.9633414  14.5836664  12.8341320   7.7471615  28.5702387
  13.5408087   7.2523646  28.6989321  13.0229256   8.1880697  27.8405045
  12.9669226   7.7389965  28.4811432   9.3613703  11.4373177  10.1564709
   9.0265072  12.1150098   9.7208931   9.8740574  11.0478488   9.5681581
   9.3879284  11.4797755  10.0051501   8.9017994  13.3887445  16.0975821
   9.2857374  13.9574344  15.5580596   8.8377136  12.6636956  15.6181637
   8.9491422  13.3662909  15.9469683  12.3699425   3.5377133  21.6073582
  12.9155385   4.2162220  21.6667552  12.3116301   3.3964594  20.7475164
  12.4415339   3.6169135  21.4885643   5.4873499  11.0266199  16.9941935
   5.5883862  10.2166553  17.3039062   4.8915245  10.9323146  16.3641613
   5.4146038  10.8931228  16.9468173  14.1464493   4.9661740  12.4807310
  14.0304019   5.7169427  12.9099448  14.9420380   4.7085694  12.7303397
  14.2469083   5.0396587  12.5811402   5.3274239  15.9443789  18.3956791
   5.9711695  16.3856953  18.7852949   5.6530495  15.1397215  18.3087049
   5.4706068  15.8908983  18.4402268   6.0294819   8.9555763  13.7676652
   6.3510660   9.4960971  13.1637960   6.6766915   8.3852535  13.8998942
   6.1720874   8.9514939  13.6983688   8.0796527   0.9571758  13.8511039
   8.7776692   1.1359886  14.3432502   8.3948859   0.4342098  13.2281428
   8.2291864   0.9065531  13.8313049   8.2684462   7.3442203  13.8390831
   8.7078098   6.7359304  14.2845603   8.1189125   6.9649577  13.0676296
   8.3105928   7.1980675  13.7909998   5.7356105   5.9386215  21.0409656
   6.3805108   5.4458658  20.7220605   5.9757882   6.0811002  21.8675734
   5.8666690   5.8863657  21.1159189   8.2742197   8.7841121  20.6916549
   8.5565439   7.9892527  20.4703304   9.0028357   9.2621709  20.7121610
   8.4231760   8.7375718  20.6619564  11.8693799   5.6969385  10.7921600
  11.7845094   6.5530351  10.9371169  12.3578182   5.4213709  11.4603759
  11.9282696   5.7826706  10.9123681  12.8012232   2.3154179  12.2919335
  12.2723703   2.5313812  12.9516641  13.3237252   3.0090317  12.2120304
  12.8000685   2.4497316  12.3774934  18.2560285   7.8900483  17.6652379
  17.4257988   8.1011127  17.8285796  18.2069537   7.0637538  17.3894663
  18.1267020   7.7990090  17.6489745   4.6911840   6.2117396  11.0926803
   4.1069055   6.7167427  11.4992667   4.2881935   5.9859783  10.3523395
   4.5451144   6.2525644  11.0431828   6.3170023  10.7204337  20.5000289
   5.7996964  10.3611752  19.8961597   7.0144414  10.1966512  20.5106355
   6.3435604  10.5902025  20.4130548   9.9733614  11.1699152  26.4616462
  10.0616960  10.9825292  27.3094672  10.4023327  10.5236581  26.0621309
  10.0495717  11.0462159  26.5288213   7.5404074  10.4530312  25.4434124
   6.9774909  10.0402921  25.9673785   8.3025098  10.3783217  25.8627267
   7.5698523  10.3807712  25.5827124   3.1000066  12.4428333  18.0470754
   3.8020645  11.9280322  18.1043511   3.0197549  12.7702484  18.8517629
   3.1923826  12.4142559  18.1743546  17.7514243   0.5370884  21.4602801
  16.9142664   0.6073071  21.6950395  17.7202474   0.5395379  20.5877103
  17.6232526   0.5481111  21.3662349   2.4250841   8.6334685  17.5556362
   3.2639741   8.8657617  17.6030124   2.4562610   7.7638996  17.4863398
   2.5532559   8.5391631  17.5521007   3.0503544   9.0535560  21.8569668
   3.5901769   8.9106691  22.5273040   2.3673490   9.4532311  22.2253694
   3.0295698   9.0915231  22.0104090  12.4744429   4.7326560  17.0514692
  13.2301944   5.1658075  17.0903601  12.5806753   4.0831330  17.6249328
  12.6014600   4.7004044  17.1412718  15.5124600   8.5599838  17.8017095
  15.0759832   8.5636580  18.5576067  15.1787516   9.2405337  17.3696673
  15.3987220   8.6612294  17.8497928  10.0853674  10.6008171  29.1260246
  10.8694090  10.7139018  29.4915988   9.8850268   9.7749308  29.3218931
  10.1719699  10.4954890  29.2094632  10.2424067  12.5118273  22.7726701
   9.4439313  12.2717773  23.0300570  10.6910079  12.5632666  23.5193749
  10.1898678  12.4840664  22.9211625  18.6468946   5.2780758  16.6936732
  19.3085380   4.7171426  16.5932641  18.0060358   4.7832788  17.0189424
  18.6497814   5.1217167  16.7269073   9.5345754   8.5750889   9.0017656
   9.9496903   8.2435913   8.3102151   8.7037684   8.3419791   8.8737792
   9.4733763   8.4922145   8.8808503  14.9333777   6.2946140  16.4348721
  15.1689366   6.4391339  15.6075572  15.0823341   7.0588548  16.8280235
  14.9899580   6.4285194  16.3712325  16.7624234   5.1347806  14.2718325
  17.0932451   5.6675446  13.6658420  17.3357322   5.1886694  14.9280276
  16.8957913   5.2217375  14.2796107  11.9756123   2.9812709  14.9541905
  12.0702977   3.7202003  15.4081531  11.3514966   2.5530184  15.3876470
  11.8965153   3.0274029  15.0850053  10.2308597   6.1598921  25.6032186
  10.8047458   5.5226166  25.7580750  10.1523400   6.1603004  24.7341844
  10.3041832   6.0664033  25.4978597  12.2279144   4.8261448   8.1878857
  12.1459307   4.8963636   9.0533844  12.8658865   5.3891192   7.9962598
  12.3098982   4.9200420   8.2868807   5.5872315   4.5922186  17.6553383
   5.3291560   3.7593921  17.6284683   5.6420798   4.8179799  16.8145884
   5.5572093   4.5019958  17.5273520  17.8703585   0.3758303  15.7758487
  17.6140150  -0.4361756  15.5856369  18.7132899   0.3835870  15.5488674
  17.9569611   0.2570300  15.7143304   9.3319254   4.8481903  11.1987464
  10.1459893   5.1396796  11.0870235   9.2678396   4.1941765  10.6245757
   9.4421993   4.7947098  11.0976301  15.5528745   7.5307899  25.6117039
  15.3167382   6.6995964  25.4929100  16.1971974   7.4793506  26.1971883
  15.6123415   7.4005587  25.6802933   5.2027163   8.3203420  16.3259776
   5.8401110   8.0815168  16.8711569   5.6282234   8.5240579  15.5912936
   5.3603329   8.3154430  16.2976933   5.8429978   3.5405710  10.6634665
   6.2275130   3.3213417  11.4151210   5.5941598   4.3668655  10.7935741
   5.8632050   3.6303856  10.7935741  16.5765165   7.3152348  21.6745334
  16.2710982   8.0480405  22.0358649  15.8571381   6.9090277  21.3938120
  16.4252508   7.3634081  21.6858471   7.5848635   8.7975843  18.0053562
   7.6587643   8.6351015  18.8595412   8.4018141   8.9866032  17.7614044
   7.7164993   8.8012585  18.0951588  22.2766957   3.9545348  21.0013678
  22.2091458   3.9741307  20.1316265  22.2622620   4.7975676  21.2269349
  22.2645714   4.0819083  20.9066155   6.1253220  11.7610586  12.7367035
   6.4151519  11.3699567  12.0126262   6.8556701  11.9427291  13.1772311
   6.2760105  11.7304400  12.6949842  20.0625575   2.7289735  19.2760272
  20.6133496   2.0957804  19.5157364  20.0469690   3.2605127  19.9675777
  20.1410771   2.7138683  19.4139131   6.7147966   6.5628332  23.8220166
   6.2159659   7.2744100  23.9005054   7.5248190   6.8828998  23.7838328
   6.7604072   6.7155180  23.8276734   4.0659136  13.7377968  15.8027185
   3.8459431  13.4475323  16.5953852   3.8453658  13.0792923  15.2745097
   4.0006730  13.5977677  15.8416094   2.9776083   5.8251285  18.0682887
   2.6889332   5.1988756  18.6028614   3.8459431   5.7671572  18.1347567
   3.0636335   5.7238829  18.1573841  13.7653981   0.9686068  18.3864869
  13.4218747   0.2476403  18.7372118  13.8647023   0.7599919  17.5443227
  13.7296024   0.8310271  18.3136549   6.2327092  15.1107358  14.5857877
   6.8851150  14.5783801  14.8148903   5.5352700  14.7576011  14.9725751
   6.2257810  14.9796881  14.6770045   3.1808357   7.4646536  13.9925252
   3.9354325   7.8459575  14.2060714   2.5878969   7.9157680  14.4471948
   3.2045070   7.5875363  14.0908130  14.2267010   7.4311772  13.9288857
  14.7925043   8.0904982  13.8447400  13.5794913   7.7761470  14.4005259
  14.2145766   7.5793714  13.9861613   4.5006583   8.6355097  19.3665367
   3.9787337   8.7755389  20.0517232   4.8880603   7.8765762  19.5567484
   4.4810284   8.5440621  19.4966444  10.6973588  10.3750556  13.3525936
  10.4560264   9.6418417  12.9453001  10.8774921  10.9237413  12.6992269
  10.6881212  10.3472948  13.1956159   5.9272909   5.6659116  14.7646858
   5.7315691   6.2733851  14.1707161   6.1507254   4.9727060  14.2838532
   5.9307550   5.6536642  14.6062939  12.2844946  -1.1122347  20.2624411
  11.4456047  -1.0861068  20.0262675  12.3549314  -0.4651612  20.8429758
  12.1713340  -1.0126221  20.3133528   1.9759055   4.9571927  23.9881866
   2.4880152   5.2356180  23.3390626   1.6895398   5.6961221  24.3544679
   2.0093919   5.1074280  23.9471744  16.1602470   4.0945640  17.5485653
  16.0736445   4.2501066  18.4020432  15.7052950   4.7383715  17.1745058
  16.0805727   4.2121395  17.6192760  10.0328286   1.4156387  16.1711213
   9.7863001   1.3352138  17.0048002  10.3613409   0.6309855  15.9773740
  10.0449530   1.2882652  16.2658736  13.9276335   8.1239746  19.9597994
  13.7890694   8.8220792  20.4646736  13.1476333   7.9688403  19.6034176
  13.7919562   8.2039913  19.9824268  12.2654420   4.4236122  26.2120376
  12.2602459   3.5515938  26.2162802  12.9715414   4.6224291  25.7389831
  12.3699424   4.3239996  26.1427411   5.9925314   4.1513105  25.5834196
   6.1368689   4.7314314  24.9477306   6.3400962   4.5289402  26.2884050
   6.0652775   4.2933809  25.5933191   8.1645231   3.3503274  23.3659327
   7.4168545   3.5434288  22.9607605   8.3186756   2.5248493  23.1283449
   8.0767658   3.2568385  23.2704733   5.0653068  12.3415877  22.4495223
   5.2142632  11.7818793  21.7968627   5.8453071  12.4207879  22.8327741
   5.2027162  12.2701443  22.4092172  15.4229708   7.4818000  10.7214493
  15.0436517   6.6955138  10.7143783  14.7595953   8.0304857  10.5786137
  15.2688183   7.4462824  10.6995290   7.5906369  12.5130520  23.7279713
   7.5150040  11.8439331  24.2830502   7.5196228  13.2148308  24.2420380
   7.5686976  12.5175427  23.8856562   8.2476616  11.0331519  14.5603319
   9.0126507  10.7641163  14.2385984   8.1454706  10.5481529  15.2773382
   8.3458112  10.9221084  14.6183147  11.6673072   6.8698359  18.8256001
  10.9918074   6.6383591  19.3269388  11.6765448   6.2619542  18.1998106
  11.5691577   6.7457284  18.8072153   8.7967216   1.7116188  25.5820054
   8.7326357   2.5726144  25.4540191   8.9364404   1.3948181  24.7815605
   8.8082686   1.7916354  25.4448267  13.6689807   9.7263491  11.0566179
  13.7509644  10.5330477  10.7327630  14.1539549   9.7459450  11.7806953
  13.7526965   9.8484153  11.1153078   7.4786310   4.4048327  19.7236257
   7.0548559   4.6052826  18.9875275   7.3031165   3.5577175  19.8360557
   7.3897191   4.3097108  19.6309947   6.9798003  15.9198840  22.1857714
   7.4693934  15.2209629  22.0033379   6.4082236  15.6222710  22.7733772
   6.9682533  15.7725064  22.2458755   2.7668755   4.9000378  15.1564229
   2.9233374   4.8347181  16.0120222   3.1069348   5.6748931  14.9442909
   2.8401990   5.0049576  15.2518824   9.3047900   4.2758262  14.0257593
   9.8463445   3.7728643  14.4896213   9.6194459   4.2223457  13.2147078
   9.4312297   4.1937683  13.9741405  13.1765007   8.4860909  31.1384505
  13.9899872   8.2146058  31.2989637  13.0159973   8.1868449  30.3344701
  13.2734955   8.4015835  31.0429911   7.4734349   9.6675613  11.3097621
   7.5427170   8.8090152  11.4490621   8.2522804   9.8847494  10.9816645
   7.5987199   9.5728477  11.2814778  11.8641837  12.0913315  15.5234114
  11.4721629  11.7880030  14.8056980  12.0194909  12.9282405  15.3339068
  11.8295427  12.1697151  15.3890611  12.6176257   0.7783632  25.0163200
  11.8052939   0.4709522  25.0976373  13.0766192   0.2982632  25.5805912
  12.5656642   0.6620124  25.1117794  12.0281512   8.6563304  15.4640145
  11.6696166   8.8277946  16.2404177  11.5420222   9.1176509  14.9068143
  11.9040209   8.7502275  15.4965414  13.1886251   9.5467200  26.4107345
  13.8265971   9.0527395  26.0769802  12.5460343   9.4744600  25.8259572
  13.1880477   9.4626208  26.2749700  14.9143251   1.3956345  20.9773261
  14.4870859   1.3082694  20.2221361  14.2769304   1.5034121  21.5628105
  14.7572858   1.3989005  20.9518703  13.2440508  10.2387008  23.0512702
  14.0332886   9.8876073  23.1714784  13.4184105  11.0523396  22.7889336
  13.3860789  10.3072865  23.0300570   4.8568834   8.7926853  24.0610186
   4.7489189   8.8028916  24.9272244   5.0664615   9.6181634  23.8715140
   4.8718945   8.9167928  24.1614278   2.8742626   6.0439496  21.5232124
   2.2830559   6.6848994  21.4935139   3.6363649   6.4677113  21.4963423
   2.8990886   6.2015334  21.5147271  18.9933047   5.8745266  22.5209402
  19.0516171   6.3231914  23.2669379  18.3599515   6.2844078  22.0839482
  18.9084343   6.0019000  22.5661951  12.6332142  11.4948807  18.9564148
  12.4351831  11.9839622  18.2620360  12.0119853  11.6990049  19.5348282
  12.5119707  11.5965346  18.9387372   6.6940120   3.2633704  13.2974393
   7.4382165   3.6507981  13.5357343   6.8400817   2.4191130  13.4614881
   6.8250706   3.1964177  13.3568362  15.9454727   3.8961553  20.6075093
  15.7052950   3.0567968  20.6117519  16.4246734   3.9761720  21.3315866
  15.9806911   3.7842953  20.7149895  11.6101496  -0.2704268  12.2594066
  11.0824515  -0.1875524  11.5699775  12.0697204   0.4713604  12.2558711
  11.6003346  -0.1483605  12.1568761  17.9459914   0.6763010  18.5604352
  17.7069684   0.6358845  17.7225136  18.1093815   1.5234162  18.6870073
  17.9350217   0.7955095  18.4557834  14.5505944   5.0612960  24.4909397
  15.2740143   4.6085486  24.3120417  14.2855906   5.3417625  23.7081725
  14.6187217   5.0363928  24.3488112  11.1638578   8.2999296  11.3903723
  11.8872777   8.7657409  11.2468296  10.7239169   8.3672905  10.6401320
  11.2054271   8.3783132  11.2588504  10.3324734   5.1596838  22.6404412
   9.7181727   4.6154888  22.9353047  10.8492018   4.6461074  22.1610228
  10.3180396   5.0033247  22.6128640   9.5721031   6.2301108  20.3748711
   9.1448639   5.6050827  19.9414146   9.5645975   5.9476030  21.2007718
   9.5080172   6.0953889  20.4328538  16.9841258   4.0239371  22.9939947
  17.5759098   4.6636621  23.0258145  17.4200253   3.3262407  23.2832013
  17.1359689   4.0157721  23.0420779   8.8134648   8.4456743  23.6197840
   8.3059739   8.9992590  24.0638471   8.5161294   8.5065033  22.8016615
   8.6939533   8.5363054  23.5646297  11.4242428  12.3620001  11.5501784
  10.7071738  12.1880863  11.0849021  12.0749166  12.1272573  11.0177270
  11.4144279  12.3015793  11.4031002  14.0090399   1.2384589  15.2943089
  13.3381589   1.7814291  15.1656155  14.7030150   1.7079445  15.0524784
  14.0119267   1.3882860  15.2398617   8.0577133  13.3781301  20.5254847
   7.8342788  12.6200130  20.8938874   7.5686976  13.4079322  19.8035287
   7.9520582  13.2703526  20.4731588  12.1701793   0.9575841  22.1518305
  12.1499720   0.7759137  23.0053083  12.2180993   1.8287860  22.1277888
  12.1736434   1.0592380  22.2741599  10.1148122   7.5463033  28.0766781
  10.0743977   6.9012710  27.4911937  10.9271441   7.4899651  28.3892193
  10.2291276   7.4422000  28.0363730   6.7055590  13.5981759  17.9791932
   6.2915989  12.9355890  17.5895774   7.3902964  13.7459618  17.4587626
   6.7453962  13.5222417  17.8448429  10.0720884  12.7571845  18.7315549
   9.6737167  12.8674115  17.9636369   9.4572104  12.9653911  19.3142108
   9.9219773  12.8045413  18.7046848  11.5206603  -0.6774503  15.0291438
  11.2920296  -0.6541802  14.1869797  11.7804679  -1.5017036  15.1486449
  11.5252791  -0.7958423  14.9216636  17.8062727   7.3323811  12.1158639
  18.1896333   8.0815167  12.3456736  17.0106840   7.5789631  11.8570628
  17.7456509   7.4793505  12.1116213  14.2463309  -1.6874566  15.2794597
  14.2457535  -1.8425909  16.1378873  14.0419489  -0.8411579  15.2235982
  14.2163087  -1.5853945  15.3982536  11.9704161   2.9922936  18.9330804
  12.4657826   2.2745931  18.8934824  11.1603937   2.6893734  18.8185291
  11.9248054   2.8420582  18.9104530   7.4162773   6.8420749  11.0827808
   6.6074095   6.5187423  11.0361118   7.9237681   6.1353971  11.0156057
   7.3712439   6.6902066  11.0658103  14.0355980   5.7426624  21.6207932
  14.4611051   5.2201045  21.0678357  13.6712900   6.3407461  21.0996555
  14.0442582   5.7536851  21.4616942   3.6710060  14.0390841  20.3805278
   3.9856619  14.8527229  20.3883060   4.0803473  13.6541060  21.0487437
   3.7778158  14.1019543  20.4809370  10.6234579   9.4560888  17.9509090
  11.0945758  10.1701150  18.1199075  10.9594758   8.8559638  18.4868959
  10.7429694   9.4732352  18.0541466  12.7111564  11.0662201  30.1301162
  12.8208529  10.2770762  30.4857909  13.0402461  10.9768137  29.3275500
  12.7763970  10.9368054  30.0643553  11.2608526   9.2478822  24.7136783
  10.7129472   8.6236706  24.4456848  11.7221554   9.4373094  23.9980862
  11.2475735   9.1837872  24.5687214   1.0123080   7.9863949  20.0283886
   1.6167937   7.9459784  19.3997707   0.8050392   8.8335101  20.0587942
   1.0711977   8.1051952  19.9400003  10.8266852  10.2529895  21.2446124
  11.6465226  10.1092861  21.5062419  10.5460930  10.8776093  21.7862562
  10.9063595  10.3240247  21.3634063  27.2980502  17.9094746  14.2089000
  27.2674507  18.7639383  14.3807270  27.8961851  17.6090039  14.7675144
  27.3817660  17.9911243  14.3163802  14.8821327  26.5333115  14.7279162
  14.1304226  26.1548654  14.4995207  15.3307339  26.5651549  13.9797972
  14.8370994  26.4818722  14.5836664  23.8073904  23.2656923  28.5702387
  24.5140671  22.7708954  28.6989321  23.9961839  23.7066004  27.8405045
  23.9401809  23.2575273  28.4811432  20.3346287  26.9558485  10.1564709
  19.9997655  27.6335406   9.7208931  20.8473157  26.5663796   9.5681581
  20.3611868  26.9983063  10.0051501  19.8750578  28.9072753  16.0975821
  20.2589957  29.4759652  15.5580596  19.8109719  28.1822264  15.6181637
  19.9224005  28.8848217  15.9469683  16.4606083  26.5451507  16.9941935
  16.5616446  25.7351861  17.3039062  15.8647828  26.4508454  16.3641613
  16.3878622  26.4116535  16.9468173  25.1197077  20.4847048  12.4807310
  25.0036603  21.2354734  12.9099448  25.9152964  20.2271002  12.7303397
  25.2201666  20.5581895  12.5811402  16.3006823  31.4629097  18.3956791
  16.9444278  31.9042261  18.7852949  16.6263078  30.6582523  18.3087049
  16.4438651  31.4094291  18.4402268   9.6571127  22.5671794  16.6194268
   9.4221312  21.7339446  16.5126537   9.7956768  22.8476460  15.8055469
   9.6426790  22.4855297  16.4836623  11.9561215  14.7357525  19.5178576
  11.3366246  14.1450172  19.3488591  11.8545078  15.3268960  18.8842899
  11.8498890  14.7361607  19.3983566  17.0027402  24.4741071  13.7676652
  17.3243243  25.0146279  13.1637960  17.6499499  23.9037843  13.8998942
  17.1453458  24.4700247  13.6983688  11.6830348  18.2809806  21.7622145
  11.5589045  18.8672252  22.3971964  12.3348632  17.7870002  22.0634420
  11.7603997  18.2948611  21.9008074  19.2474780  24.3026429  20.6916549
  19.5298023  23.5077835  20.4703304  19.9760941  24.7807016  20.7121610
  19.3964344  24.2561026  20.6619564  17.2255974  11.8449463  17.9332314
  16.8959304  12.2960607  17.2636012  16.5500976  11.7665626  18.4805320
  17.0766410  11.9000598  17.9155537  22.8426382  21.2154693  10.7921600
  22.7577677  22.0715659  10.9371169  23.3310766  20.9399017  11.4603759
  22.9015280  21.3012014  10.9123681  24.4332382   7.8334986  16.1781924
  24.1185823   8.5238464  16.6102347  23.9159323   7.7779768  15.4767425
  24.3096852   7.9269874  16.1378873  23.7744816  17.8339487  12.2919335
  23.2456287  18.0499120  12.9516641  24.2969836  18.5275625  12.2120304
  23.7733269  17.9682624  12.3774934  29.2292869  23.4085791  17.6652379
  28.3990572  23.6196435  17.8285796  29.1802121  22.5822846  17.3894663
  29.0999604  23.3175398  17.6489745  15.6644423  21.7302704  11.0926803
  15.0801639  22.2352735  11.4992667  15.2614519  21.5045090  10.3523395
  15.5183727  21.7710952  11.0431828  11.2188452  27.4457465  17.8950474
  10.7356030  28.1707954  17.8710058  12.0311770  27.7433595  18.0060632
  11.2679200  27.5959818  17.9077754  17.2902606  26.2389645  20.5000289
  16.7729548  25.8797060  19.8961597  17.9876997  25.7151820  20.5106355
  17.3168187  26.1087333  20.4130548  20.9466198  26.6884459  26.4616462
  21.0349544  26.5010600  27.3094672  21.3755911  26.0421889  26.0621309
  21.0228300  26.5647467  26.5288213  18.5136658  25.9715619  25.4434124
  17.9507493  25.5588229  25.9673785  19.2757681  25.8968525  25.8627267
  18.5431106  25.8993020  25.5827124  20.1221638  17.9768356   9.5695723
  20.3617642  18.1846339   8.7571067  20.4437479  17.1725864   9.6784668
  20.2058796  17.8882457   9.4656277  15.4311928   9.9061751  13.4155261
  16.1857896  10.2740068  13.1772312  15.2539463  10.2801306  14.1834441
  15.5166406  10.0159939  13.4940150  14.0732649  27.9613641  18.0470754
  14.7753229  27.4465630  18.1043511  13.9930132  28.2887792  18.8517629
  14.1656410  27.9327867  18.1743546  28.7246827  16.0556192  21.4602801
  27.8875248  16.1258379  21.6950395  28.6935058  16.0580687  20.5877103
  28.5965109  16.0666419  21.3662349  15.1211556  18.1989228  27.1751169
  15.2932060  18.0895122  28.0236451  15.6580913  18.8443633  26.9382362
  15.2256560  18.2781229  27.2656266  13.7868993  12.3132070  10.1133374
  13.6044566  12.5303951   9.2874367  14.6494606  12.4271083  10.1691989
  13.8873582  12.3621968   9.9987861  13.3983425  24.1519993  17.5556362
  14.2372324  24.3842925  17.6030124  13.4295194  23.2824304  17.4863398
  13.5265142  24.0576939  17.5521007  14.0236128  24.5720868  21.8569668
  14.5634353  24.4291999  22.5273040  13.3406074  24.9717619  22.2253694
  14.0028282  24.6100539  22.0104090  19.4668712   9.3158481  13.1482398
  20.1954872   9.1374436  12.7020554  19.5563605  10.1576561  13.3589576
  19.5875374   9.4142359  13.1135916  26.4857184  24.0785146  17.8017095
  26.0492416  24.0821888  18.5576067  26.1520099  24.7590645  17.3696673
  26.3719804  24.1797601  17.8497928  21.0586257  26.1193479  29.1260246
  21.8426674  26.2324326  29.4915988  20.8582852  25.2934616  29.3218931
  21.1452283  26.0140198  29.2094632   9.4273273  20.7921159  22.0104089
   9.1611688  19.9760275  22.1695080   9.4411837  20.8374314  21.1399605
   9.3897995  20.6778063  21.9057571  26.4054667  11.1198973  20.0446523
  27.0480575  11.1897078  20.6308438  26.6577687  10.4528196  19.5426065
  26.5376799  11.0325322  20.0573802  13.3331020  15.5906243   8.6255847
  12.6189197  15.3044423   9.0378280  13.8174988  15.9302869   9.2662235
  13.2990383  15.5987893   8.7811482  14.1771879  14.3299537  24.6571097
  13.4843676  13.8596517  24.9031829  14.7932206  14.1037841  25.2312804
  14.1656409  14.2266669  24.7780250  21.2156651  28.0303581  22.7726701
  20.4171896  27.7903081  23.0300570  21.6642662  28.0817973  23.5193749
  21.1631262  28.0025972  22.9211625  29.6201530  20.7966066  16.6936732
  30.2817964  20.2356734  16.5932641  28.9792942  20.3018096  17.0189424
  29.6230397  20.6402475  16.7269073  20.5078338  24.0936197   9.0017656
  20.9229486  23.7621221   8.3102151  19.6770267  23.8605099   8.8737792
  20.4466346  24.0107453   8.8808503   9.8366686  21.5779938  19.2915834
   9.6542260  21.5526824  18.4388126  10.5716355  22.0478876  19.3304742
   9.9180750  21.6441300  19.1713752  25.9066361  21.8131448  16.4348721
  26.1421950  21.9576647  15.6075572  26.0555924  22.5773856  16.8280235
  25.9632164  21.9470502  16.3712325  12.9012438  18.2964941  25.7997942
  13.6252410  18.2817972  26.2862837  13.0028575  19.0060296  25.3019910
  13.0230647  18.3989644  25.7976729  27.7356817  20.6533114  14.2718325
  28.0665034  21.1860754  13.6658420  28.3089905  20.7072002  14.9280276
  27.8690496  20.7402683  14.2796107  20.2757388  21.7764025  30.6646889
  19.4830368  22.0907537  30.8499509  20.3906315  21.9915494  29.8267674
  20.1752798  21.8547862  30.5685224  22.9488706  18.4998017  14.9541905
  23.0435561  19.2387311  15.4081531  22.3247550  18.0715492  15.3876470
  22.8697737  18.5459337  15.0850053  21.2041180  21.6784229  25.6032186
  21.7780042  21.0411473  25.7580750  21.1255984  21.6788312  24.7341844
  21.2774415  21.5849341  25.4978597   9.8037597  18.4573439  19.4414900
  10.3811099  18.3209889  20.0807146   9.1051658  18.0009223  19.6960485
   9.7858618  18.3695705  19.5737190  23.2011728  20.3446756   8.1878857
  23.1191890  20.4148944   9.0533844  23.8391448  20.9076500   7.9962598
  23.2831565  20.4385727   8.2868807  21.6405949  12.2135945  17.7557476
  20.9362276  11.7245131  17.9141395  21.6890923  12.2258419  16.8845921
  21.5436001  12.1425593  17.6496816  19.2012900  16.1368606  23.0010657
  18.8127333  15.7122824  22.3462848  18.5367598  16.3850756  23.5087683
  19.0459828  16.1107327  22.9798525  28.8436169  15.8943611  15.7758487
  28.5872734  15.0823552  15.5856369  29.6865483  15.9021178  15.5488674
  28.9302194  15.7755608  15.7143304   5.2796430  17.3085332  16.1562719
   5.3656682  16.9317200  16.9376249   5.9072227  16.9345777  15.6782677
   5.3852981  17.1970814  16.2008196  23.0239261   9.8343235  20.5134641
  23.4049773   9.1521406  20.9002515  22.2202546   9.5452837  20.3310305
  22.9615723   9.6910283  20.5438697  26.5261328  23.0493207  25.6117039
  26.2899966  22.2181272  25.4929100  27.1704557  22.9978814  26.1971883
  26.5855999  22.9190895  25.6802933  16.1759746  23.8388728  16.3259776
  16.8133693  23.6000476  16.8711569  16.6014818  24.0425887  15.5912936
  16.3335913  23.8339738  16.2976933  10.8672389  26.0777065  20.2094079
  10.9076534  26.3491916  19.3813859  11.4266913  26.6018973  20.6251867
  10.9555735  26.1952820  20.1485968  16.9831102  12.3397433  30.3797249
  16.6684543  13.1096996  30.1166812  16.6621034  11.7767689  29.7949476
  16.8890021  12.3707702  30.2538599  27.5497749  22.8337656  21.6745334
  27.2443566  23.5665712  22.0358649  26.8303964  22.4275585  21.3938120
  27.3985091  22.8819389  21.6858471  18.5581218  24.3161151  18.0053562
  18.6320226  24.1536323  18.8595412  19.3750725  24.5051340  17.7614044
  18.6897577  24.3197893  18.0951588  33.2499541  19.4730656  21.0013678
  33.1824041  19.4926615  20.1316265  33.2355203  20.3160983  21.2269349
  33.2378297  19.6004391  20.9066155  12.3186975  24.6619014  15.0348005
  11.4925093  24.9080751  14.9082284  12.3798966  24.5831094  15.9010063
  12.2061142  24.6863963  15.1436950  14.5362999  10.7287955  15.9943446
  13.6685424  10.8010554  16.0601055  14.8238203  11.5310034  16.1831421
  14.4502747  10.8582102  16.0318212  23.6595887  10.8765814  24.3254767
  24.4049479  10.6875624  23.9118193  23.2433192  11.4024052  23.7668624
  23.7080862  10.9267959  24.1819341  17.0985804  27.2795894  12.7367035
  17.3884102  26.8884875  12.0126262  17.8289285  27.4612599  13.1772311
  17.2492688  27.2489708  12.6949842  31.0358158  18.2475042  19.2760272
  31.5866080  17.6143112  19.5157364  31.0202274  18.7790435  19.9675777
  31.1143355  18.2323991  19.4139131  15.0391720  29.2563276  15.8027185
  14.8192015  28.9660631  16.5953852  14.8186242  28.5978231  15.2745097
  14.9739314  29.1162985  15.8416094  13.9508667  21.3436593  18.0682887
  13.6621915  20.7174064  18.6028614  14.8192015  21.2856880  18.1347567
  14.0368919  21.2424137  18.1573841  17.2059675  30.6292666  14.5857877
  17.8583733  30.0969108  14.8148903  16.5085284  30.2761318  14.9725751
  17.1990393  30.4982189  14.6770045  14.1540940  22.9831844  13.9925252
  14.9086908  23.3644883  14.2060714  13.5611553  23.4342987  14.4471948
  14.1777654  23.1060671  14.0908130  25.1999594  22.9497080  13.9288857
  25.7657626  23.6090290  13.8447400  24.5527497  23.2946778  14.4005259
  25.1878350  23.0979022  13.9861613  16.6147607  14.9394684  29.1182464
  15.8047383  15.2452464  29.0072306  17.0922294  15.6600266  29.2335048
  16.5651086  15.0909285  29.1189535  15.4739167  24.1540405  19.3665367
  14.9519920  24.2940697  20.0517232  15.8613187  23.3951069  19.5567484
  15.4542868  24.0625929  19.4966444  12.4630351  14.2046214  13.4360322
  12.1755146  13.8347484  12.6992269  13.1500819  14.6741069  13.1744027
  12.5219248  14.2193183  13.2875398  21.6706172  25.8935864  13.3525936
  21.4292848  25.1603725  12.9453001  21.8507505  26.4422721  12.6992269
  21.6613796  25.8658256  13.1956159  12.9491639  20.4757234  23.9881866
  13.4612736  20.7541488  23.3390626  12.6627982  21.2146529  24.3544679
  12.9826502  20.6259588  23.9471744  21.7046808  11.3048338  14.9952027
  22.4073161  11.1056086  14.5171986  21.4390997  10.5324280  15.3020871
  21.7693440  11.1611304  14.9697469  27.1335054  19.6130948  17.5485653
  27.0469028  19.7686374  18.4020432  26.6785534  20.2569023  17.1745058
  27.0538310  19.7306703  17.6192760  10.0358545  14.9827426  14.2845603
  10.1374682  15.7853588  14.6126578  10.8314432  14.7814762  13.9868683
  10.1686451  15.0713325  14.2880958  16.4675364  12.5683623  24.0482908
  16.2758561  12.5838758  24.8982332  17.3173960  12.7647297  24.0249563
  16.5651086  12.5997974  24.1706203  10.8522277  15.0974605  22.0266724
  10.7107769  14.2458545  22.1511232  11.1362841  15.1403265  21.2028930
  10.8730124  14.9774355  21.9234349  24.9008919  23.6425054  19.9597994
  24.7623278  24.3406100  20.4646736  24.1208917  23.4873711  19.6034176
  24.7652145  23.7225221  19.9824268  23.2387004  19.9421429  26.2120376
  23.2335042  19.0701246  26.2162802  23.9447998  20.1409599  25.7389831
  23.3432008  19.8425304  26.1427411  16.9657897  19.6698413  25.5834196
  17.1101273  20.2499622  24.9477306  17.3133546  20.0474710  26.2884050
  17.0385358  19.8119117  25.5933191  16.0385652  27.8601185  22.4495223
  16.1875216  27.3004101  21.7968627  16.8185654  27.9393187  22.8327741
  16.1759746  27.7886751  22.4092172  26.3962291  23.0003308  10.7214493
  26.0169100  22.2140446  10.7143783  25.7328537  23.5490165  10.5786137
  26.2420766  22.9648132  10.6995290  18.5638953  28.0315828  23.7279713
  18.4882624  27.3624639  24.2830502  18.4928812  28.7333616  24.2420380
  18.5419560  28.0360735  23.8856562  19.3779591  12.7639132  24.2554731
  19.8352206  13.4963107  24.3827523  19.4535920  12.3405598  25.0141987
  19.4570561  12.8096371  24.3855808  11.6212583  13.0104952  25.3444175
  11.0854772  12.3985310  25.6604942  11.6830347  13.5853088  25.9977841
  11.5508215  13.0051880  25.4879602  23.8506917   5.9429008  18.1248574
  23.9690486   6.4005471  17.3915877  23.6769093   5.1374269  17.8384792
  23.8426088   5.8922780  17.9749508  19.2209200  26.5516827  14.5603319
  19.9859091  26.2826471  14.2385984  19.1187290  26.0666837  15.2773382
  19.3190695  26.4406392  14.6183147  17.2561969  14.7541236  21.0996555
  16.4658044  14.5732696  21.4213891  17.6522592  13.9768189  21.0826850
  17.1978846  14.6128697  21.1449104  21.7427860  23.5829011   6.5403269
  22.5100845  23.6429136   6.1309121  21.2959169  23.0109452   6.0559587
  21.7901287  23.5065586   6.4080979  22.6405656  22.3883667  18.8256001
  21.9650657  22.1568899  19.3269388  22.6498032  21.7804849  18.1998106
  22.5424160  22.2642592  18.8072153  19.7699800  17.2301496  25.5820054
  19.7058941  18.0911452  25.4540191  19.9096987  16.9133489  24.7815605
  19.7815270  17.3101662  25.4448267  24.6422390  25.2448799  11.0566179
  24.7242228  26.0515785  10.7327630  25.1272132  25.2644758  11.7806953
  24.7259548  25.3669461  11.1153078  17.9530587  31.4384148  22.1857714
  18.4426517  30.7394937  22.0033379  17.3814819  31.1408018  22.7733772
  17.9415117  31.2910371  22.2458755  13.7401339  20.4185686  15.1564229
  13.8965958  20.3532489  16.0120222  14.0801932  21.1934239  14.9442909
  13.8134573  20.5234884  15.2518824  24.1497591  24.0046217  31.1384505
  24.9632456  23.7331366  31.2989637  23.9892557  23.7053757  30.3344701
  24.2467539  23.9201143  31.0429911  18.4466933  25.1860921  11.3097621
  18.5159753  24.3275460  11.4490621  19.2255388  25.4032802  10.9816645
  18.5719783  25.0913785  11.2814778  21.4269753  14.6879874  24.0779893
  21.6411722  14.0490789  23.5243247  20.8103652  15.1325698  23.6487755
  21.3675082  14.6590018  23.9330324  22.8374420  27.6098623  15.5234114
  22.4454212  27.3065338  14.8056980  22.9927493  28.4467713  15.3339068
  22.8028010  27.6882459  15.3890611  10.3135600  17.6020637  15.4724997
  10.6934565  18.0205182  14.8085264   9.7390965  18.1834092  15.7793840
  10.2846925  17.7498496  15.4201738  23.5908841  16.2968940  25.0163200
  22.7785522  15.9894830  25.0976373  24.0498775  15.8167940  25.5805912
  23.5389225  16.1805432  25.1117794  23.0014095  24.1748612  15.4640145
  22.6428750  24.3463254  16.2404177  22.5152806  24.6361817  14.9068143
  22.8772792  24.2687583  15.4965414  20.8184481   7.7979810  19.0667236
  19.9478039   7.7718531  19.0200545  21.0724822   7.6257002  18.2493082
  20.7278041   7.7689954  18.9387373  17.7902461  19.8547777   8.0040379
  18.0794985  20.6312659   8.2783953  17.8774259  19.3436508   8.7054878
  17.8456717  19.8939695   8.1482877  20.6862348  17.7029011  29.7991903
  21.1561979  18.3271127  30.1859777  20.7324228  17.0345987  30.3585117
  20.7630224  17.6963691  29.9391974  17.8433622   9.8086038  20.5240706
  17.3272110   9.1166230  20.6492285  17.2827551  10.4756816  20.4703305
  17.6840135   9.8049296  20.5346772  19.9125855  10.3478998  22.3533559
  19.5257608  10.3728030  23.1347089  19.4258792   9.7820677  21.9008076
  19.7838364  10.2674749  22.4021463  24.1618835  25.0652507  26.4107345
  24.7998555  24.5712703  26.0769802  23.5192926  24.9929908  25.8259572
  24.1613061  24.9811516  26.2749700  19.5782997   7.2345984  24.6443819
  20.2076115   7.7706284  24.3664889  19.7468860   7.1423343  25.4957385
  19.6960791   7.3007346  24.7292347  19.3796912  12.0217179  26.9170230
  20.2070341  11.7502328  26.9728845  19.4004758  12.8178020  27.2734049
  19.5049762  12.0996933  26.9785413  24.2173091  25.7572316  23.0512702
  25.0065469  25.4061380  23.1714784  24.3916689  26.5708704  22.7889336
  24.3593373  25.8258173  23.0300570  13.9566402  19.1681041  20.1040491
  13.1154408  19.0684916  20.3119385  14.1656410  19.9376522  20.4554812
  13.8631094  19.2673085  20.1867806  11.4341969  16.7900578  17.9325242
  11.0398666  16.8643590  17.1575351  10.8782085  17.1758525  18.4833604
  11.2944781  16.8582353  17.8992902  23.0706915   9.7681872  17.6129121
  23.2756509   9.7004180  18.4586118  22.7433339  10.5740694  17.5450298
  23.0522163   9.8767813  17.7288776  16.8249164  14.4062960  13.9182790
  17.1008898  13.6881873  13.5060358  17.4247833  15.0047880  13.7103897
  16.9542428  14.3883331  13.8263552  15.8301417  24.3112161  24.0610186
  15.7221772  24.3214224  24.9272244  16.0397199  25.1366942  23.8715140
  15.8451529  24.4353236  24.1614278  26.3240603  10.3213637  17.0931886
  25.7114917  10.8084039  17.4785618  26.4204778   9.6457128  17.6369537
  26.2478501  10.2931945  17.2310744  20.3259684  12.0776478  12.1929385
  20.7803431  12.2487038  12.9177230  20.7999730  11.4644589  11.7927161
  20.4628004  12.0127363  12.2403147  13.8475209  21.5624804  21.5232124
  13.2563143  22.2034302  21.4935139  14.6096233  21.9862421  21.4963423
  13.8723470  21.7200642  21.5147271  14.2435832  12.7226802  22.1900142
  14.7037314  12.7965731  22.9275265  14.2891939  13.5208056  21.8399963
  14.3186388  12.8520949  22.2472898  15.8919182  13.3893496  26.7572169
  15.5004747  12.7426844  27.1927946  16.0605045  13.9804932  27.3766424
  15.8590092  13.3807764  26.9134875  29.9665631  21.3930573  22.5209402
  30.0248755  21.8417222  23.2669379  29.3332099  21.8029386  22.0839482
  29.8816926  21.5204308  22.5661951  23.6064726  27.0134115  18.9564148
  23.4084414  27.5024930  18.2620360  22.9852437  27.2175357  19.5348282
  23.4852290  27.1150654  18.9387372  19.5852279  10.5769271  18.3306254
  18.7388325  10.7492079  18.2047604  19.5823412   9.7718615  18.6672082
  19.4599429  10.4830300  18.3617381  11.0323610  16.3515992  24.5651858
  11.8949223  16.2511701  24.4789188  10.7015393  15.7710701  24.0037430
  11.1108806  16.2507619  24.4697264  26.9187310  19.4146861  20.6075093
  26.6785533  18.5753276  20.6117519  27.3979318  19.4947028  21.3315866
  26.9539494  19.3028261  20.7149895  22.5834080  15.2481040  12.2594066
  22.0557098  15.3309784  11.5699775  23.0429788  15.9898912  12.2558711
  22.5735930  15.3701702  12.1568761  28.9192497  16.1948318  18.5604352
  28.6802267  16.1544153  17.7225136  29.0826399  17.0419470  18.6870073
  28.9082801  16.3140403  18.4557834  25.5238528  20.5798268  24.4909397
  26.2472726  20.1270794  24.3120417  25.2588490  20.8602933  23.7081725
  25.5919801  20.5549236  24.3488112  14.3925396  15.1758441  21.2262276
  13.7678466  15.1876833  20.6188229  14.0570991  15.6518616  21.8753516
  14.2510888  15.2476958  21.2318845  14.5767145  13.5183560   7.2834961
  14.2279949  14.1703285   7.7466510  14.0963591  13.5040673   6.5558832
  14.4537389  13.6126613   7.2446052  11.1051072  23.2358901  22.6666040
  10.5750996  22.5451340  22.7161015  11.3776165  23.2269087  21.8378749
  11.0675794  23.1326033  22.5513456  22.1371162  23.8184604  11.3903723
  22.8605361  24.2842717  11.2468296  21.6971753  23.8858213  10.6401320
  22.1786854  23.8968440  11.2588504  13.6616141  16.7851589  23.4437144
  13.8209628  16.0294913  23.8488866  13.4809035  17.3342529  24.0977882
  13.6581500  16.7545403  23.5999850  21.6036444   8.9512825  23.9987934
  21.1077006   9.1476499  23.3079501  22.3605506   9.3505493  23.8276736
  21.6423269   9.0390558  23.8708071  18.8739324  12.6255170  20.5891245
  18.8981811  12.0915283  19.9004024  19.1250798  12.1172479  21.2516835
  18.9149243  12.4716074  20.5855889   6.3846914  19.9086665  20.0234389
   6.2790363  19.8633510  19.1586473   5.6347134  20.2540446  20.3048673
   6.2582517  19.9527574  19.9371718  15.1540646  11.3525989  19.9696989
  15.1939018  11.8535195  20.6831696  14.3290311  11.4436382  19.7002912
  15.0380172  11.4407805  20.0347527  17.3370259  20.9186729  28.0717283
  16.4865890  21.0558443  28.2074928  17.4998387  20.1850507  28.5164985
  17.2354123  20.8300830  28.1572883  14.3838793  11.3595391  27.9027299
  15.0091496  10.8157524  28.1756731  13.9289273  10.8790309  27.3335089
  14.4087053  11.2084873  27.8588892  14.9491053  16.1442090  12.7961006
  15.0894014  16.6414554  13.4989647  15.4473586  15.4428384  12.9375219
  15.0432134  16.1144069  12.9212585  14.9791276  17.0109201  10.1253582
  15.6136355  17.6069626  10.0603044  15.0616887  16.7112659  10.9399453
  15.0847827  17.0550109  10.2356669  27.9573842  19.5424679  22.9939947
  28.5491682  20.1821929  23.0258145  28.3932836  18.8447715  23.2832013
  28.1092273  19.5343029  23.0420779  16.5570259  12.9423177  10.0999024
  16.8786100  12.4626259   9.4458287  16.8197202  13.7522823   9.9089836
  16.6436284  12.9913074   9.9754516  19.7867231  23.9642051  23.6197840
  19.2792323  24.5177898  24.0638471  19.4893878  24.0250341  22.8016615
  19.6672116  24.0548362  23.5646297  21.9529414  12.3295371  22.4622503
  22.3784485  11.8767897  21.8506030  21.3386407  11.7755441  22.7387291
  21.9258059  12.1809347  22.4127529  11.4844264  19.2077042  13.3943128
  11.9936493  19.8041549  13.7754434  11.9578536  18.9403016  12.7119548
  11.6287639  19.2562857  13.3497651  22.3975012  27.8805309  11.5501784
  21.6804321  27.7066171  11.0849021  23.0481749  27.6457881  11.0177270
  22.3876862  27.8201101  11.4031002  20.3923636   8.8010470  15.8713080
  19.7491954   8.6508117  16.4398219  20.0523043   8.5552816  15.1062185
  20.2468714   8.7422593  15.8416096  24.9822983  16.7569897  15.2943089
  24.3114173  17.2999599  15.1656155  25.6762733  17.2264752  15.0524784
  24.9851850  16.9068168  15.2398617  19.0309717  28.8966609  20.5254847
  18.8075371  28.1385438  20.8938874  18.5419560  28.9264630  19.8035287
  18.9253166  28.7888834  20.4731588  25.1451110  13.2125781  18.2033462
  25.4978721  12.7855504  18.8779261  24.2865912  13.1276624  18.3334539
  25.0700555  13.1370521  18.3228473  13.8434795  15.8433300  16.2616309
  13.1246785  16.2597433  16.5289172  14.2147158  16.4087539  15.7107947
  13.7926727  15.9882582  16.2199116  21.0880706  23.0648341  28.0766781
  21.0476561  22.4198018  27.4911937  21.9004024  23.0084959  28.3892193
  21.2023860  22.9607308  28.0363730  17.6788174  29.1167067  17.9791932
  17.2648572  28.4541197  17.5895774  18.3635548  29.2644926  17.4587626
  17.7186545  29.0407725  17.8448429  21.0453468  28.2757153  18.7315549
  20.6469751  28.3859423  17.9636369  20.4304687  28.4839219  19.3142108
  20.8952357  28.3230721  18.7046848  19.6181370  14.8831300  11.5989688
  19.0246209  15.2048297  11.0474255  19.6556647  14.0372396  11.3910794
  19.5355759  14.8055629  11.4872460  26.5775171   8.3344193  19.1317775
  26.0706035   7.6273332  19.0638952  27.3742604   8.0037381  19.2618851
  26.6202410   8.1817344  19.1416770  22.4939186  14.8410805  15.0291438
  22.2652879  14.8643506  14.1869797  22.7537263  14.0168272  15.1486449
  22.4985374  14.7226885  14.9216636  16.7758415  16.6945278  24.6316539
  16.2637318  16.0866461  24.9901570  16.6037911  17.4101870  25.0990514
  16.6748052  16.7108577  24.7532762  11.6224130  15.1382853  27.2818900
  11.4526720  15.7984228  26.7367107  11.1790079  15.3489414  28.0031390
  11.5323463  15.2668835  27.3080530  15.5483949  13.3787351  16.3245634
  16.0241315  13.7404431  15.6895815  15.0472548  14.0343819  16.6045777
  15.5449308  13.5281540  16.2722375  28.7795310  22.8509119  12.1158639
  29.1628916  23.6000475  12.3456736  27.9839424  23.0974939  11.8570628
  28.7189093  22.9978813  12.1116213  20.6527485  14.6169523  27.0718794
  21.2098915  14.3883332  26.4397260  20.3288550  15.3775188  26.7954007
  20.6873895  14.6953359  26.9375291   8.5226194  18.0429719  22.5407390
   7.9752913  17.3730364  22.6588259   9.3118572  17.6759567  22.6050858
   8.5578378  17.8894705  22.5676091  18.3710602  17.7037176  28.0370801
  19.1221929  18.0188853  28.3510356  18.5633179  17.5016347  27.2104723
  18.5102017  17.7204558  27.9614197  17.5910602  15.5228551   9.6919018
  17.9709567  15.5408180   8.9070133  16.8503198  15.9682540   9.5709865
  17.5379440  15.5910326   9.5582586  25.2195893  13.8310742  15.2794597
  25.2190119  13.6759399  16.1378873  25.0152073  14.6773729  15.2235982
  25.1895670  13.9331363  15.3982536   7.2813163  17.2550527  19.6953413
   7.1034925  16.8027136  20.4208329   6.9932186  18.0576688  19.8791891
   7.2126117  17.3073084  19.8296916  18.3895356  22.3606057  11.0827808
  17.5806679  22.0372731  11.0361118  18.8970265  21.6539279  11.0156057
  18.3445023  22.2087374  11.0658103   9.0185633  19.7878250  16.8075172
   8.1531153  19.7763941  16.6957944   9.1184449  19.6008473  17.6546312
   8.9059800  19.7584312  16.9164117  25.0088563  21.2611931  21.6207932
  25.4343635  20.7386353  21.0678357  24.6445483  21.8592769  21.0996555
  25.0175166  21.2722158  21.4616942  14.6442643  29.5576149  20.3805278
  14.9589202  30.3712537  20.3883060  15.0536057  29.1726368  21.0487437
  14.7510741  29.6204851  20.4809370  21.5967163  24.9746196  17.9509090
  22.0678341  25.6886458  18.1199075  21.9327341  24.3744946  18.4868959
  21.7162278  24.9917660  18.0541466  23.6844147  26.5847509  30.1301162
  23.7941113  25.7956070  30.4857909  24.0135044  26.4953445  29.3275500
  23.7496553  26.4553362  30.0643553  18.5136658   9.7473666  24.9067185
  18.6464563   8.9504660  25.2348160  18.8981811  10.2740069  25.4865460
  18.5892987   9.7073583  25.0410688  22.2341109  24.7664130  24.7136783
  21.6862055  24.1422013  24.4456848  22.6954138  24.9558402  23.9980862
  22.2208319  24.7023180  24.5687214  21.5869013   6.6703992  21.5048278
  20.7814977   6.5601722  21.8216116  21.4575749   6.7716448  20.6478144
  21.4489146   6.6687662  21.4256318  25.0434974  12.8349484  22.0987975
  24.4597962  13.3358691  21.6865542  25.3639268  12.3279041  21.4652298
  25.0048149  12.8341319  21.9446482  17.5829773  11.7490079  12.3746650
  18.4045467  11.9188392  12.1328345  17.1199424  11.9037340  11.6512947
  17.6360935  11.7971812  12.2318294  16.1725105   9.7432841  23.1545078
  16.7169518   9.4023968  23.7449420  16.2262040  10.6018303  23.2966363
  16.2614224   9.8188101  23.2626952  11.9855663  23.5049257  20.0283886
  12.5900521  23.4645092  19.3997707  11.7782976  24.3520409  20.0587942
  12.0444561  23.6237260  19.9400003  21.7999436  25.7715203  21.2446124
  22.6197809  25.6278169  21.5062419  21.5193513  26.3961401  21.7862562
  21.8796179  25.8425555  21.3634063   7.2206946  22.4883875  19.8982809
   7.1231224  21.6780146  20.2072866   8.0035815  22.4675668  19.5129078
   7.3223082  22.3650965  19.8869672  31.4712771  32.5155705  18.9641931
  30.6150666  32.6764204  19.0151047  31.5180424  31.6447769  18.9846992
  31.3511882  32.4106507  18.9747997  20.6303711  38.0857102  16.6194268
  20.3953895  37.2524754  16.5126537  20.7689352  38.3661768  15.8055469
  20.6159373  38.0040605  16.4836623  22.9293798  30.2542832  19.5178576
  22.3098830  29.6635480  19.3488591  22.8277662  30.8454268  18.8842899
  22.8231474  30.2546915  19.3983566  30.0261694  31.9942374  13.8511039
  30.7241859  32.1730502  14.3432502  30.3414027  31.4712714  13.2281428
  30.1757031  31.9436146  13.8313049  22.6562931  33.7995114  21.7622145
  22.5321628  34.3857560  22.3971964  23.3081216  33.3055310  22.0634420
  22.7336581  33.8133919  21.9008074  27.6821272  36.9756831  21.0409656
  28.3270275  36.4829274  20.7220605  27.9223049  37.1181618  21.8675734
  27.8131858  36.9234273  21.1159189  28.1988558  27.3634771  17.9332314
  27.8691888  27.8145914  17.2636012  27.5233559  27.2850934  18.4805320
  28.0498994  27.4185906  17.9155537  35.4064965  23.3520294  16.1781924
  35.0918406  24.0423772  16.6102347  34.8891907  23.2965076  15.4767425
  35.2829436  23.4455182  16.1378873  26.6377007  37.2488012  11.0926803
  26.0534222  37.7538043  11.4992667  26.2347102  37.0230398  10.3523395
  26.4916311  37.2896260  11.0431828  26.4044512  25.4247059  13.4155261
  27.1590480  25.7925376  13.1772312  26.2272046  25.7986614  14.1834441
  26.4898990  25.5345247  13.4940150  26.0944139  33.7174535  27.1751169
  26.2664643  33.6080430  28.0236451  26.6313497  34.3628941  26.9382362
  26.1989143  33.7966537  27.2656266  24.7601576  27.8317378  10.1133374
  24.5777150  28.0489259   9.2874367  25.6227189  27.9456391  10.1691989
  24.8606166  27.8807276   9.9987861  24.3716008  39.6705301  17.5556362
  25.2104908  39.9028233  17.6030124  24.4027777  38.8009612  17.4863398
  24.4997726  39.5762247  17.5521007  24.9968711  40.0906176  21.8569668
  25.5366936  39.9477307  22.5273040  24.3138658  40.4902927  22.2253694
  24.9760865  40.1285847  22.0104090  30.4401296  24.8343789  13.1482398
  31.1687456  24.6559744  12.7020554  30.5296188  25.6761869  13.3589576
  30.5607958  24.9327667  13.1135916  20.4005856  36.3106467  22.0104089
  20.1344272  35.4945583  22.1695080  20.4144421  36.3559622  21.1399605
  20.3630579  36.1963371  21.9057571  24.3063603  31.1091551   8.6255847
  23.5921780  30.8229730   9.0378280  24.7907572  31.4488177   9.2662235
  24.2722967  31.1173201   8.7811482  25.1504463  29.8484845  24.6571097
  24.4576260  29.3781825  24.9031829  25.7664790  29.6223149  25.2312804
  25.1388993  29.7451977  24.7780250  20.8099270  37.0965246  19.2915834
  20.6274843  37.0712132  18.4388126  21.5448939  37.5664184  19.3304742
  20.8913334  37.1626608  19.1713752  23.8745022  33.8150249  25.7997942
  24.5984994  33.8003279  26.2862837  23.9761158  34.5245604  25.3019910
  23.9963231  33.9174952  25.7976729  20.7770180  33.9758747  19.4414900
  21.3543683  33.8395197  20.0807146  20.0784242  33.5194531  19.6960485
  20.7591202  33.8881013  19.5737190  27.5337483  35.6292802  17.6553383
  27.2756727  34.7964537  17.6284683  27.5885965  35.8550415  16.8145884
  27.5037260  35.5390574  17.5273520  32.6138533  27.7321253  17.7557476
  31.9094859  27.2430438  17.9141395  32.6623507  27.7443727  16.8845921
  32.5168584  27.6610901  17.6496816  26.5072195  33.1830565  18.1418278
  25.9321786  33.3422733  18.7782239  26.1307871  32.5465974  17.6786729
  26.3675007  33.1128378  18.1672837  30.1745483  31.6553914  23.0010657
  29.7859916  31.2308132  22.3462848  29.5100182  31.9036064  23.5087683
  30.0192411  31.6292635  22.9798525  16.2529014  32.8270640  16.1562719
  16.3389265  32.4502508  16.9376249  16.8804811  32.4531085  15.6782677
  16.3585565  32.7156122  16.2008196  33.9971845  25.3528543  20.5134641
  34.3782357  24.6706714  20.9002515  33.1935129  25.0638145  20.3310305
  33.9348307  25.2095591  20.5438697  27.7895145  34.5776326  10.6634665
  28.1740298  34.3584033  11.4151210  27.5406765  35.4039271  10.7935741
  27.8097217  34.6674472  10.7935741  27.9563685  27.8582741  30.3797249
  27.6417126  28.6282304  30.1166812  27.6353618  27.2952997  29.7949476
  27.8622604  27.8893010  30.2538599  25.5095582  26.2473263  15.9943446
  24.6418008  26.3195862  16.0601055  25.7970787  27.0495341  16.1831421
  25.4235330  26.3767410  16.0318212  34.6328471  26.3951122  24.3254767
  35.3782063  26.2060932  23.9118193  34.2165776  26.9209360  23.7668624
  34.6813445  26.4453267  24.1819341  28.6613133  37.5998948  23.8220166
  28.1624826  38.3114715  23.9005054  29.4713357  37.9199614  23.7838328
  28.7069239  37.7525796  23.8276734  24.9241250  36.8621901  18.0682887
  24.6354499  36.2359372  18.6028614  25.7924598  36.8042188  18.1347567
  25.0101502  36.7609445  18.1573841  35.7119148  32.0056684  18.3864869
  35.3683914  31.2847019  18.7372118  35.8112191  31.7970535  17.5443227
  35.6761191  31.8680887  18.3136549  25.1273524  38.5017152  13.9925252
  25.8819492  38.8830191  14.2060714  24.5344136  38.9528295  14.4471948
  25.1510237  38.6245979  14.0908130  27.5880191  30.4579992  29.1182464
  26.7779966  30.7637772  29.0072306  28.0654877  31.1785574  29.2335048
  27.5383669  30.6094593  29.1189535  26.4471750  39.6725713  19.3665367
  25.9252504  39.8126005  20.0517232  26.8345771  38.9136377  19.5567484
  26.4275451  39.5811237  19.4966444  23.4362934  29.7231522  13.4360322
  23.1487730  29.3532792  12.6992269  24.1233403  30.1926377  13.1744027
  23.4951832  29.7378491  13.2875398  27.8738076  36.7029732  14.7646858
  27.6780859  37.3104467  14.1707161  28.0972421  36.0097676  14.2838532
  27.8772717  36.6907258  14.6062939  26.2716606  33.5884470  14.8827727
  26.9939258  33.7525628  14.4231533  25.7924599  34.3094135  14.7767066
  26.3080337  33.7182700  14.7993341  34.2310114  29.9248269  20.2624411
  33.3921214  29.9509548  20.0262675  34.3014481  30.5719004  20.8429758
  34.1178507  30.0244395  20.3133528  23.9224223  35.9942542  23.9881866
  24.4345320  36.2726796  23.3390626  23.6360565  36.7331836  24.3544679
  23.9559086  36.1444896  23.9471744  32.6779392  26.8233646  14.9952027
  33.3805745  26.6241394  14.5171986  32.4123580  26.0509588  15.3020871
  32.7426024  26.6796612  14.9697469  21.0091129  30.5012734  14.2845603
  21.1107265  31.3038896  14.6126578  21.8047016  30.3000070  13.9868683
  21.1419035  30.5898633  14.2880958  27.4407948  28.0868931  24.0482908
  27.2491145  28.1024065  24.8982332  28.2906544  28.2832605  24.0249563
  27.5383670  28.1183282  24.1706203  21.8254861  30.6159912  22.0266724
  21.6840353  29.7643853  22.1511232  22.1095424  30.6588573  21.2028930
  21.8462707  30.4959663  21.9234349  31.9793453  32.4527003  16.1711213
  31.7328168  32.3722754  17.0048002  32.3078576  31.6680471  15.9773740
  31.9914697  32.3253268  16.2658736  27.9390481  35.1883721  25.5834196
  28.0833856  35.7684929  24.9477306  28.2866129  35.5660018  26.2884050
  28.0117942  35.3304425  25.5933191  30.1110398  34.3873890  23.3659327
  29.3633712  34.5804904  22.9607605  30.2651923  33.5619109  23.1283449
  30.0232826  34.2939001  23.2704733  30.3512175  28.2824440  24.2554731
  30.8084789  29.0148415  24.3827523  30.4268504  27.8590906  25.0141987
  30.4303145  28.3281678  24.3855808  22.5945166  28.5290260  25.3444175
  22.0587356  27.9170618  25.6604942  22.6562931  29.1038396  25.9977841
  22.5240799  28.5237188  25.4879602  34.8239501  21.4614316  18.1248574
  34.9423069  21.9190779  17.3915877  34.6501677  20.6559577  17.8384792
  34.8158672  21.4108088  17.9749508  28.2294553  30.2726544  21.0996555
  27.4390628  30.0918004  21.4213891  28.6255176  29.4953497  21.0826850
  28.1711429  30.1314005  21.1449104  30.7432383  32.7486803  25.5820054
  30.6791524  33.6096760  25.4540191  30.8829571  32.4318797  24.7815605
  30.7547853  32.8286970  25.4448267  29.4251477  35.4418943  19.7236257
  29.0013726  35.6423442  18.9875275  29.2496332  34.5947791  19.8360557
  29.3362358  35.3467724  19.6309947  24.7133922  35.9370994  15.1564229
  24.8698541  35.8717797  16.0120222  25.0534515  36.7119547  14.9442909
  24.7867157  36.0420192  15.2518824  31.2513067  35.3128878  14.0257593
  31.7928612  34.8099259  14.4896213  31.5659626  35.2594072  13.2147078
  31.3777464  35.2308299  13.9741405  32.4002336  30.2065182  24.0779893
  32.6144306  29.5676097  23.5243247  31.7836235  30.6511006  23.6487755
  32.3407665  30.1775326  23.9330324  21.2868184  33.1205945  15.4724997
  21.6667148  33.5390490  14.8085264  20.7123548  33.7019400  15.7793840
  21.2579508  33.2683803  15.4201738  34.5641424  31.8154247  25.0163200
  33.7518106  31.5080138  25.0976373  35.0231359  31.3353248  25.5805912
  34.5121809  31.6990740  25.1117794  31.7917065  23.3165118  19.0667236
  30.9210623  23.2903839  19.0200545  32.0457406  23.1442310  18.2493082
  31.7010625  23.2875262  18.9387373  28.8166205  25.3271346  20.5240706
  28.3004694  24.6351538  20.6492285  28.2560134  25.9942123  20.4703305
  28.6572718  25.3234604  20.5346772  30.8858439  25.8664306  22.3533559
  30.4990192  25.8913338  23.1347089  30.3991376  25.3005985  21.9008076
  30.7570948  25.7860057  22.4021463  36.8608418  32.4326961  20.9773261
  36.4336026  32.3453310  20.2221361  36.2234471  32.5404737  21.5628105
  36.7038025  32.4359621  20.9518703  30.5515580  22.7531292  24.6443819
  31.1808698  23.2891592  24.3664889  30.7201443  22.6608651  25.4957385
  30.6693375  22.8192654  24.7292347  30.3529495  27.5402487  26.9170230
  31.1802925  27.2687635  26.9728845  30.3737341  28.3363328  27.2734049
  30.4782345  27.6182241  26.9785413  24.9298985  34.6866349  20.1040491
  24.0886992  34.5870224  20.3119385  25.1388993  35.4561830  20.4554812
  24.8363678  34.7858393  20.1867806  22.4074552  32.3085886  17.9325242
  22.0131250  32.3828898  17.1575351  21.8514669  32.6943833  18.4833604
  22.2677364  32.3767661  17.8992902  34.0439499  25.2867180  17.6129121
  34.2489092  25.2189488  18.4586118  33.7165923  26.0926002  17.5450298
  34.0254747  25.3953121  17.7288776  28.7415650  32.6147749  19.3538089
  28.4378788  32.0603737  19.9548496  28.0395071  32.7939959  18.8666123
  28.5931860  32.5592531  19.3707794  27.7981747  29.9248268  13.9182790
  28.0741481  29.2067181  13.5060358  28.3980416  30.5233188  13.7103897
  27.9275012  29.9068639  13.8263552  37.2973187  25.8398945  17.0931886
  36.6847500  26.3269347  17.4785618  37.3937362  25.1642435  17.6369537
  37.2211084  25.8117253  17.2310744  31.2992268  27.5961786  12.1929385
  31.7536014  27.7672346  12.9177230  31.7732313  26.9829896  11.7927161
  31.4360588  27.5312671  12.2403147  24.8207793  37.0810112  21.5232124
  24.2295726  37.7219610  21.4935139  25.5828817  37.5047729  21.4963423
  24.8456054  37.2385950  21.5147271  25.2168416  28.2412109  22.1900142
  25.6769897  28.3151039  22.9275265  25.2624523  29.0393364  21.8399963
  25.2918971  28.3706257  22.2472898  26.8651766  28.9078804  26.7572169
  26.4737331  28.2612151  27.1927946  27.0337628  29.4990240  27.3766424
  26.8322676  28.8993072  26.9134875  28.6405288  34.3004320  13.2974393
  29.3847333  34.6878596  13.5357343  28.7865984  33.4561745  13.4614881
  28.7715873  34.2334793  13.3568362  30.5584863  26.0954579  18.3306254
  29.7120908  26.2677387  18.2047604  30.5555996  25.2903923  18.6672082
  30.4332013  26.0015608  18.3617381  31.6283163  29.8729793  19.1968312
  31.1543118  29.3471555  19.7073623  32.0001299  29.3259266  18.6283174
  31.6133052  29.7145790  19.1883459  22.0056194  31.8701300  24.5651858
  22.8681807  31.7697009  24.4789188  21.6747977  31.2896009  24.0037430
  22.0841390  31.7692927  24.4697264  33.5566663  30.7666348  12.2594066
  33.0289682  30.8495092  11.5699775  34.0162371  31.5084219  12.2558711
  33.5468514  30.8887010  12.1568761  25.3657980  30.6943749  21.2262276
  24.7411050  30.7062141  20.6188229  25.0303574  31.1703924  21.8753516
  25.2243471  30.7662266  21.2318845  25.5499728  29.0368868   7.2834961
  25.2012533  29.6888593   7.7466510  25.0696174  29.0225981   6.5558832
  25.4269972  29.1311921   7.2446052  22.0783655  38.7544209  22.6666040
  21.5483580  38.0636648  22.7161015  22.3508748  38.7454395  21.8378749
  22.0408377  38.6511341  22.5513456  24.6348725  32.3036897  23.4437144
  24.7942212  31.5480221  23.8488866  24.4541619  32.8527836  24.0977882
  24.6314084  32.2730711  23.5999850  32.5769028  24.4698133  23.9987934
  32.0809589  24.6661807  23.3079501  33.3338090  24.8690801  23.8276736
  32.6155853  24.5575866  23.8708071  29.8471908  28.1440478  20.5891245
  29.8714395  27.6100591  19.9004024  30.0983381  27.6357787  21.2516835
  29.8881826  27.9901382  20.5855889  17.3579497  35.4271973  20.0234389
  17.2522946  35.3818818  19.1586473  16.6079717  35.7725754  20.3048673
  17.2315100  35.4712882  19.9371718  26.1273230  26.8711297  19.9696989
  26.1671601  27.3720503  20.6831696  25.3022894  26.9621690  19.7002912
  26.0112756  26.9593113  20.0347527  27.5487593  33.3871806  22.2670888
  26.7179523  33.5545624  22.0606136  27.4939110  33.0107757  23.0519773
  27.4177008  33.3561538  22.3519416  25.3571376  26.8780699  27.9027299
  25.9824080  26.3342832  28.1756731  24.9021856  26.3975617  27.3335089
  25.3819637  26.7270181  27.8588892  25.9223637  31.6627398  12.7961006
  26.0626598  32.1599862  13.4989647  26.4206170  30.9613692  12.9375219
  26.0164718  31.6329377  12.9212585  25.9523859  32.5294509  10.1253582
  26.5868939  33.1254934  10.0603044  26.0349470  32.2297967  10.9399453
  26.0580410  32.5735417  10.2356669  27.5302842  28.4608484  10.0999024
  27.8518683  27.9811567   9.4458287  27.7929786  29.2708131   9.9089836
  27.6168868  28.5098382   9.9754516  32.9261997  27.8480678  22.4622503
  33.3517069  27.3953205  21.8506030  32.3118990  27.2940749  22.7387291
  32.8990643  27.6994655  22.4127529  22.4576847  34.7262350  13.3943128
  22.9669077  35.3226857  13.7754434  22.9311120  34.4588323  12.7119548
  22.6020223  34.7748165  13.3497651  31.3656220  24.3195778  15.8713080
  30.7224538  24.1693425  16.4398219  31.0255627  24.0738123  15.1062185
  31.2201297  24.2607901  15.8416096  35.9555567  32.2755205  15.2943089
  35.2846756  32.8184907  15.1656155  36.6495317  32.7450060  15.0524784
  35.9584434  32.4253476  15.2398617  36.1183694  28.7311089  18.2033462
  36.4711304  28.3040812  18.8779261  35.2598495  28.6461932  18.3334539
  36.0433139  28.6555829  18.3228473  24.8167379  31.3618608  16.2616309
  24.0979368  31.7782741  16.5289172  25.1879741  31.9272847  15.7107947
  24.7659311  31.5067890  16.2199116  34.1166960  31.9946457  22.1518305
  34.0964887  31.8129752  23.0053083  34.1646161  32.8658476  22.1277888
  34.1201601  32.0962996  22.2741599  30.5913953  30.4016608  11.5989688
  29.9978793  30.7233605  11.0474255  30.6289231  29.5557704  11.3910794
  30.5088342  30.3240937  11.4872460  33.4671770  30.3596113  15.0291438
  33.2385463  30.3828814  14.1869797  33.7269846  29.5353580  15.1486449
  33.4717958  30.2412193  14.9216636  27.7490998  32.2130586  24.6316539
  27.2369901  31.6051769  24.9901570  27.5770495  32.9287178  25.0990514
  27.6480635  32.2293885  24.7532762  22.5956713  30.6568161  27.2818900
  22.4259303  31.3169536  26.7367107  22.1522663  30.8674722  28.0031390
  22.5056047  30.7854143  27.3080530  26.5216532  28.8972659  16.3245634
  26.9973899  29.2589739  15.6895815  26.0205132  29.5529127  16.6045777
  26.5181891  29.0466848  16.2722375  31.6260069  30.1354830  27.0718794
  32.1831499  29.9068640  26.4397260  31.3021134  30.8960496  26.7954007
  31.6606479  30.2138667  26.9375291  19.4958778  33.5615027  22.5407390
  18.9485497  32.8915672  22.6588259  20.2851156  33.1944875  22.6050858
  19.5310961  33.4080013  22.5676091  29.3443186  33.2222484  28.0370801
  30.0954513  33.5374161  28.3510356  29.5365762  33.0201655  27.2104723
  29.4834600  33.2389866  27.9614197  28.5643186  31.0413859   9.6919018
  28.9442150  31.0593488   8.9070133  27.8235782  31.4867848   9.5709865
  28.5112023  31.1095633   9.5582586  36.1928476  29.3496050  15.2794597
  36.1922703  29.1944707  16.1378873  35.9884656  30.1959037  15.2235982
  36.1628254  29.4516671  15.3982536  18.2545747  32.7735834  19.6953413
  18.0767508  32.3212443  20.4208329  17.9664769  33.5761996  19.8791891
  18.1858700  32.8258392  19.8296916  33.9169328  34.0293552  18.9330804
  34.4122993  33.3116547  18.8934824  33.1069104  33.7264350  18.8185291
  33.8713221  33.8791198  18.9104530  19.9918217  35.3063558  16.8075172
  19.1263736  35.2949249  16.6957944  20.0917033  35.1193781  17.6546312
  19.8792384  35.2769619  16.9164117  29.4869241  25.2658974  24.9067185
  29.6197147  24.4689968  25.2348160  29.8714394  25.7925377  25.4865460
  29.5625570  25.2258891  25.0410688  32.5601597  22.1889300  21.5048278
  31.7547560  22.0787030  21.8216116  32.4308332  22.2901756  20.6478144
  32.4221729  22.1872970  21.4256318  36.0167557  28.3534792  22.0987975
  35.4330546  28.8543999  21.6865542  36.3371851  27.8464348  21.4652298
  35.9780732  28.3526627  21.9446482  28.5562356  27.2675387  12.3746650
  29.3778051  27.4373700  12.1328345  28.0932007  27.4222648  11.6512947
  28.6093519  27.3157120  12.2318294  27.1457688  25.2618149  23.1545078
  27.6902101  24.9209276  23.7449420  27.1994624  26.1203611  23.2966363
  27.2346808  25.3373409  23.2626952  22.9588247  39.0234565  20.0283886
  23.5633104  38.9830399  19.3997707  22.7515560  39.8705717  20.0587942
  23.0177144  39.1422568  19.9400003  18.1939529  38.0069183  19.8982809
  18.0963807  37.1965454  20.2072866  18.9768399  37.9860976  19.5129078
  18.2955666  37.8836273  19.8869672  15.9957647   8.4007228   5.3296837
  16.6395102   8.8420392   5.7192996  16.3213902   7.5960654   5.2427096
  16.1389475   8.3472422   5.3742315  18.9425604   1.2404560   7.6256595
  19.2248847   0.4455966   7.4043351  19.6711765   1.7185148   7.6461656
  19.0915168   1.1939157   7.5959611  16.9853430   3.1767777   7.4340336
  16.4680372   2.8175192   6.8301644  17.6827821   2.6529951   7.4446402
  17.0119011   3.0465465   7.3470594  20.6417022   3.6262591  13.3956509
  20.7300368   3.4388731  14.2434719  21.0706735   2.9800020  12.9961356
  20.7179124   3.5025598  13.4628260  18.2087482   2.9093751  12.3774171
  17.6458317   2.4966360  12.9013832  18.9708505   2.8346656  12.7967314
  18.2381930   2.8371151  12.5167171  13.7186952   1.5098999   8.7909715
  14.2585177   1.3670130   9.4613087  13.0356898   1.9095750   9.1593741
  13.6979106   1.5478670   8.9444136  20.7537081   3.0571610  16.0600292
  21.5377498   3.1702457  16.4256034  20.5533676   2.2312747  16.2558978
  20.8403107   2.9518329  16.1434678  20.9107475   4.9681712   9.7066748
  20.1122720   4.7281212   9.9640617  21.3593486   5.0196105  10.4533796
  20.8582086   4.9404103   9.8551672  17.3831373  -0.9808229  10.7560213
  16.8843067  -0.2692461  10.8345101  18.1931597  -0.6607562  10.7178375
  17.4287480  -0.8281380  10.7616781  15.7336476   4.7979316   9.3835269
  15.8826040   4.2382232   8.7308674  16.5136478   4.8771318   9.7667788
  15.8710570   4.7264882   9.3432219  18.2589777   4.9693959  10.6619760
  18.1833448   4.3002770  11.2170549  18.1879636   5.6711747  11.1760427
  18.2370384   4.9738867  10.8196608  17.6481411   8.3762279   9.1197761
  18.1377341   7.6773068   8.9373426  17.0765643   8.0786149   9.7073818
  17.6365941   8.2288503   9.1798802  23.8569659   2.0030639  13.3447392
  24.4949379   1.5090834  13.0109848  23.2143750   1.9308039  12.7599619
  23.8563885   1.9189647  13.2089747  15.5252241   1.2490293  10.9950233
  15.4172596   1.2592355  11.8612291  15.7348023   2.0745073  10.8055187
  15.5402352   1.3731367  11.0954325  23.3015550   3.9512247   5.8904195
  23.1035238   4.4403061   5.1960407  22.6803261   4.1553488   6.4688329
  23.1803114   4.0528785   5.8727419  19.4818055   0.9020182  10.5537887
  18.9743146   1.4556029  10.9978518  19.1844702   0.9628472   9.7356662
  19.3622940   0.9926493  10.4986344  18.7260541   5.8344740   7.4594894
  18.5026195   5.0763570   7.8278921  18.2370384   5.8642762   6.7375334
  18.6203990   5.7266965   7.4071635  20.7404292   5.2135284   5.6655595
  20.3420575   5.3237554   4.8976416  20.1255511   5.4217350   6.2482155
  20.5903181   5.2608852   5.6386895  14.3393467   6.4954280   7.3145325
  14.6540026   7.3090669   7.3223107  14.7486881   6.1104499   7.9827484
  14.4461565   6.5582982   7.4149416  23.3794971   3.5225640  17.0641209
  23.4891937   2.7334201  17.4197956  23.7085868   3.4331576  16.2615547
  23.4447377   3.3931493  16.9983600  21.9291933   1.7042261  11.6476829
  21.3812879   1.0800145  11.3796895  22.3904962   1.8936533  10.9320909
  21.9159143   1.6401311  11.5027260  21.4950259   2.7093334   8.1786171
  22.3148633   2.5656300   8.4402466  21.2144337   3.3339533   8.7202608
  21.5747003   2.7803686   8.2974110  31.1663595   9.4533836   5.8981977
  30.3101490   9.6142335   5.9491094  31.2131248   8.5825900   5.9187038
  31.0462706   9.3484638   5.9088043  25.5504734  18.9896554   1.6619209
  24.7987634  18.6112093   1.4335254  25.9990746  19.0214988   0.9138019
  25.5054401  18.9382161   1.5176711  34.4757311  15.7220362  15.5042433
  35.1824079  15.2272393  15.6329368  34.6645247  16.1629444  14.7745091
  34.6085217  15.7138712  15.4151479  34.0115416  11.5125880   8.5413629
  34.5571376  12.1910967   8.6007599  33.9532292  11.3713341   7.6815211
  34.0831330  11.5917882   8.4225690  27.1289491  19.0014946   3.9281981
  27.2299854  18.1915300   4.2379109  26.5331236  18.9071893   3.2981660
  27.0562029  18.8679975   3.8808220  26.9690230  23.9192536   5.3296837
  27.6127686  24.3605700   5.7192996  27.2946486  23.1145962   5.2427096
  27.1122059  23.8657730   5.3742315  20.3254535  15.0235233   3.5534315
  20.0904719  14.1902885   3.4466584  20.4640176  15.3039899   2.7395516
  20.3110197  14.9418736   3.4176670  22.6244622   7.1920964   6.4518623
  22.0049654   6.6013611   6.2828638  22.5228486   7.7832399   5.8182946
  22.5182298   7.1925046   6.3323612  27.6710810  16.9304510   0.7016699
  27.9926651  17.4709718   0.0978007  28.3182906  16.3601282   0.8338989
  27.8136865  16.9263686   0.6323735  22.3513755  10.7373245   8.6962192
  22.2272452  11.3235691   9.3312011  23.0032040  10.2433441   8.9974467
  22.4287405  10.7512050   8.8348121  29.9100453  15.3190950   0.7730877
  30.3494089  14.7108051   1.2185650  29.7605116  14.9398324   0.0016342
  29.9521919  15.1729422   0.7250045  27.3772096  13.9134962   7.9749703
  28.0221099  13.4207405   7.6560651  27.6173873  14.0559749   8.8015781
  27.5082681  13.8612404   8.0499236  29.9158188  16.7589868   7.6256595
  30.1981431  15.9641274   7.4043351  30.6444348  17.2370456   7.6461656
  30.0647751  16.7124465   7.5959611  27.8939382   4.3012902   4.8672361
  27.5642712   4.7524046   4.1976059  27.2184383   4.2229065   5.4145367
  27.7449818   4.3564037   4.8495584  26.3327831  14.1866143  -1.9733150
  25.7485046  14.6916174  -1.5667286  25.9297926  13.9608530  -2.7136558
  26.1867135  14.2274391  -2.0228125  21.8871860  19.9020904   4.8290521
  21.4039438  20.6271393   4.8050105  22.6995178  20.1997034   4.9400679
  21.9362607  20.0523258   4.8417800  27.9586014  18.6953085   7.4340336
  27.4412955  18.3360500   6.8301644  28.6560405  18.1715259   7.4446402
  27.9851595  18.5650772   7.3470594  31.6149606  19.1447899  13.3956509
  31.7032951  18.9574039  14.2434719  32.0439318  18.4985328  12.9961356
  31.6911708  19.0210906  13.4628260  29.1820065  18.4279059  12.3774171
  28.6190900  18.0151668  12.9013832  29.9441089  18.3531964  12.7967314
  29.2114514  18.3556459  12.5167171  24.7416057  20.4177080   4.9810801
  25.4436636  19.9029069   5.0383558  24.6613540  20.7451231   5.7857676
  24.8339817  20.3891306   5.1083593  25.7894963  10.6552667  14.1091216
  25.9615467  10.5458561  14.9576498  26.3264321  11.3007072  13.8722408
  25.8939967  10.7344668  14.1996313  24.0666832  16.6083432   4.4896409
  24.9055732  16.8406364   4.5370171  24.0978601  15.7387743   4.4203445
  24.1948550  16.5140378   4.4861054  24.6919535  17.0284307   8.7909715
  25.2317760  16.8855438   9.4613087  24.0089482  17.4281058   9.1593741
  24.6711689  17.0663978   8.9444136  31.7269665  18.5756918  16.0600292
  32.5110081  18.6887765  16.4256034  31.5266259  17.7498055  16.2558978
  31.8135690  18.4703637  16.1434678  20.0956680  13.2484598   8.9444136
  19.8295096  12.4323714   9.1035126  20.1095244  13.2937753   8.0739652
  20.0581403  13.1341502   8.8397618  24.8455287   6.7862976  11.5911144
  24.1527083   6.3159956  11.8371875  25.4615614   6.5601281  12.1652851
  24.8339817   6.6830108  11.7120296  31.8840058  20.4867020   9.7066748
  31.0855304  20.2466520   9.9640617  32.3326070  20.5381413  10.4533796
  31.8314669  20.4589411   9.8551672  20.5050094  14.0343377   6.2255880
  20.3225667  14.0090263   5.3728173  21.2399763  14.5042315   6.2644789
  20.5864158  14.1004739   6.1053799  23.5695846  10.7528380  12.7337989
  24.2935818  10.7381411  13.2202884  23.6711982  11.4623735  12.2359957
  23.6914055  10.8553083  12.7316776  30.9440795  14.2327465  17.5986936
  30.1513776  14.5470976  17.7839556  31.0589722  14.4478933  16.7607721
  30.8436206  14.3111301  17.5025271  31.8724588  14.1347668  12.5372233
  32.4463450  13.4974913  12.6920797  31.7939392  14.1351751  11.6681890
  31.9457823  14.0412780  12.4318644  20.4721004  10.9136878   6.3754947
  21.0494507  10.7773329   7.0147192  19.7735066  10.4572662   6.6300531
  20.4542026  10.8259144   6.5077237  27.2288306  12.5670933   4.5893430
  26.9707551  11.7342668   4.5624730  27.2836789  12.7928546   3.7485931
  27.1988084  12.4768705   4.4613567  26.2023019  10.1208696   5.0758325
  25.6272610  10.2800864   5.7122286  25.8258695   9.4844105   4.6126776
  26.0625831  10.0506509   5.1012883  29.8696307   8.5932045   9.9350703
  29.4810740   8.1686263   9.2802895  29.2051006   8.8414195  10.4427730
  29.7143235   8.5670766   9.9138571  26.8443154  16.2952167   3.2599822
  27.4817101  16.0563915   3.8051616  27.2698225  16.4989326   2.5252983
  27.0019320  16.2903177   3.2316980  21.5355796  18.5340504   7.1434126
  21.5759941  18.8055355   6.3153906  22.0950320  19.0582412   7.5591914
  21.6239142  18.6516259   7.0826014  27.6514509   4.7960872  17.3137296
  27.3367950   5.5660435  17.0506859  27.3304442   4.2331128  16.7289523
  27.5573428   4.8271141  17.1878646  29.2264626  16.7724590   4.9393609
  29.3003634  16.6099762   5.7935459  30.0434132  16.9614779   4.6954090
  29.3580984  16.7761332   5.0291634  22.9870382  17.1182453   1.9688052
  22.1608500  17.3644190   1.8422331  23.0482374  17.0394534   2.8350110
  22.8744549  17.1427402   2.0776997  28.3563957  14.5377079  10.7560213
  27.8575650  15.2492847  10.8345101  29.1664181  14.8577745  10.7178375
  28.4020063  14.6903927  10.7616781  25.7075127  21.7126715   2.7367232
  25.4875422  21.4224070   3.5293899  25.4869649  21.0541670   2.2085144
  25.6422721  21.5726424   2.7756141  24.6192074  13.8000032   5.0022934
  24.3305323  13.1737503   5.5368661  25.4875422  13.7420319   5.0687614
  24.7052326  13.6987576   5.0913888  24.8224348  15.4395283   0.9265299
  25.5770316  15.8208322   1.1400761  24.2294960  15.8906427   1.3811995
  24.8461061  15.5624110   1.0248177  27.2831015   7.3958123  16.0522511
  26.4730790   7.7015903  15.9412353  27.7605701   8.1163706  16.1675095
  27.2334493   7.5472724  16.0529582  26.1422574  16.6103844   6.3005414
  25.6203328  16.7504136   6.9857279  26.5296595  15.8514509   6.4907531
  26.1226275  16.5189368   6.4306490  27.5688900  13.6407863   1.6986905
  27.3731682  14.2482598   1.1047208  27.7923245  12.9475807   1.2178579
  27.5723541  13.6285389   1.5402986  25.9667430  10.5262601   1.8167773
  26.6890082  10.6903759   1.3571579  25.4875423  11.2472266   1.7107113
  26.0031161  10.6560831   1.7333387  23.6175047  12.9320674  10.9221913
  24.1296143  13.2104927  10.2730673  23.3311389  13.6709968  11.2884726
  23.6509910  13.0823027  10.8811791  27.1358772   5.0247062  10.9822955
  26.9441969   5.0402197  11.8322378  27.9857368   5.2210736  10.9589610
  27.2334494   5.0561413  11.1046250  21.5205685   7.5538044   8.9606771
  21.3791177   6.7021984   9.0851279  21.8046248   7.5966704   8.1368977
  21.5413531   7.4337794   8.8574395  35.5692326  16.0988493   6.8938041
  35.4306685  16.7969539   7.3986783  34.7892324  15.9437150   6.5374223
  35.4335553  16.1788660   6.9164315  33.9070411  12.3984869  13.1460422
  33.9018450  11.5264685  13.1502849  34.6131405  12.5973038  12.6729878
  34.0115415  12.2988743  13.0767458  27.6341305  12.1261852  12.5174243
  27.7784680  12.7063061  11.8817353  27.9816953  12.5038149  13.2224097
  27.7068766  12.2682556  12.5273238  29.8061222  11.3252021  10.2999374
  29.0584536  11.5183035   9.8947652  29.9602747  10.4997240  10.0623496
  29.7183650  11.2317132  10.2044780  26.7069060  20.3164624   9.3835269
  26.8558623  19.7567540   8.7308674  27.4869062  20.3956626   9.7667788
  26.8443153  20.2450190   9.3432219  29.2322360  20.4879267  10.6619760
  29.1566031  19.8188078  11.2170549  29.1612219  21.1897055  11.1760427
  29.2102967  20.4924174  10.8196608  30.0462999   5.2202572  11.1894778
  30.5035613   5.9526546  11.3167570  30.1219328   4.7969037  11.9482034
  30.1253969   5.2659810  11.3195854  22.2895990   5.4668391  12.2784222
  21.7538180   4.8548749  12.5944989  22.3513755   6.0416527  12.9317888
  22.2191623   5.4615319  12.4219648  29.8892607  19.0080266   1.4943366
  30.6542498  18.7389910   1.1726030  29.7870697  18.5230276   2.2113429
  29.9874103  18.8969831   1.5523194  27.9245377   7.2104675   8.0336602
  27.1341452   7.0296136   8.3553938  28.3206000   6.4331628   8.0166896
  27.8662253   7.0692136   8.0789150  33.3089063  14.8447106   5.7596048
  32.6334065  14.6132338   6.2609435  33.3181439  14.2368289   5.1338153
  33.2107568  14.7206031   5.7412200  30.4383207   9.6864935  12.5160101
  30.3742348  10.5474891  12.3880238  30.5780395   9.3696928  11.7155652
  30.4498677   9.7665101  12.3788314  29.1202301  12.3797074   6.6576304
  28.6964550  12.5801573   5.9215322  28.9447156  11.5325922   6.7700604
  29.0313182  12.2845855   6.5649994  28.6213995  23.8947587   9.1197761
  29.1109925  23.1958376   8.9373426  28.0498227  23.5971457   9.7073818
  28.6098524  23.7473811   9.1798802  24.4084746  12.8749125   2.0904276
  24.5649365  12.8095928   2.9460268  24.7485339  13.6497678   1.8782956
  24.4817981  12.9798324   2.1858870  34.8180998  16.4609656  18.0724552
  35.6315863  16.1894805  18.2329684  34.6575964  16.1617196  17.2684748
  34.9150947  16.3764582  17.9769958  32.0953160   7.1443313  11.0119940
  32.3095130   6.5054228  10.4583294  31.4787059   7.5889137  10.5827802
  32.0358489   7.1153457  10.8670371  20.9819008  10.0584076   2.4065043
  21.3617972  10.4768621   1.7425311  20.4074372  10.6397532   2.7133887
  20.9530332  10.2061935   2.3541784  34.2592248   8.7532379  11.9503247
  33.4468930   8.4458269  12.0316420  34.7182183   8.2731379  12.5145959
  34.2072633   8.6368871  12.0457841  33.6697503  16.6312051   2.3980191
  33.3112157  16.8026693   3.1744224  33.1836213  17.0925256   1.8408190
  33.5456200  16.7251022   2.4305461  31.3545756  10.1592450  16.7331949
  31.8245387  10.7834566  17.1199823  31.4007636   9.4909426  17.2925164
  31.4313631  10.1527130  16.8732021  34.8302242  17.5215947  13.3447392
  35.4681963  17.0276142  13.0109848  34.1876334  17.4493347  12.7599619
  34.8296469  17.4374955  13.2089747  30.0480319   4.4780618  13.8510277
  30.8753749   4.2065767  13.9068892  30.0688165   5.2741459  14.2074095
  30.1733169   4.5560372  13.9125460  34.8856499  18.2135755   9.9852749
  35.6748877  17.8624820  10.1054831  35.0600096  19.0272143   9.7229383
  35.0276780  18.2821612   9.9640617  24.6249809  11.6244481   7.0380538
  23.7837816  11.5248355   7.2459432  24.8339817  12.3939961   7.3894859
  24.5314502  11.7236524   7.1207853  22.1025376   9.2464018   4.8665289
  21.7082074   9.3207029   4.0915398  21.5465493   9.6321964   5.4173650
  21.9628188   9.3145792   4.8332948  28.4366474   9.5525880   6.2878135
  28.1329611   8.9981868   6.8888543  27.7345895   9.7318090   5.8006170
  28.2882684   9.4970662   6.3047841  26.4984825  16.7675600  10.9950233
  26.3905180  16.7777663  11.8612291  26.7080606  17.5930381  10.8055187
  26.5134936  16.8916675  11.0954325  24.5158617  14.0188243   8.4572171
  23.9246550  14.6597741   8.4275186  25.2779641  14.4425860   8.4303470
  24.5406878  14.1764081   8.4487318  24.9119240   5.1790241   9.1240188
  25.3720721   5.2529170   9.8615312  24.9575346   5.9771495   8.7740010
  24.9869795   5.3084388   9.1812945  26.5602589   5.8456936  13.6912216
  26.1688155   5.1990283  14.1267993  26.7288452   6.4368371  14.3106471
  26.5273500   5.8371203  13.8474921  34.2748133  19.4697554   5.8904195
  34.0767822  19.9588369   5.1960407  33.6535844  19.6738796   6.4688329
  34.1535698  19.5714093   5.8727419  21.7007018   8.8079431  11.4991905
  22.5632631   8.7075141  11.4129234  21.3698801   8.2274141  10.9377477
  21.7792214   8.7071058  11.4037310  36.1921935  13.0361707  11.4249444
  36.9156134  12.5834233  11.2460464  35.9271897  13.3166372  10.6421771
  36.2603208  13.0112675  11.2828159  25.0608804   7.6321880   8.1602323
  24.4361874   7.6440272   7.5528276  24.7254398   8.1082055   8.8093563
  24.9194295   7.7040397   8.1658891  21.7734479  15.6922340   9.6006087
  21.2434404  15.0014779   9.6501062  22.0459572  15.6832526   8.7718796
  21.7359201  15.5889472   9.4853503  31.9740725  13.1345585   9.5744459
  31.3597718  12.5903635   9.8693094  32.4908010  12.6209821   9.0950275
  31.9596387  12.9781994   9.5468687  31.2137022  14.2049855   7.3088757
  30.7864630  13.5799574   6.8754193  31.2061966  13.9224777   8.1347765
  31.1496163  14.0702636   7.3668585  24.3299549   9.2415028  10.3777191
  24.4893036   8.4858352  10.7828913  24.1492443   9.7905968  11.0317929
  24.3264908   9.2108842  10.5339897  29.5422731   5.0818610   7.5231291
  29.5665219   4.5478722   6.8344071  29.7934205   4.5735918   8.1856882
  29.5832650   4.9279514   7.5195936  17.0530321  12.3650105   6.9574435
  16.9473770  12.3196949   6.0926519  16.3030541  12.7103885   7.2388720
  16.9265924  12.4091013   6.8711765  25.8224054   3.8089428   6.9037036
  25.8622425   4.3098634   7.6171743  24.9973718   3.8999822   6.6342959
  25.7063580   3.8971244   6.9687574  28.0053667  13.3750168  15.0057330
  27.1549297  13.5121882  15.1414975  28.1681794  12.6413946  15.4505032
  27.9037530  13.2864269  15.0912929  27.2438417  10.3249938   9.2010935
  26.4130347  10.4923756   8.9946183  27.1889934   9.9485888   9.9859820
  27.1127832  10.2939669   9.2859463  25.0522200   3.8158831  14.8367345
  25.6774904   3.2720963  15.1096778  24.5972680   3.3353748  14.2675136
  25.0770461   3.6648312  14.7928939  30.4550639  16.4205490  10.5537887
  29.9475730  16.9741337  10.9978518  30.1577285  16.4813780   9.7356662
  30.3355524  16.5111801  10.4986344  32.6212821   4.7858810   9.3962550
  33.0467893   4.3331336   8.7846077  32.0069814   4.2318880   9.6727338
  32.5941467   4.6372786   9.3467576  22.1527671  11.6640481   0.3283175
  22.6619901  12.2604989   0.7094481  22.6261943  11.3966455  -0.3540405
  22.2971047  11.7126296   0.2837698  29.6993124  21.3530048   7.4594894
  29.4758779  20.5948878   7.8278921  29.2102968  21.3828069   6.7375334
  29.5936573  21.2452273   7.4071635  24.5118203   8.2996740   3.1956356
  23.7930192   8.7160872   3.4629219  24.8830565   8.8650978   2.6447994
  24.4610135   8.4446021   3.1539163  33.8117784   8.9324588   9.0858351
  33.7915711   8.7507884   9.9393130  33.8596984   9.8036607   9.0617935
  33.8152425   9.0341127   9.2081646  31.7564114  15.5211780  15.0106828
  31.7159968  14.8761457  14.4251984  32.5687432  15.4648398  15.3232240
  31.8707267  15.4170747  14.9703777  28.3471581  21.5730506   4.9131979
  27.9331980  20.9104637   4.5235820  29.0318955  21.7208365   4.3927673
  28.3869953  21.4971165   4.7788476  31.7136875  20.7320592   5.6655595
  31.3153158  20.8422862   4.8976416  31.0988095  20.9402658   6.2482155
  31.5635765  20.7794160   5.6386895  27.4441822   9.1508717  11.5656586
  26.9320725   8.5429900  11.9241617  27.2721318   9.8665310  12.0330561
  27.3431459   9.1672016  11.6872809  22.2907537   7.5946292  14.2158947
  22.1210127   8.2547667  13.6707154  21.8473487   7.8052854  14.9371436
  22.2006871   7.7232274  14.2420577  26.2167356   5.8350790   3.2585681
  26.6924723   6.1967870   2.6235862  25.7155956   6.4907258   3.5385824
  26.2132715   5.9844979   3.2062422  31.3210893   7.0732962  14.0058841
  31.8782323   6.8446771  13.3737306  30.9971958   7.8338627  13.7294053
  31.3557303   7.1516798  13.8715338  19.1909602  10.4993158   9.4747437
  18.6436321   9.8293803   9.5928305  19.9801980  10.1323006   9.5390904
  19.2261785  10.3458144   9.5016138  29.0394010  10.1600615  14.9710848
  29.7905337  10.4752292  15.2850402  29.2316586   9.9579786  14.1444770
  29.1785424  10.1767997  14.8954244  17.9496571   9.7113966   6.6293460
  17.7718332   9.2590575   7.3548376  17.6615593  10.5140127   6.8131938
  17.8809524   9.7636523   6.7636963  19.6869041  12.2441689   3.7415219
  18.8214560  12.2327380   3.6297990  19.7867857  12.0571912   4.5886359
  19.5743208  12.2147751   3.8504164  35.6771971  13.7175371   8.5547979
  36.1027043  13.1949792   8.0018404  35.3128891  14.3156208   8.0336602
  35.6858574  13.7285598   8.3956989  25.3126051  22.0139588   7.3145325
  25.6272610  22.8275976   7.3223107  25.7219464  21.6289807   7.9827484
  25.4194149  22.0768290   7.4149416  32.2650570  17.4309635   4.8849137
  32.7361749  18.1449897   5.0539122  32.6010749  16.8308385   5.4209006
  32.3845685  17.4481099   4.9881513  34.3527555  19.0410948  17.0641209
  34.4624520  18.2519509  17.4197956  34.6818452  18.9516884  16.2615547
  34.4179961  18.9116801  16.9983600  32.9024517  17.2227569  11.6476829
  32.3545463  16.5985453  11.3796895  33.3637545  17.4121841  10.9320909
  32.8891726  17.1586619  11.5027260  22.6539071  15.9612696   6.9623933
  23.2583928  15.9208531   6.3337754  22.4466383  16.8083849   6.9927989
  22.7127968  16.0800699   6.8740050  32.4682843  18.2278642   8.1786171
  33.2881217  18.0841608   8.4402466  32.1876921  18.8524841   8.7202608
  32.5479586  18.2988994   8.2974110  17.8890353  14.9447314   6.8322856
  17.7914631  14.1343585   7.1412913  18.6719223  14.9239107   6.4469124
  17.9906490  14.8214404   6.8209719  33.5977206  22.7106272   6.4518623
  32.9782238  22.1198919   6.2828638  33.4961069  23.3017707   5.8182946
  33.4914881  22.7110354   6.3323612  33.3246339  26.2558553   8.6962192
  33.2005036  26.8420999   9.3312011  33.9764623  25.7618749   8.9974467
  33.4019988  26.2697358   8.8348121  36.7627547  26.1737975  14.1091216
  36.9348051  26.0643869  14.9576498  37.2996904  26.8192380  13.8722408
  36.8672551  26.2529976  14.1996313  31.0689264  28.7669906   8.9444136
  30.8027679  27.9509022   9.1035126  31.0827828  28.8123061   8.0739652
  31.0313986  28.6526810   8.8397618  35.8187870  22.3048284  11.5911144
  35.1259667  21.8345264  11.8371875  36.4348198  22.0786588  12.1652851
  35.8072400  22.2015416  11.7120296  34.5428429  26.2713688  12.7337989
  35.2668402  26.2566719  13.2202884  34.6444566  26.9809043  12.2359957
  34.6646638  26.3738391  12.7316776  31.4453588  26.4322186   6.3754947
  32.0227091  26.2958636   7.0147192  30.7467650  25.9757970   6.6300531
  31.4274609  26.3444452   6.5077237  34.5907630  28.4505982  10.9221913
  35.1028727  28.7290235  10.2730673  34.3043973  29.1895276  11.2884726
  34.6242493  28.6008335  10.8811791  32.4938269  23.0723352   8.9606771
  32.3523760  22.2207292   9.0851279  32.7778832  23.1152012   8.1368977
  32.5146115  22.9523102   8.8574395  33.2628574  20.9853699  12.2784222
  32.7270763  20.3734057  12.5944989  33.3246339  21.5601835  12.9317888
  33.1924206  20.9800627  12.4219648  35.8851823  20.6975549   9.1240188
  36.3453305  20.7714478   9.8615312  35.9307930  21.4956803   8.7740010
  35.9602379  20.8269696   9.1812945  32.6739601  24.3264739  11.4991905
  33.5365214  24.2260448  11.4129234  32.3431384  23.7459449  10.9377477
  32.7524797  24.2256366  11.4037310  36.0341387  23.1507188   8.1602323
  35.4094457  23.1625580   7.5528276  35.6986982  23.6267363   8.8093563
  35.8926879  23.2225705   8.1658891  35.3032132  24.7600336  10.3777191
  35.4625619  24.0043660  10.7828913  35.1225026  25.3091276  11.0317929
  35.2997491  24.7294150  10.5339897  28.0262905  27.8835413   6.9574435
  27.9206354  27.8382257   6.0926519  27.2763125  28.2289193   7.2388720
  27.8998508  27.9276321   6.8711765  36.7956637  19.3274736   6.9037036
  36.8355009  19.8283942   7.6171743  35.9706302  19.4185129   6.6342959
  36.6796163  19.4156552   6.9687574  36.0254784  19.3344139  14.8367345
  36.6507487  18.7906271  15.1096778  35.5705264  18.8539056  14.2675136
  36.0503045  19.1833620  14.7928939  33.2640121  23.1131600  14.2158947
  33.0942711  23.7732975  13.6707154  32.8206070  23.3238161  14.9371436
  33.1739454  23.2417582  14.2420577  30.1642185  26.0178466   9.4747437
  29.6168905  25.3479111   9.5928305  30.9534563  25.6508314   9.5390904
  30.1994369  25.8643452   9.5016138  28.9229155  25.2299274   6.6293460
  28.7450916  24.7775883   7.3548376  28.6348177  26.0325435   6.8131938
  28.8542108  25.2821831   6.7636963   0.7167324  19.1997311  20.7279038
   0.6491824  19.2193271  19.8581625   0.7022986  20.0427639  20.9534709
   0.7046080  19.3271046  20.6331515   2.8732748  23.0786949  15.9047285
   2.5586189  23.7690428  16.3367707   2.3559690  23.0231731  15.2032785
   2.7497218  23.1721838  15.8644234   7.1647193  31.3008155  21.1868161
   6.3275614  31.3710342  21.4215756   7.1335424  31.3032650  20.3142464
   7.0365475  31.3118382  21.0927709   4.8455033  26.3650937  19.7711884
   5.4880941  26.4349041  20.3573799   5.0978053  25.6980160  19.2691425
   4.9777165  26.2777285  19.7839163   7.2836535  31.1395574  15.5023847
   7.0273100  30.3275515  15.3121730   8.1265849  31.1473141  15.2754034
   7.3702560  31.0207571  15.4408664   1.4639627  25.0795198  20.2400001
   1.8450139  24.3973369  20.6267875   0.6602912  24.7904800  20.0575666
   1.4016089  24.9362246  20.2704057  11.6899907  34.7182619  20.7279038
  11.6224407  34.7378579  19.8581625  11.6755569  35.5612947  20.9534709
  11.6778664  34.8456354  20.6331515   2.0996254  26.1217777  24.0520128
   2.8449846  25.9327587  23.6383553   1.6833558  26.6476015  23.4933984
   2.1481228  26.1719922  23.9084701   9.4758524  33.4927006  19.0025633
  10.0266446  32.8595075  19.2422725   9.4602640  34.0242398  19.6941137
   9.5543721  33.4775954  19.1404491   3.1786931  31.7323339  18.1130229
   2.8351697  31.0113674  18.4637479   3.2779973  31.5237190  17.2708587
   3.1428973  31.5947543  18.0401909   1.6977896  29.6514924  19.9889772
   0.8588997  29.6776203  19.7528035   1.7682263  30.2985659  20.5695119
   1.5846290  29.7511050  20.0398889   2.2907284  21.1880971  17.8513935
   2.4090852  21.6457434  17.1181237   2.1169459  20.3826232  17.5650152
   2.2826455  21.1374743  17.7014868   2.0309207  31.5420903  24.7428561
   1.2185888  31.2346793  24.8241733   2.4899141  31.0619903  25.3071273
   1.9789591  31.4257395  24.8383155   4.3276201  32.1593617  20.7038622
   3.9003809  32.0719965  19.9486721   3.6902254  32.2671392  21.2893466
   4.1705808  32.1626276  20.6784063   1.5107281  25.0133836  17.3394481
   1.7156875  24.9456143  18.1851478   1.1833705  25.8192657  17.2715659
   1.4922529  25.1219776  17.4554136   4.7640969  25.5665600  16.8197247
   4.1515283  26.0536002  17.2050978   4.8605144  24.8909091  17.3634898
   4.6878867  25.5383909  16.9576105   7.3592864  31.4400282  18.2869712
   7.1202634  31.3996116  17.4490497   7.5226765  32.2871434  18.4135433
   7.3483167  31.5592367  18.1823194   3.4223349  32.0021860  15.0208449
   2.7514539  32.5451563  14.8921515   4.1163099  32.4716716  14.7790144
   3.4252217  32.1520131  14.9663977   3.5851477  28.4577744  17.9298823
   3.9379087  28.0307467  18.6044621   2.7266278  28.3728587  18.0599899
   3.5100921  28.3822485  18.0493833   5.0175537  23.5796156  18.8583135
   4.5106401  22.8725295  18.7904313   5.8142970  23.2489345  18.9884212
   5.0602776  23.4269307  18.8682130   0.9339552  30.0862768  14.7556799
   0.7053246  30.1095469  13.9135157   1.1937629  29.2620235  14.8751809
   0.9385741  29.9678848  14.6481997   3.6596259  29.0762705  15.0059957
   3.6590485  28.9211362  15.8644234   3.4552439  29.9225692  14.9501343
   3.6296037  29.1783326  15.1247897   3.4835340  28.0801447  21.8253335
   2.8998329  28.5810654  21.4130903   3.8039634  27.5731004  21.1917659
   3.4448515  28.0793282  21.6711843   1.9425094  15.4487017  15.2307794
   2.6491861  14.9539048  15.3594728   2.1313029  15.8896099  14.5010452
   2.0752999  15.4405368  15.1416839   7.3644059  15.5915886   4.3257787
   6.5341762  15.8026529   4.4891203   7.3153311  14.7652940   4.0500070
   7.2350794  15.5005492   4.3095152   4.6208374  16.2615240   4.4622502
   4.1843606  16.2651982   5.2181474   4.2871289  16.9420739   4.0302080
   4.5070994  16.3627696   4.5103335   4.6612518  15.2323301  12.2722446
   4.4251156  14.4011366  12.1534507   5.3055747  15.1808908  12.8577291
   4.7207189  15.1020989  12.3408340   5.6848939  15.0167750   8.3350741
   5.3794756  15.7495807   8.6964057   4.9655155  14.6105679   8.0543527
   5.5336281  15.0649483   8.3463878  11.3850731  11.6560751   7.6619085
  11.3175231  11.6756710   6.7921672  11.3706393  12.4991078   7.8874756
  11.3729487  11.7834485   7.5671562   9.1709348  10.4305137   5.9365680
   9.7217270   9.7973206   6.1762772   9.1553464  10.9620530   6.6281184
   9.2494545  10.4154085   6.0744538   3.0360109  15.8255148   6.6203401
   2.8974468  16.5236194   7.1252144   2.2560107  15.6703805   6.2639583
   2.9003336  15.9055315   6.6429675   1.3738194  12.1251524  12.8725783
   1.3686232  11.2531340  12.8768209   2.0799188  12.3239693  12.3995239
   1.4783198  12.0255398  12.8032818   2.2848781  16.1876312  17.7989912
   3.0983646  15.9161460  17.9595045   2.1243747  15.8883851  16.9950108
   2.3818729  16.1031238  17.7035318   1.7260031   8.4799034  11.6768608
   0.9136712   8.1724924  11.7581780   2.1849965   7.9998034  12.2411320
   1.6740415   8.3635526  11.7723202   2.2970025  17.2482602  13.0712753
   2.9349745  16.7542797  12.7375209   1.6544116  17.1760002  12.4864980
   2.2964251  17.1641610  12.9355108   2.3524281  17.9402410   9.7118110
   3.1416659  17.5891475   9.8320191   2.5267879  18.7538798   9.4494743
   2.4944563  18.0088267   9.6905977   8.1016821  13.5760668   9.1814810
   8.1599945  14.0247317   9.9274786   7.4683289  13.9859481   8.7444890
   8.0168116  13.7034402   9.2267358   1.7415916  19.1964210   5.6169556
   1.5435604  19.6855024   4.9225767   1.1203627  19.4005451   6.1953689
   1.6203480  19.2980748   5.5992779   5.0538501  11.5976955   7.2680500
   4.8136723  10.7583371   7.2722926   5.5330508  11.6777122   7.9921273
   5.0890684  11.4858355   7.3755302   3.6589718  12.7628362  11.1514804
   4.3823917  12.3100888  10.9725824   3.3939680  13.0433028  10.3687132
   3.7270991  12.7379331  11.0093519   6.0925032  11.7254773   9.6545354
   6.6842872  12.3652024   9.6863552   6.5284026  11.0277810   9.9437421
   6.2443463  11.7173123   9.7026186   3.1439754  13.4442026   8.2813340
   3.5694825  12.9216448   7.7283765   2.7796673  14.0422863   7.7601963
   3.1526356  13.4552253   8.1222349   1.8195338  18.7677603  16.7906569
   1.9292303  17.9786164  17.1463316   2.1486234  18.6783540  15.9880907
   1.8847743  18.6383456  16.7248960  16.4064276  25.6110149   0.8694407
  16.3758280  26.4654785   1.0412677  17.0045625  25.3105441   1.4280551
  16.4901434  25.6926645   0.9769210   9.6063961  24.6985800   5.6247338
   8.7501856  24.8594298   5.6756455   9.6531615  23.8277864   5.6452399
   9.4863072  24.5936601   5.6353404  12.9157677  30.9672325  15.2307794
  13.6224445  30.4724356  15.3594728  13.1045613  31.4081407  14.5010452
  13.0485583  30.9590676  15.1416839  12.4515782  26.7577844   8.2678989
  12.9971742  27.4362930   8.3272959  12.3932658  26.6165304   7.4080571
  12.5231696  26.8369845   8.1491050   0.7914121  25.9825208   8.4227552
   0.6672818  26.5687654   9.0577371   1.4432406  25.4885404   8.7239827
   0.8687771  25.9964013   8.5613482   5.8172462  29.1586925   7.7015063
   6.4621465  28.6659369   7.3826012   6.0574240  29.3011712   8.5281142
   5.9483048  29.1064368   7.7764597   8.3558554  32.0041831   7.3521956
   8.6381797  31.2093237   7.1308712   9.0844714  32.4822419   7.3727017
   8.5048118  31.9576428   7.3224971   6.3339748  19.5464865   4.5937721
   6.0043078  19.9976009   3.9241420   5.6584749  19.4681029   5.1410727
   6.1850184  19.6016000   4.5760944  13.5416155  15.5350388   2.8387332
  13.2269596  16.2253867   3.2707754  13.0243097  15.4795170   2.1372832
  13.4180626  15.6285277   2.7984281  12.8828589  25.5354889  -1.0475258
  12.3540061  25.7514523  -0.3877952  13.4053609  26.2291028  -1.1274288
  12.8817042  25.6698026  -0.9619659  18.3376642  31.1101193   4.3257787
  17.5074345  31.3211837   4.4891203  18.2885894  30.2838248   4.0500070
  18.2083378  31.0190800   4.3095152  10.0549972  34.3899862  13.1221869
  10.1433318  34.2026002  13.9700080  10.4839684  33.7437291  12.7226716
  10.1312074  34.2662869  13.1893621   7.6220431  33.6731022  12.1039531
   7.0591266  33.2603632  12.6279193   8.3841455  33.5983927  12.5232675
   7.6514880  33.6008422  12.2432532  17.8330600  23.7571594   8.1208208
  16.9959022  23.8273781   8.3555802  17.8018831  23.7596089   7.2482510
  17.7048883  23.7681821   8.0267756   4.2295329  25.9004630  13.8356577
   4.4015833  25.7910524  14.6841858   4.7664687  26.5459035  13.5987769
   4.3340333  25.9796631  13.9261673  12.5560786  27.9527271   3.7120099
  13.3118301  28.3858785   3.7509008  12.6623111  27.3032040   4.2854735
  12.6830957  27.9204755   3.8018125  15.5940957  31.7800548   4.4622502
  15.1576189  31.7837290   5.2181474  15.2603873  32.4606047   4.0302080
  15.4803577  31.8813004   4.5103335  10.1670031  33.8208881  15.7865653
  10.9510448  33.9339729  16.1521395   9.9666626  32.9950018  15.9824339
  10.2536056  33.7155600  15.8700039  15.5138440  18.8214376   6.7051930
  16.1564349  18.8912480   7.2913846  15.7661461  18.1543599   6.2031472
  15.6460572  18.7340724   6.7179210   3.2855653  22.0314939  11.3176504
   2.5927450  21.5611919  11.5637236   3.9015980  21.8053244  11.8918211
   3.2740183  21.9282071  11.4385657  18.7285304  28.4981468   3.3542140
  19.3901738  27.9372136   3.2538048  18.0876716  28.0033499   3.6794831
  18.7314171  28.3417877   3.3874480  15.0150134  29.5146850   3.0954128
  15.2505723  29.6592049   2.2680979  15.1639698  30.2789258   3.4885642
  15.0715938  29.6485905   3.0317732   2.0096212  25.9980343  12.4603350
   2.7336184  25.9833374  12.9468244   2.1112348  26.7075698  11.9625318
   2.1314421  26.1005046  12.4582136   9.3841161  29.4779428  17.3252297
   8.5914142  29.7922940  17.5104916   9.4990088  29.6930896  16.4873081
   9.2836572  29.5563264  17.2290631  12.0572480  26.2013419   1.6147312
  12.1519335  26.9402713   2.0686938  11.4331324  25.7730894   2.0481877
  11.9781510  26.2474739   1.7455460  10.3124954  29.3799631  12.2637593
  10.8863816  28.7426876  12.4186157  10.2339758  29.3803714  11.3947251
  10.3858189  29.2864743  12.1584004  10.7489723  19.9151347   4.4162883
  10.0446049  19.4260533   4.5746802  10.7974697  19.9273822   3.5451328
  10.6519774  19.8440995   4.3102223   4.6423385  25.3660659   4.8023685
   4.0672976  25.5252827   5.4387646   4.2659061  24.7296068   4.3392136
   4.5026197  25.2958472   4.8278244   8.3096673  23.8384008   9.6616064
   7.9211106  23.4138226   9.0068255   7.6451372  24.0866158  10.1693090
   8.1543601  23.8122729   9.6403932  17.9519943  23.5959013   2.4363894
  17.6956507  22.7838955   2.2461777  18.7949257  23.6036580   2.2094081
  18.0385968  23.4771010   2.3748711  12.1323035  17.5358637   7.1740048
  12.5133547  16.8536808   7.5607922  11.3286319  17.2468239   6.9915713
  12.0699497  17.3925686   7.2044104  15.6345102  30.7508609  12.2722446
  15.3983739  29.9196674  12.1534507  16.2788331  30.6994216  12.8577291
  15.6939773  30.6206297  12.3408340   6.0914875  20.0412835  17.0402657
   5.7768316  20.8112398  16.7772219   5.7704808  19.4783091  16.4554883
   5.9973794  20.0723104  16.9144006  16.6581522  30.5353058   8.3350741
  16.3527339  31.2681115   8.6964057  15.9387738  30.1290987   8.0543527
  16.5068865  30.5834791   8.3463878  22.3583315  27.1746059   7.6619085
  22.2907815  27.1942018   6.7921672  22.3438977  28.0176386   7.8874756
  22.3462071  27.3019793   7.5671562  12.7679661  18.5781216  10.9860175
  13.5133253  18.3891027  10.5723600  12.3516966  19.1039454  10.4274031
  12.8164635  18.6283362  10.8424748  20.1441932  25.9490445   5.9365680
  20.6949853  25.3158514   6.1762772  20.1286047  26.4805838   6.6281184
  20.2227128  25.9339393   6.0744538   6.7964323  29.7829042  10.4825573
   6.2976016  30.4944810  10.5610461   7.6064547  30.1029709  10.4443735
   6.8420429  29.9355891  10.4882142  13.8470338  24.1886778   5.0470276
  13.5035104  23.4677114   5.3977525  13.9463381  23.9800630   4.2048634
  13.8112381  24.0510982   4.9741956   5.7231381  22.6410086  15.7787871
   4.9131157  22.9467866  15.6677714   6.2006067  23.3615669  15.8940455
   5.6734860  22.7924688  15.7794942  12.3661304  22.1078363   6.9229819
  11.5272404  22.1339642   6.6868082  12.4365671  22.7549099   7.5035165
  12.2529697  22.2074489   6.9738936   2.0575413  28.1772637  10.6487274
   2.5696510  28.4556890   9.9996033   1.7711755  28.9161931  11.0150087
   2.0910276  28.3274990  10.6077152  10.8130582  19.0063740   1.6557435
  11.5156935  18.8071488   1.1777393  10.5474771  18.2339683   1.9626278
  10.8777214  18.8626706   1.6302876  16.2418827  27.3146350   4.2091060
  16.1552802  27.4701776   5.0625839  15.7869307  27.9584425   3.8350466
  16.1622084  27.4322105   4.2798167   5.5759138  20.2699025  10.7088315
   5.3842335  20.2854160  11.5587739   6.4257734  20.4662700  10.6854970
   5.6734860  20.3013377  10.8311610  10.1144643  24.6357097   2.8316620
   9.8679358  24.5552848   3.6653409  10.4429767  23.8510565   2.6379148
  10.1265887  24.5083362   2.9264143  14.0092692  31.3440456   6.6203401
  13.8707052  32.0421502   7.1252144  13.2292690  31.1889113   6.2639583
  13.8735919  31.4240623   6.6429675  12.3470777  27.6436832  12.8725783
  12.3418816  26.7716648  12.8768209  13.0531771  27.8425001  12.3995239
  12.4515781  27.5440706  12.8032818   6.0741671  27.3713816  12.2439603
   6.2185046  27.9515024  11.6082713   6.4217319  27.7490112  12.9489458
   6.1469132  27.5134520  12.2538598   8.2461588  26.5703984  10.0264735
   7.4984902  26.7634998   9.6213013   8.4003113  25.7449204   9.7888856
   8.1584016  26.4769095   9.9310141   8.4863365  20.4654535  10.9160138
   8.9435979  21.1978509  11.0432931   8.5619694  20.0421000  11.6747394
   8.5654335  20.5111773  11.0461215  12.9590691  13.6444410   4.7853981
  13.0774259  14.1020873   4.0521284  12.7852867  12.8389671   4.4990199
  12.9509862  13.5938182   4.6354915   6.3645743  22.4556639   7.7601962
   5.5741818  22.2748099   8.0819298   6.7606366  21.6783591   7.7432257
   6.3062619  22.3144100   7.8054511  11.7489429  30.0899069   5.4861408
  11.0734431  29.8584301   5.9874795  11.7581805  29.4820252   4.8603513
  11.6507934  29.9657994   5.4677561   8.8783573  24.9316898  12.2425461
   8.8142715  25.7926854  12.1145598   9.0180761  24.6148891  11.4421013
   8.8899043  25.0117064  12.1053674   7.5602667  27.6249037   6.3841664
   7.1364916  27.8253536   5.6480683   7.3847522  26.7777885   6.4965964
   7.4713548  27.5297819   6.2915354  13.2581364  31.7061619  17.7989912
  14.0716229  31.4346768  17.9595045  13.0976331  31.4069159  16.9950108
  13.3551313  31.6216545  17.7035318  10.5353526  22.3895277  10.7385300
  10.7495496  21.7506191  10.1848654   9.9187425  22.8341100  10.3093162
  10.4758855  22.3605420  10.5935732  12.6992614  23.9984342  11.6768608
  11.8869296  23.6910232  11.7581780  13.1582549  23.5183342  12.2411320
  12.6472999  23.8820834  11.7723202   9.9268255  15.4995212   5.7272643
   9.0561813  15.4733933   5.6805953  10.1808596  15.3272404   4.9098489
   9.8361815  15.4705356   5.5992780   9.7946122  25.4044413  16.4597310
  10.2645753  26.0286530  16.8465184   9.8408002  24.7361389  17.0190525
   9.8713998  25.3979094  16.5997381   6.9517395  17.5101441   7.1846114
   6.4355884  16.8181632   7.3097693   6.3911324  18.1772218   7.1308712
   6.7923909  17.5064698   7.1952180   9.0209629  18.0494401   9.0138966
   8.6341382  18.0743432   9.7952496   8.5342566  17.4836079   8.5613483
   8.8922138  17.9690152   9.0626870  13.2702608  32.7667910  13.0712753
  13.9082329  32.2728105  12.7375209  12.6276700  32.6945310  12.4864980
  13.2696835  32.6826918  12.9355108  14.9959608  24.6157056   7.6378668
  14.5687216  24.5283404   6.8826768  14.3585661  24.7234831   8.2233512
  14.8389216  24.6189716   7.6124110   8.6866771  14.9361386  11.3049226
   9.3159888  15.4721686  11.0270296   8.8552633  14.8438745  12.1562792
   8.8044565  15.0022748  11.3897754   8.4880685  19.7232581  13.5775638
   9.3154115  19.4517730  13.6334252   8.5088531  20.5193423  13.9339456
   8.6133535  19.8012335  13.6390821  13.3256865  33.4587718   9.7118110
  14.1149243  33.1076783   9.8320191  13.5000463  34.2724106   9.4494743
  13.4677146  33.5273575   9.6905977   3.0650175  26.8696444   6.7645898
   2.2238182  26.7700318   6.9724792   3.2740183  27.6391924   7.1160219
   2.9714868  26.9688487   6.8473213  12.1790689  17.4697275   4.2734528
  12.3840282  17.4019583   5.1191525  11.8517113  18.2756096   4.2055705
  12.1605937  17.5783215   4.3894183   6.8766840  24.7977843   6.0143496
   6.5729978  24.2433831   6.6153904   6.1746261  24.9770053   5.5271530
   6.7283050  24.7422625   6.0313202   4.9385191  32.0127564  10.7215594
   4.8305546  32.0229626  11.5877652   5.1480973  32.8382344  10.5320547
   4.9535302  32.1368638  10.8219685  15.4324377  18.0229039   3.7537293
  14.8198690  18.5099441   4.1391025  15.5288552  17.3472530   4.2974945
  15.3562274  17.9947348   3.8916152   3.3519606  20.4242204   8.8505549
   3.8121087  20.4981133   9.5880673   3.3975713  21.2223458   8.5005370
   3.4270161  20.5536351   8.9078305   5.0002956  21.0908899  13.4177576
   4.6088521  20.4442246  13.8533354   5.1688818  21.6820334  14.0371831
   4.9673866  21.0823167  13.5740282  19.0749405  29.0945976   9.1814810
  19.1332528  29.5432624   9.9274786  18.4415872  29.5044789   8.7444890
  18.9900700  29.2219710   9.2267358  12.7148499  34.7149518   5.6169556
  12.5168188  35.2040332   4.9225767  12.0936210  34.9190759   6.1953689
  12.5936064  34.8166056   5.5992779   8.6936053  18.2784673   4.9911661
   7.8472098  18.4507481   4.8653011   8.6907186  17.4734017   5.3277490
   8.5683203  18.1845702   5.0222788   9.7634354  22.0559888   5.8573719
   9.2894308  21.5301650   6.3679030  10.1352489  21.5089361   5.2888581
   9.7484242  21.8975884   5.8488867  16.0271084  27.1162263   7.2680500
  15.7869307  26.2768679   7.2722926  16.5063091  27.1962430   7.9921273
  16.0623268  27.0043663   7.3755302  11.6917853  22.9496442  -1.0800527
  11.1640872  23.0325186  -1.7694818  12.1513561  23.6914314  -1.0835882
  11.6819704  23.0717105  -1.1825832  18.0276271  23.8963721   5.2209759
  17.7886041  23.8559555   4.3830544  18.1910172  24.7434873   5.3475480
  18.0166575  24.0155806   5.1163241  14.6322301  28.2813670  11.1514804
  15.3556500  27.8286196  10.9725824  14.3672264  28.5618336  10.3687132
  14.7003575  28.2564638  11.0093519   3.5009170  22.8773843   7.8867683
   2.8762240  22.8892235   7.2793636   3.1654765  23.3534019   8.5358923
   3.3594661  22.9492360   7.8924252  10.4141091  28.3797548   9.3009819
   9.7998084  27.8355598   9.5958454  10.9308376  27.8661785   8.8215635
  10.3996753  28.2233957   9.2734048   9.6537388  29.4501818   7.0354118
   9.2264996  28.8251537   6.6019553   9.6462332  29.1676740   7.8613125
   9.5896529  29.3154599   7.0933945   2.7699915  24.4866991  10.1042552
   2.9293402  23.7310315  10.5094274   2.5892809  25.0357931  10.7583289
   2.7665274  24.4560805  10.2605258  10.7120218  16.6528227  10.6593341
  10.2160779  16.8491901   9.9684908  11.4689280  17.0520895  10.4882143
  10.7507043  16.7405961  10.5313478   7.9823098  20.3270573   7.2496652
   8.0065585  19.7930685   6.5609432   8.2334571  19.8187882   7.9122242
   8.0233016  20.1731477   7.2461296   4.2624420  19.0541391   6.6302396
   4.3022791  19.5550598   7.3437103   3.4374085  19.1451785   6.3608319
   4.1463946  19.1423207   6.6952934   6.4454033  28.6202131  14.7322691
   5.5949663  28.7573845  14.8680336   6.6082160  27.8865909  15.1770392
   6.3437896  28.5316232  14.8178290   5.6838783  25.5701901   8.9276295
   4.8530713  25.7375719   8.7211543   5.6290300  25.1937852   9.7125180
   5.5528198  25.5391632   9.0124823   3.4922566  19.0610794  14.5632706
   4.1175270  18.5172927  14.8362138   3.0373046  18.5805711  13.9940496
   3.5170827  18.9100275  14.5194300  17.0657615  27.2440081   9.6545354
  17.6575455  27.8837331   9.6863552  17.5016610  26.5463117   9.9437421
  17.2176046  27.2358431   9.7026186   8.8951005  31.6657453  10.2803248
   8.3876096  32.2193300  10.7243878   8.5977651  31.7265743   9.4622022
   8.7755890  31.7563764  10.2251704  11.0613187  20.0310773   9.1227911
  11.4868259  19.5783299   8.5111437  10.4470180  19.4770843   9.3992698
  11.0341833  19.8824749   9.0732936  14.0906757  24.4585299   1.9548496
  13.4197946  25.0015002   1.8261562  14.7846507  24.9280155   1.7130191
  14.0935624  24.6083571   1.9004024  14.2534884  20.9141183   4.8638870
  14.6062494  20.4870906   5.5384668  13.3949686  20.8292027   4.9939946
  14.1784329  20.8385924   4.9833880  12.2518150  24.1776552   8.8123712
  12.2316077  23.9959847   9.6658491  12.2997351  25.0488570   8.7883295
  12.2552791  24.2793090   8.9347007  10.1964480  30.7663744  14.7372188
  10.1560335  30.1213421  14.1517344  11.0087798  30.7100361  15.0497600
  10.3107633  30.6622710  14.6969137  15.6858944  16.0359595   5.7923182
  15.1789809  15.3288734   5.7244360  16.4826378  15.7052784   5.9224259
  15.7286183  15.8832746   5.8022177  11.6022960  22.5426207   1.6896846
  11.3736653  22.5658909   0.8475204  11.8621036  21.7183674   1.8091856
  11.6069148  22.4242287   1.5822043   5.8842188  24.3960680  11.2921946
   5.3721092  23.7881863  11.6506977   5.7121685  25.1117273  11.7595922
   5.7831825  24.4123979  11.4138170   4.6567723  21.0802753   2.9851041
   5.1325089  21.4419833   2.3501223   4.1556322  21.7359221   3.2651184
   4.6533081  21.2296942   2.9327782   9.7611259  22.3184925  13.7324202
  10.3182689  22.0898734  13.1002667   9.4372324  23.0790590  13.4559414
   9.7957669  22.3968761  13.5980699   7.4794376  25.4052578  14.6976209
   8.2305703  25.7204255  15.0115763   7.6716953  25.2031749  13.8710130
   7.6185790  25.4219960  14.6219604  14.3279666  21.5326144   1.9400004
  14.3273893  21.3774801   2.7984280  14.1235846  22.3789131   1.8841390
  14.2979444  21.6346765   2.0587943  12.0520518  26.2123646   5.5936211
  12.5474184  25.4946641   5.5540231  11.2420294  25.9094444   5.4790698
  12.0064412  26.0621292   5.5709937  14.1172337  28.9627334   8.2813340
  14.5427409  28.4401756   7.7283765  13.7529257  29.5608171   7.7601963
  14.1258940  28.9737561   8.1222349  10.7050937  32.6761598   4.6114497
  11.1762115  33.3901861   4.7804482  11.0411115  32.0760348   5.1474367
  10.8246052  32.6933062   4.7146873  12.7927921  34.2862911  16.7906569
  12.9024887  33.4971472  17.1463316  13.1218818  34.1968848  15.9880907
  12.8580327  34.1568764  16.7248960   7.6220432  17.4489069  11.5672592
   7.7548337  16.6520062  11.8953568   8.0065584  17.9755472  12.1470868
   7.6976760  17.4088985  11.7016095  11.3424883  32.4679532  11.3742190
  10.7945829  31.8437416  11.1062255  11.8037912  32.6573804  10.6586269
  11.3292092  32.4038582  11.2292621  10.6952787  14.3719395   8.1653685
   9.8898750  14.2617124   8.4821524  10.5659522  14.4731850   7.3083551
  10.5572920  14.3703065   8.0861726  14.1518747  20.5364887   8.7593382
  13.5681736  21.0374093   8.3470950  14.4723041  20.0294443   8.1257705
  14.1131923  20.5356722   8.6051889   5.2808878  17.4448244   9.8150486
   5.8253291  17.1039370  10.4054827   5.3345814  18.3033705   9.9571770
   5.3697998  17.5203503   9.9232359  10.9083209  33.4730605   7.9051531
  11.7281583  33.3293571   8.1667826  10.6277287  34.0976804   8.4467969
  10.9879953  33.5440957   8.0239470  23.1055619  33.0543945   7.1740048
  23.4866130  32.3722116   7.5607922  22.3018903  32.7653547   6.9915713
  23.0432080  32.9110994   7.2044104  17.0647459  35.5598143  17.0402657
  16.7500900  36.3297706  16.7772219  16.7437392  34.9968399  16.4554883
  16.9706378  35.5908412  16.9144006  23.7412245  34.0966524  10.9860175
  24.4865837  33.9076335  10.5723600  23.3249549  34.6224762  10.4274031
  23.7897219  34.1468670  10.8424748  16.5491722  35.7884333  10.7088315
  16.3574919  35.8039468  11.5587739  17.3990318  35.9848008  10.6854970
  16.6467444  35.8198684  10.8311610  19.4595949  35.9839843  10.9160138
  19.9168563  36.7163817  11.0432931  19.5352277  35.5606308  11.6747394
  19.5386919  36.0297081  11.0461215  17.3378327  37.9741947   7.7601962
  16.5474401  37.7933407   8.0819298  17.7338949  37.1968899   7.7432257
  17.2795203  37.8329407   7.8054511  21.5086110  37.9080585  10.7385300
  21.7228079  37.2691499  10.1848654  20.8920009  38.3526408  10.3093162
  21.4491439  37.8790728  10.5935732  23.6725198  39.5169650  11.6768608
  22.8601879  39.2095540  11.7581780  24.1315132  39.0368650  12.2411320
  23.6205583  39.4006142  11.7723202  20.9000838  31.0180520   5.7272643
  20.0294396  30.9919241   5.6805953  21.1541180  30.8457712   4.9098489
  20.8094398  30.9890664   5.5992780  17.9249979  33.0286749   7.1846114
  17.4088467  32.3366940   7.3097693  17.3643908  33.6957526   7.1308712
  17.7656492  33.0250006   7.1952180  19.9942212  33.5679709   9.0138966
  19.6073965  33.5928740   9.7952496  19.5075150  33.0021387   8.5613483
  19.8654721  33.4875460   9.0626870  19.6599354  30.4546694  11.3049226
  20.2892472  30.9906994  11.0270296  19.8285217  30.3624053  12.1562792
  19.7777149  30.5208056  11.3897754  19.4613269  35.2417889  13.5775638
  20.2886698  34.9703038  13.6334252  19.4821115  36.0378731  13.9339456
  19.5866119  35.3197643  13.6390821  14.3252189  35.9427512   8.8505549
  14.7853671  36.0166441   9.5880673  14.3708296  36.7408766   8.5005370
  14.4002745  36.0721659   8.9078305  15.9735539  36.6094207  13.4177576
  15.5821104  35.9627554  13.8533354  16.1421402  37.2005642  14.0371831
  15.9406450  36.6008474  13.5740282  19.6668637  33.7969981   4.9911661
  18.8204682  33.9692789   4.8653011  19.6639769  32.9919325   5.3277490
  19.5415787  33.7031010   5.0222788  21.6852802  32.1713535  10.6593341
  21.1893363  32.3677209   9.9684908  22.4421864  32.5706203  10.4882143
  21.7239626  32.2591269  10.5313478  18.9555681  35.8455881   7.2496652
  18.9798168  35.3115993   6.5609432  19.2067155  35.3373189   7.9122242
  18.9965600  35.6916785   7.2461296  15.2357003  34.5726699   6.6302396
  15.2755375  35.0735905   7.3437103  14.4106668  34.6637093   6.3608319
  15.1196529  34.6608515   6.6952934  14.4655150  34.5796102  14.5632706
  15.0907853  34.0358234  14.8362138  14.0105630  34.0991019  13.9940496
  14.4903411  34.4285583  14.5194300  22.0345771  35.5496081   9.1227911
  22.4600842  35.0968607   8.5111437  21.4202764  34.9956151   9.3992698
  22.0074416  35.4010057   9.0732936  20.7343842  37.8370233  13.7324202
  21.2915273  37.6084042  13.1002667  20.4104907  38.5975898  13.4559414
  20.7690253  37.9154069  13.5980699  18.5953015  32.9674376  11.5672592
  18.7280921  32.1705370  11.8953568  18.9798168  33.4940779  12.1470868
  18.6709344  32.9274293  11.7016095  21.6685370  29.8904703   8.1653685
  20.8631334  29.7802432   8.4821524  21.5392106  29.9917158   7.3083551
  21.5305503  29.8888373   8.0861726  16.2541462  32.9633552   9.8150486
  16.7985875  32.6224678  10.4054827  16.3078398  33.8219013   9.9571770
  16.3430581  33.0388811   9.9232359  23.5841085  23.4235764   2.1647841
  24.2907852  22.9287795   2.2934775  23.7729020  23.8644846   1.4350499
  23.7168991  23.4154115   2.0756886  14.8978737  18.3568069   0.7696623
  15.0699241  18.2473964   1.6181905  15.4348095  19.0022474   0.5327816
  15.0023741  18.4360071   0.8601720  20.8353439  26.2772320   2.7205700
  21.6193855  26.3903168   3.0861442  20.6350033  25.4513457   2.9164385
  20.9219464  26.1719039   2.8040086  12.6779619  18.4543782  -0.6056604
  13.4019592  18.4396813  -0.1191709  12.7795756  19.1639137  -1.1034635
  12.7997828  18.5568485  -0.6077817  20.0524569  21.9342867   4.2592343
  19.2597549  22.2486379   4.4444963  20.1673496  22.1494335   3.4213128
  19.9519979  22.0126704   4.1630678  16.7598283  12.4976274   3.9742703
  16.4451724  13.2675837   3.7112266  16.4388215  11.9346530   3.3894930
  16.6657202  12.5286543   3.8484053  16.3914788  15.0973526   2.7127918
  15.5814564  15.4031305   2.6017760  16.8689475  15.8179108   2.8280502
  16.3418267  15.2488127   2.7134989  23.0154185  20.1000271  -0.1934170
  23.0102223  19.2280087  -0.1891744  23.7215179  20.2988440  -0.6664715
  23.1199189  20.0004145  -0.2627135  16.7425078  19.8277255  -0.8220350
  16.8868454  20.4078463  -1.4577240  17.0900727  20.2053551  -0.1170495
  16.8152540  19.9697959  -0.8121355  18.9144996  19.0267423  -3.0395219
  18.1668310  19.2198437  -3.4446940  19.0686521  18.2012643  -3.2771097
  18.8267423  18.9332534  -3.1349813  19.5466981  17.3880337  -0.8234492
  19.4826122  18.2490293  -0.9514355  19.6864169  17.0712330  -1.6238941
  19.5582451  17.4680503  -0.9606279  23.9264772  24.1625059   4.7329959
  24.7399637  23.8910207   4.8935091  23.7659738  23.8632599   3.9290155
  24.0234720  24.0779985   4.6375365  23.3676022  16.4547781  -1.3891346
  22.5552703  16.1473671  -1.3078173  23.8265956  15.9746781  -0.8248633
  23.3156406  16.3384273  -1.2936751  20.4629529  17.8607852   3.3937357
  20.9329160  18.4849969   3.7805231  20.5091409  17.1924828   3.9530571
  20.5397405  17.8542533   3.5337428  19.1564093  12.1796020   0.5115685
  19.9837522  11.9081169   0.5674299  19.1771939  12.9756862   0.8679503
  19.2816943  12.2575774   0.5730867  17.1137440  21.0765570   1.6662737
  16.2633071  21.2137284   1.8020382  17.2765568  20.3429348   2.1110439
  17.0121304  20.9879671   1.7518337  20.8647887  23.2227183   1.6712235
  20.8243742  22.5776860   1.0857391  21.6771205  23.1663800   1.9837647
  20.9791041  23.1186150   1.6309184  20.4294666  14.7748364   0.6664248
  20.9866096  14.5462173   0.0342714  20.1055731  15.5354030   0.3899461
  20.4641076  14.8532201   0.5320745  18.1477784  17.8616017   1.6316255
  18.8989111  18.1767694   1.9455810  18.3400360  17.6595188   0.8050177
  18.2869198  17.8783399   1.5559651  23.4611329  26.7426350   3.7246616
  23.5708294  25.9534911   4.0803363  23.7902225  26.6532287   2.9220954
  23.5263734  26.6132203   3.6589007
  37.9891972  37.9891972  37.9891972 109.4712190 109.4712190 109.4712190
