ACE
  4712
  16.7750211  20.1553807  14.2240717  16.8169021  20.5540835  15.2376703
  15.8041771  20.6965793  15.6147398  17.3395424  21.5105891  15.2311068
  17.5577562  19.5985627  16.1752285  18.0140406  18.5386409  15.7523689
  17.6733299  19.9809208  17.4490692  17.2812931  20.8619343  17.7494382
  18.3524656  19.1645853  18.4349562  17.8528073  18.1991245  18.5144928
  19.8077850  18.9294236  18.0446118  19.8484919  18.4192720  17.0822254
  20.3237057  19.8866840  17.9699238  20.6003513  18.0860411  19.0144810
  21.9476656  17.8045558  18.7585342  22.4245315  18.1941974  17.8591576
  22.6824949  17.0226107  19.6577499  23.7314766  16.8034552  19.4584786
  22.0700113  16.5221509  20.8129135  22.6421279  15.9133514  21.5130175
  20.7226962  16.8036344  21.0688633  20.2458336  16.4139916  21.9682412
  19.9878639  17.5855797  20.1696497  18.9388835  17.8047350  20.3689254
  18.3398102  19.8328764  19.8023300  17.7992398  20.9256391  19.9575511
  18.9383514  19.1722646  20.7960932  19.3692802  18.2760977  20.6192187
  18.9940256  19.7022812  22.1435296  18.4899600  20.6681923  22.1756894
  18.4993455  19.0119538  22.8267867  20.0347117  19.8259681  22.4431529
  20.5494379  26.7894917  36.5534528  20.2145747  27.4671838  36.1178751
  21.0621249  26.4000228  35.9651400  20.5759960  26.8319495  36.4021320
  23.0574475  21.0491125  37.1891419  22.9725770  21.9052091  37.3340988
  23.5458858  20.7735449  37.8573578  23.1163372  21.1348446  37.3093501
  23.9892908  17.6675919  38.6889154  23.4604379  17.8835552  39.3486460
  24.5117928  18.3612057  38.6090124  23.9881361  17.8019056  38.7744753
  15.8792516  21.5639136  37.4896622  15.2949731  22.0689167  37.8962486
  15.4762611  21.3381523  36.7493214  15.7331819  21.6047384  37.4401647
  20.3369730  17.8104788  35.9665543  20.5765734  18.0182771  35.1540886
  20.6585571  17.0062296  36.0754487  20.4206888  17.7218889  35.8626096
  13.5479112  15.4242675  35.0225667  12.8337289  15.1380855  35.4348099
  14.0323081  15.7639301  35.6632054  13.5138475  15.4324325  35.1781302
  20.7226430  23.9272629  35.3987475  21.1377578  23.5957653  34.7071971
  19.8918360  23.6941531  35.2707612  20.6614439  23.8443885  35.2778322
  23.4159820  20.1783188  34.5848676  23.3339983  20.2485376  35.4503663
  24.0539541  20.7412932  34.3932417  23.4979657  20.2722160  34.6838626
  20.5199930  20.2003643  37.5957283  21.3340569  20.4918536  37.4840054
  20.4559072  19.5463505  37.0215576  20.6302669  20.1468837  37.4946120
  17.0310654  18.8927450  37.0604484  17.4155806  18.6735157  37.8121029
  16.7822274  19.7190395  37.1905561  17.0512726  18.9825596  37.1905561
  14.3689032  22.8168276  40.3895071  15.1235000  23.1981315  40.6030534
  13.7759645  23.2679420  40.8441768  14.3925746  22.9397103  40.4877949
  17.1153585  21.0180856  41.1616677  16.9196367  21.6255591  40.5676980
  17.3387930  20.3248800  40.6808351  17.1188226  21.0058382  41.0032758
  21.9575952  23.4165443  32.9373088  22.7248938  23.4765568  32.5278940
  21.5107261  22.8445884  32.4529407  22.0049380  23.3402018  32.8050798
  18.6615025  25.0197353  37.7067440  18.7307845  24.1611892  37.8460440
  19.4403480  25.2369234  37.3786465  18.7867875  24.9250217  37.6784597
  18.0050553  19.6884209  34.4010198  18.2943078  20.4649091  34.6753773
  18.0922352  19.1772940  35.1024698  18.0604809  19.7276127  34.5452696
  17.8820796  18.6155444  39.6944212  18.6262841  19.0029721  39.9327162
  18.0281492  17.7712870  39.8584700  18.0131381  18.5485917  39.7538182
  22.7982172  15.0817472  38.6563885  22.2705190  15.1646216  37.9669594
  23.2577880  15.8235344  38.6528530  22.7884022  15.2038135  38.5538580
  14.7915237  13.3519992  33.6804780  14.4428041  14.0039717  34.1436330
  14.3111683  13.3377105  32.9528652  14.6685481  13.4463045  33.6415872
  15.1939368  16.8445633  36.5223402  15.8284447  17.4406058  36.4572863
  15.2764979  16.5449091  37.3369272  15.2995919  16.8886541  36.6326488
  16.7718351  12.7759609  36.4968844  17.0934192  12.2962691  35.8428106
  17.0345295  13.5859255  36.3059655  16.8584376  12.8249507  36.3724336
  19.8329462  14.7167732  37.9959508  19.2394301  15.0384729  37.4444075
  19.8704740  13.8708828  37.7880614  19.7503851  14.6392061  37.8842279
  17.8058694  15.3564983  36.0888837  18.1857659  15.3744612  35.3039952
  17.0651290  15.8018972  35.9679685  17.7527532  15.4246758  35.9552406
  18.6043448  22.1942489  37.4797627  17.7954771  21.8709163  37.4330937
  19.1118357  21.4875711  37.4125876  18.5593115  22.0423806  37.4627922
  14.7920243   3.3047678  28.0589028  14.0403143   2.9263217  27.8305073
  15.2406255   3.3366112  27.3107839  14.7469910   3.2533286  27.9146530
  20.2445203   3.7273048  23.4874575  19.9096571   4.4049970  23.0518797
  20.7572073   3.3378359  22.8991447  20.2710784   3.7697626  23.3361367
  19.7849494   5.6787317  29.4285687  20.1688874   6.2474215  28.8890462
  19.7208635   4.9536827  28.9491503  19.8322921   5.6562780  29.2779549
  16.3704999   3.3166071  30.3251801  16.4715362   2.5066425  30.6348928
  15.7746744   3.2223017  29.6951479  16.2977538   3.1831099  30.2778039
  16.2105739   8.2343660  31.7266657  16.8543194   8.6756824  32.1162815
  16.5361994   7.4297086  31.6396916  16.3537567   8.1808854  31.7712134
  16.9126319   1.2455635  27.0986518  17.2342160   1.7860842  26.4947827
  17.5598415   0.6752406  27.2308808  17.0552374   1.2414810  27.0293554
  15.5743340  -1.4982733  24.4236669  14.9900555  -0.9932702  24.8302533
  15.1713435  -1.7240346  23.6833261  15.4282643  -1.4574485  24.3741694
  20.4177254   0.8650760  22.3327522  20.8328402   0.5335784  21.6412018
  19.5869183   0.6319662  22.2047658  20.3565263   0.7822016  22.2118369
  17.0084720   4.0510457  26.0676901  17.2983019   3.6599438  25.3436128
  17.7388201   4.2327162  26.5082177  17.1591604   4.0204271  26.0259708
  14.9490636   6.0277839  29.1337051  14.7290931   5.7375194  29.9263718
  14.7285158   5.3692795  28.6054963  14.8838230   5.8877548  29.1725960
  17.1158591   7.4007229  27.9167744  17.7682649   6.8683672  28.1458770
  16.4184200   7.0475882  28.3035618  17.1089309   7.2696752  28.0079911
  14.0639856  -0.2453593  27.3235118  14.8185824   0.1359446  27.5370580
  13.4710469   0.2057551  27.7781814  14.0876570  -0.1224766  27.4217996
  21.5805088   2.6650428  26.6835802  21.3391764   1.9318288  26.2762867
  21.7606421   3.2137285  26.0302135  21.5712712   2.6372819  26.5266025
  19.1308116   3.3231390  27.8913186  19.8958007   3.0541034  27.5695850
  19.0286206   2.8381401  28.6083248  19.2289611   3.2120955  27.9493013
  24.5521306   2.0163362  24.3876045  24.6341144   2.8230348  24.0637496
  25.0371049   2.0359321  25.1116819  24.6358464   2.1384025  24.4462944
  18.3565849   1.9575485  24.6407487  18.4258669   1.0990023  24.7800487
  19.1354304   2.1747365  24.3126511  18.4818699   1.8628349  24.6124644
  22.7473337   4.3813186  28.8543980  22.3553128   4.0779901  28.1366846
  22.9026409   5.2182276  28.6648934  22.7126926   4.4597023  28.7200477
  22.9113011   0.9463175  28.7950011  22.5527666   1.1177818  29.5714043
  22.4251722   1.4076380  28.2378009  22.7871708   1.0402146  28.8275280
  23.5163642   3.7848679  32.2874015  23.3183330   4.2739493  31.5930226
  22.8951353   3.9889920  32.8658148  23.3951206   3.8865217  32.2697238
  22.0470078   0.5899167  24.7213589  22.7704277   1.0557280  24.5778162
  21.6070669   0.6572777  23.9711186  22.0885770   0.6683004  24.5898370
  22.3073928   4.6519872  24.8811650  21.5903238   4.4780734  24.4158887
  22.9580665   4.4172444  24.3487136  22.2975778   4.5915664  24.7340868
  17.5887090   5.8881630  31.3101798  17.1747488   5.2255761  30.9205640
  18.2734464   6.0359489  30.7897492  17.6285461   5.8122289  31.1758295
  20.9552384   5.0471716  32.0625415  20.5568667   5.1573986  31.2946235
  20.3403604   5.2553782  32.6451974  20.8051273   5.0945284  32.0356714
  21.5066079   1.7460759  31.2818956  21.9777257   2.4601022  31.4508941
  21.8426258   1.1459509  31.8178826  21.6261194   1.7632223  31.3851332
  31.3811687   9.2870268  32.2951797  30.5249582   9.4478767  32.3460913
  31.4279341   8.4162332  32.3156858  31.2610798   9.1821070  32.3057863
  25.7652827  18.8232986  28.0589028  25.0135726  18.4448525  27.8305073
  26.2138838  18.8551420  27.3107839  25.7202493  18.7718594  27.9146530
  31.2177786  19.2458356  23.4874575  30.8829155  19.9235277  23.0518797
  31.7304657  18.8563667  22.8991447  31.2443368  19.2882934  23.3361367
  30.7582078  21.1972625  29.4285687  31.1421457  21.7659523  28.8890462
  30.6941219  20.4722135  28.9491503  30.8055505  21.1748088  29.2779549
  27.3437583  18.8351379  30.3251801  27.4447946  18.0251732  30.6348928
  26.7479328  18.7408325  29.6951479  27.2710121  18.7016407  30.2778039
  36.0028577  12.7746919  25.8117176  35.8868103  13.5254606  26.2409314
  36.7984463  12.5170873  26.0613263  36.1033166  12.8481766  25.9121268
  27.1838322  23.7528968  31.7266657  27.8275778  24.1942132  32.1162815
  27.5094578  22.9482394  31.6396916  27.3270151  23.6994162  31.7712134
  20.5402627  14.8571665  29.9504134  20.3052812  14.0239317  29.8436403
  20.6788268  15.1376331  29.1365335  20.5258290  14.7755168  29.8146489
  22.8392715   7.0257396  32.8488442  22.2197746   6.4350043  32.6798457
  22.7376578   7.6168831  32.2152765  22.7330390   7.0261478  32.7293432
  27.8858902  16.7640943  27.0986518  28.2074743  17.3046150  26.4947827
  28.5330999  16.1937714  27.2308808  28.0284957  16.7600118  27.0293554
  29.9360610   8.7656937  27.1820905  30.6340775   8.9445065  27.6742368
  30.2512943   8.2427277  26.5591295  30.0855947   8.7150710  27.1622915
  22.5661848  10.5709677  35.0932011  22.4420544  11.1572123  35.7281830
  23.2180132  10.0769873  35.3944286  22.6435497  10.5848482  35.2317940
  30.1248546  15.1527383  27.1700697  30.5642181  14.5444483  27.6155469
  29.9753208  14.7734756  26.3986162  30.1670011  15.0065854  27.1219864
  27.5920189  13.7471394  34.3719522  28.2369191  13.2543837  34.0530471
  27.8321966  13.8896181  35.1985600  27.7230774  13.6948837  34.4469055
  30.1306280  16.5926300  34.0226415  30.4129523  15.7977706  33.8013171
  30.8592440  17.0706888  34.0431476  30.2795844  16.5460897  33.9929430
  28.1087474   4.1349334  31.2642180  27.7790804   4.5860478  30.5945879
  27.4332476   4.0565497  31.8115186  27.9597910   4.1900469  31.2465403
  33.7257882  13.5054564  24.1231466  33.6409177  14.3615530  24.2681035
  34.2142265  13.2298888  24.7913625  33.7846779  13.5911885  24.2433547
  34.6576315  10.1239358  25.6229201  34.1287787  10.3398991  26.2826507
  35.1801335  10.8175496  25.5430170  34.6564768  10.2582495  25.7084800
  26.5475923  14.0202575  24.4236669  25.9633138  14.5252606  24.8302533
  26.1446018  13.7944962  23.6833261  26.4015227  14.0610823  24.3741694
  22.1019952  19.7357336  31.2260341  21.6187530  20.4607825  31.2019924
  22.9143270  20.0333466  31.3370498  22.1510699  19.8859690  31.2387620
  28.1734106  18.5289517  33.8310155  27.6561047  18.1696932  33.2271463
  28.8708497  18.0051691  33.8416221  28.1999687  18.3987205  33.7440414
  31.0053138  10.2668227  22.9005590  31.2449141  10.4746211  22.0880933
  31.3268979   9.4625735  23.0094534  31.0890295  10.1782328  22.7966143
  26.3143428   2.1961623  26.7465128  27.0689396   2.5639940  26.5082178
  26.1370962   2.5701177  27.5144307  26.3997906   2.3059810  26.8250016
  24.9564149  20.2513512  31.3780620  25.6584728  19.7365501  31.4353377
  24.8761632  20.5787663  32.1827495  25.0487909  20.2227738  31.5053413
  24.6700492   4.6031942  23.4443241  24.4876066   4.8203822  22.6184233
  25.5326105   4.7170954  23.5001855  24.7705082   4.6521839  23.3297728
  24.2814924  16.4419864  30.8866228  25.1203824  16.6742797  30.9339990
  24.3126694  15.5724175  30.8173264  24.4096642  16.3476810  30.8830873
  24.9067627  16.8620739  35.1879534  25.4465852  16.7191870  35.8582906
  24.2237574  17.2617490  35.5563560  24.8859781  16.9000410  35.3413956
  34.3308512  12.5411740  30.3824558  35.0866027  12.9743254  30.4213467
  34.4370837  11.8916509  30.9559194  34.4578683  12.5089223  30.4722584
  37.3688683  16.3685017  31.1326961  36.9323915  16.3721759  31.8885933
  37.0351599  17.0490516  30.7006539  37.2551303  16.4697473  31.1807794
  20.3104773  13.0821030  35.3413955  20.0443188  12.2660146  35.5004946
  20.3243337  13.1274185  34.4709471  20.2729495  12.9677935  35.2367437
  24.2162519   7.8806114  21.9565714  23.5020697   7.5944294  22.3688146
  24.7006488   8.2202740  22.5972101  24.1821883   7.8887764  22.1121349
  31.3909837  16.3836068  22.3327522  31.8060986  16.0521092  21.6412018
  30.5601767  16.1504970  22.2047658  31.3297846  16.3007324  22.2118369
  20.7198186  13.8679809  32.6225700  20.5373759  13.8426695  31.7697992
  21.4547855  14.3378747  32.6614609  20.8012250  13.9341171  32.5023618
  36.7897860  14.1031319  29.7658587  37.0253450  14.2476518  28.9385438
  36.9387424  14.8673727  30.1590101  36.8463664  14.2370374  29.7022191
  33.8320206  10.7897888  28.2851771  33.9267061  11.5287182  28.7391397
  33.2079050  10.3615363  28.7186336  33.7529236  10.8359208  28.4159919
  20.6869097  10.7473310  32.7724766  21.2642599  10.6109761  33.4117012
  19.9883158  10.2909094  33.0270351  20.6690118  10.6595576  32.9047056
  34.0843228  12.6346628  21.5188723  34.0023390  12.7048815  22.3843710
  34.7222948  13.1976371  21.3272464  34.1663065  12.7285599  21.6178673
  27.4436399  12.4007365  30.9863250  27.1855643  11.5679100  30.9594549
  27.4984882  12.6264978  30.1455750  27.4136177  12.3105137  30.8583386
  26.4171111   9.9545128  31.4728144  25.8420702  10.1137296  32.1092105
  26.0406787   9.3180537  31.0096595  26.2773923   9.8842941  31.4982703
  16.1627930   9.5985203  29.4872585  16.2488182   9.2217071  30.2686115
  16.7903727   9.2245648  29.0092543  16.2684481   9.4870685  29.5318062
  31.1883338  12.6567082  24.5297330  32.0023977  12.9481975  24.4180101
  31.1242479  12.0026944  23.9555623  31.2986077  12.6032277  24.4286167
  27.0591246  16.1288599  29.6569642  27.6965193  15.8900347  30.2021435
  27.4846318  16.3325758  28.9222802  27.2167412  16.1239609  29.6286799
  21.7503888  18.3676936  33.5403946  21.7908034  18.6391787  32.7123725
  22.3098412  18.8918844  33.9561733  21.8387234  18.4852691  33.4795834
  27.6994061  11.3490889  23.9944531  28.0839214  11.1298596  24.7461076
  27.4505681  12.1753834  24.1245608  27.7196134  11.4389035  24.1245608
  29.4412718  16.6061022  31.3363428  29.5151726  16.4436194  32.1905278
  30.2582224  16.7951211  31.0923910  29.5729077  16.6097764  31.4261454
  23.2018475  16.9518885  28.3657872  22.3756592  17.1980622  28.2392150
  23.2630466  16.8730966  29.2319930  23.0892642  16.9763834  28.4746816
  25.4194498   3.0187826  29.3253312  24.5516924   3.0910425  29.3910921
  25.7069703   3.8209905  29.5141287  25.3334247   3.1481973  29.3628078
  27.9817304  19.5695765  26.0676901  28.2715602  19.1784746  25.3436128
  28.7120785  19.7512470  26.5082177  28.1324188  19.5389579  26.0259708
  28.5712049  14.3713511  37.1530032  28.0723743  15.0829279  37.2314920
  29.3812273  14.6914177  37.1148194  28.6168156  14.5240359  37.1586600
  25.9223219  21.5463147  29.1337051  25.7023515  21.2560502  29.9263718
  25.7017741  20.8878102  28.6054963  25.8570813  21.4062856  29.1725960
  24.8340166  13.6336464  31.3992753  24.5453415  13.0073935  31.9338480
  25.7023515  13.5756751  31.4657433  24.9200418  13.5324008  31.4883707
  28.0891175  22.9192537  27.9167744  28.7415233  22.3868980  28.1458770
  27.3916784  22.5661190  28.3035618  28.0821893  22.7882060  28.0079911
  25.0372440  15.2731715  27.3235118  25.7918408  15.6544754  27.5370580
  24.4443053  15.7242859  27.7781814  25.0609153  15.3960542  27.4217996
  36.0831093  15.2396951  27.2598723  36.6489126  15.8990161  27.1757266
  35.4358997  15.5846649  27.7315125  36.0709850  15.3878893  27.3171479
  26.3570666  16.4440276  32.6975233  25.8351420  16.5840568  33.3827098
  26.7444687  15.6850941  32.8877351  26.3374367  16.3525800  32.8276310
  23.3461850   6.4946085  26.7670188  23.0586646   6.1247355  26.0302135
  24.0332319   6.9640940  26.5053893  23.4050748   6.5093054  26.6185264
  32.5537671  18.1835736  26.6835802  32.3124347  17.4503596  26.2762867
  32.7339004  18.7322593  26.0302135  32.5445295  18.1558127  26.5266025
  27.7836992  13.4744295  28.0956724  27.5879775  14.0819030  27.5017027
  28.0071338  12.7812239  27.6148398  27.7871633  13.4621821  27.9372805
  26.1815522  10.3599033  28.2137593  26.9038174  10.5240191  27.7541399
  25.7023515  11.0808698  28.1076932  26.2179253  10.4897263  28.1303207
  23.8323139  12.7657106  37.3191733  24.3444236  13.0441359  36.6700492
  23.5459481  13.5046400  37.6854546  23.8658002  12.9159459  37.2781611
  20.9190045   7.2727298  27.6155469  21.0206182   8.0753459  27.9436444
  21.7145932   7.0714633  27.3178550  21.0517951   7.3613196  27.6190824
  31.8892370   9.2241566  29.5021079  31.6427084   9.1437317  30.3357868
  32.2177493   8.4395034  29.3083606  31.9013613   9.0967831  29.5968602
  35.7840418  15.9324925  33.2907860  35.6454778  16.6305971  33.7956602
  35.0040416  15.7773582  32.9344042  35.6483645  16.0125092  33.3134134
  26.9217152  20.1501056  35.7805089  27.0706716  19.5903972  35.1278493
  27.7017154  20.2293058  36.1637608  27.0591245  20.0786622  35.7402038
  37.2793791  15.2903179  24.0524359  36.9000600  14.5040317  24.0453649
  36.6160037  15.8390036  23.9096004  37.1252266  15.2548003  24.0305156
  30.1040699  18.8416698  27.8913186  30.8690590  18.5726342  27.5695850
  30.0018789  18.3566708  28.6083248  30.2022195  18.7306263  27.9493013
  32.6259360  15.8728882  19.8713135  33.3932345  15.9329007  19.4618987
  32.1790669  15.3009323  19.3869453  32.6732787  15.7965458  19.7390845
  33.5237155  14.6783538  32.1565867  32.8482157  14.4468770  32.6579254
  33.5329532  14.0704721  31.5307972  33.4255660  14.5542463  32.1382019
  35.5253890  17.5348670  24.3876045  35.6073727  18.3415656  24.0637496
  36.0103632  17.5544629  25.1116819  35.6091048  17.6569332  24.4462944
  29.3350393  12.2133506  33.0546123  28.9112642  12.4138005  32.3185141
  29.1595248  11.3662354  33.1670423  29.2461274  12.1182287  32.9619813
  24.6232838  12.7085557  28.4874096  24.7797457  12.6432360  29.3430088
  24.9633431  13.4834110  28.2752775  24.6966073  12.8134756  28.5828690
  31.1611983  12.0843441  27.3567459  31.7027528  11.5813822  27.8206079
  31.4758542  12.0308636  26.5456944  31.2876380  12.0022862  27.3051271
  29.3298433  17.4760793  24.6407487  29.3991253  16.6175331  24.7800487
  30.1086888  17.6932673  24.3126511  29.4551283  17.3813657  24.6124644
  33.7205920  19.8998494  28.8543980  33.3285712  19.5965209  28.1366846
  33.8758992  20.7367584  28.6648934  33.6859510  19.9782331  28.7200477
  21.1967100   9.8920508  28.8034863  21.5766065  10.3105053  28.1395130
  20.6222465  10.4733964  29.1103706  21.1678425  10.0398367  28.7511604
  33.8845595  16.4648483  28.7950011  33.5260250  16.6363126  29.5714043
  33.3984306  16.9261688  28.2378009  33.7604292  16.5587454  28.8275280
  28.6733960  12.1447648  21.3350245  28.9626485  12.9212531  21.6093819
  28.7605759  11.6336380  22.0364744  28.7288217  12.1839566  21.4792743
  24.8397901  11.4580913  33.4350357  23.9985908  11.3584787  33.6429251
  25.0487909  12.2276393  33.7864678  24.7462594  11.5572956  33.5177672
  22.3173468   9.0800450  31.2635108  21.9230166   9.1543461  30.4885218
  21.7613585   9.4658396  31.8143470  22.1776281   9.1482224  31.2302768
  28.6514566   9.3862312  32.6847955  28.3477704   8.8318300  33.2858362
  27.9493987   9.5654522  32.1975989  28.5030776   9.3307094  32.7017660
  27.7080663   6.6962832  27.2492657  27.9840398   5.9781744  26.8370224
  28.3079333   7.2947752  27.0413763  27.8373928   6.6783202  27.1573418
  26.7132917  16.6012033  37.3920053  26.6053272  16.6114095  38.2582111
  26.9228699  17.4266813  37.2025006  26.7283028  16.7253107  37.4924144
  24.7306709  13.8524675  34.8541990  24.1394642  14.4934173  34.8245005
  25.4927733  14.2762292  34.8273290  24.7554970  14.0100513  34.8457137
  34.4896225  19.3033987  32.2874015  34.2915914  19.7924801  31.5930226
  33.8683936  19.5075228  32.8658148  34.3683790  19.4050525  32.2697238
  28.5504204  11.0718883  26.6284259  29.2946249  11.4593160  26.8667209
  28.6964900  10.2276309  26.7924747  28.6814789  11.0049356  26.6878229
  33.4665579   7.5380911  25.5903932  32.9388598   7.6209655  24.9009641
  33.9261287   8.2798783  25.5868577  33.4567430   7.6601574  25.4878627
  25.2756896   7.4658312  34.5572142  24.6509966   7.4776704  33.9498095
  24.9402491   7.9418487  35.2063382  25.1342388   7.5376829  34.5628711
  25.4598644   5.8083431  20.6144827  25.1111449   6.4603156  21.0776376
  24.9795090   5.7940544  19.8868698  25.3368888   5.9026484  20.5755918
  21.9882571  15.5258772  35.9975906  21.4582496  14.8351211  36.0470881
  22.2607665  15.5168958  35.1688615  21.9507294  15.4225904  35.8823322
  33.0202662  16.1084475  24.7213589  33.7436861  16.5742588  24.5778162
  32.5803253  16.1758084  23.9711186  33.0618354  16.1868312  24.5898370
  31.4285114  14.0386287  33.7058577  31.0012722  13.4136006  33.2724012
  31.4210058  13.7561209  34.5317584  31.3644255  13.9039068  33.7638404
  24.5447641   9.0751460  36.7747011  24.7041128   8.3194784  37.1798733
  24.3640535   9.6242400  37.4287748  24.5413000   9.0445274  36.9309717
  17.2678414  12.1986537  33.3544255  17.1621863  12.1533381  32.4896339
  16.5178633  12.5440317  33.6358540  17.1414016  12.2427445  33.2681584
  26.0372146   3.6425860  33.3006855  26.0770518   4.1435066  34.0141562
  25.2121811   3.7336254  33.0312778  25.9211672   3.7307676  33.3657393
  27.4586509  10.1586370  35.5980754  26.6278439  10.3260188  35.3916002
  27.4038026   9.7822321  36.3829639  27.3275924  10.1276101  35.6829282
  25.8322553   8.4341961  26.1270872  25.9725514   8.9314425  26.8299513
  26.3305086   7.7328256  26.2685085  25.9263634   8.4043940  26.2522451
  25.8622776   9.3009072  23.4563448  26.4967855   9.8969497  23.3912910
  25.9448386   9.0012530  24.2709319  25.9679327   9.3449980  23.5666535
  27.4401758   5.2323048  23.4308890  27.7617599   4.7526130  22.7768153
  27.7028702   6.0422694  23.2399702  27.5267784   5.2812946  23.3064383
  30.6698731  16.2541922  36.9507707  30.1623822  16.8077769  37.3948337
  30.3725377  16.3150212  36.1326481  30.5503616  16.3448233  36.8956163
  22.3675763  11.4976913  26.7252994  22.8767993  12.0941421  27.1064300
  22.8410036  11.2302887  26.0429414  22.5119139  11.5462728  26.6807517
  33.2806511  20.1705180  24.8811650  32.5635821  19.9966042  24.4158887
  33.9313249  19.9357752  24.3487136  33.2708362  20.1100972  24.7340868
  35.8654483   9.0469768  28.6252955  35.1945673   9.5899471  28.4966021
  36.5594233   9.5164624  28.3834650  35.8683350   9.1968039  28.5708483
  29.9141216  21.1866480  33.8564713  29.6906871  20.4285310  34.2248740
  29.4251060  21.2164501  33.1345153  29.8084665  21.0788705  33.8041454
  24.7266295   8.1333172  29.5926175  24.0078284   8.5497304  29.8599038
  25.0978657   8.6987410  29.0417813  24.6758227   8.2782453  29.5508982
  28.5619673  21.4066938  31.3101798  28.1480072  20.7441069  30.9205640
  29.2467048  21.5544797  30.7897492  28.6018045  21.3307597  31.1758295
  31.9284967  20.5657024  32.0625415  31.5301251  20.6759294  31.2946235
  31.3136187  20.7739090  32.6451974  31.7783857  20.6130592  32.0356714
  30.5012870   7.1731171  24.9299554  29.9077709   7.4948168  24.3784121
  30.5388147   6.3272267  24.7220661  30.4187259   7.0955500  24.8182326
  33.3770686   7.1310676  28.3601305  33.1484379   7.1543377  27.5179663
  33.6368762   6.3068143  28.4796315  33.3816874   7.0126756  28.2526502
  26.4315449   5.6687222  29.6555500  26.9072815   6.0304302  29.0205681
  25.9304048   6.3243690  29.9355643  26.4280808   5.8181411  29.6032241
  19.4057694  10.3329590  35.8717256  18.8584413   9.6630235  35.9898125
  20.1950072   9.9659438  35.9360724  19.4409877  10.1794576  35.8985957
  28.4742102   7.8128422  23.0228884  28.8541067   7.8308051  22.2379999
  27.7334698   8.2582411  22.9019732  28.4210940   7.8810197  22.8892452
  18.1644663   9.5450398  33.0263280  17.9866424   9.0927007  33.7518195
  17.8763685  10.3476559  33.2101757  18.0957616   9.5972956  33.1606782
  29.2726856  14.6505928  24.4137674  28.4638179  14.3272602  24.3670984
  29.7801765  13.9439150  24.3465923  29.2276523  14.4987245  24.3967969
  19.9017133  12.0778121  30.1385039  19.0362653  12.0663812  30.0267810
  20.0015949  11.8908344  30.9856178  19.7891300  12.0484183  30.2473983
  25.5274143  21.8476020  33.7115144  25.8420702  22.6612409  33.7192926
  25.9367556  21.4626239  34.3797303  25.6342241  21.9104722  33.8119236
  32.4798663  17.2646067  31.2818956  32.9509841  17.9786329  31.4508941
  32.8158841  16.6644817  31.8178826  32.5993778  17.2817531  31.3851332
  28.4661272   4.0389950  25.7056516  29.2876967   4.2088263  25.4638211
  28.0030923   4.1937211  24.9822813  28.5192435   4.0871683  25.5628160
  22.8687163  15.7949129  33.3593752  23.4732021  15.7544963  32.7307573
  22.6614476  16.6420281  33.3897808  22.9276060  15.9137131  33.2709869
  32.6830935  18.0615074  34.5755990  33.5029309  17.9178040  34.8372285
  32.4025013  18.6861273  35.1172428  32.7627679  18.1325426  34.6943929
  18.1038445  14.7783746  33.2292676  18.0062723  13.9680018  33.5382732
  18.8867315  14.7575539  32.8438944  18.2054582  14.6550836  33.2179539
  31.5135211  30.3756973  29.9504134  31.2785395  29.5424625  29.8436403
  31.6520851  30.6561639  29.1365335  31.4990873  30.2940476  29.8146489
  33.8125298  22.5442704  32.8488442  33.1930330  21.9535351  32.6798457
  33.7109162  23.1354139  32.2152765  33.7062974  22.5446786  32.7293432
  37.5208507  29.5387883  24.4236669  36.9365722  30.0437914  24.8302533
  37.1178602  29.3130270  23.6833261  37.3747811  29.5796131  24.3741694
  35.6433076  20.1217249  23.4443241  35.4608649  20.3389130  22.6184233
  36.5058689  20.2356262  23.5001855  35.7437666  20.1707147  23.3297728
  35.1895103  23.3991422  21.9565714  34.4753280  23.1129602  22.3688146
  35.6739072  23.7388048  22.5972101  35.1554466  23.4073072  22.1121349
  27.1360513  25.1170511  29.4872585  27.2220765  24.7402379  30.2686115
  27.7636311  24.7430956  29.0092543  27.2417064  25.0055993  29.5318062
  36.3927082  18.5373134  29.3253312  35.5249507  18.6095733  29.3910921
  36.6802286  19.3395213  29.5141287  36.3066830  18.6667281  29.3628078
  34.3194434  22.0131393  26.7670188  34.0319230  21.6432663  26.0302135
  35.0064902  22.4826248  26.5053893  34.3783331  22.0278362  26.6185264
  31.8922629  22.7912605  27.6155469  31.9938765  23.5938767  27.9436444
  32.6878515  22.5899941  27.3178550  32.0250534  22.8798504  27.6190824
  35.5965422  28.2270865  28.4874096  35.7530041  28.1617668  29.3430088
  35.9366015  29.0019418  28.2752775  35.6698657  28.3320063  28.5828690
  32.1699683  25.4105816  28.8034863  32.5498648  25.8290361  28.1395130
  31.5955048  25.9919272  29.1103706  32.1411008  25.5583675  28.7511604
  33.2906052  24.5985757  31.2635108  32.8962750  24.6728769  30.4885218
  32.7346169  24.9843704  31.8143470  33.1508864  24.6667532  31.2302768
  36.4331228  21.3268739  20.6144827  36.0844032  21.9788464  21.0776376
  35.9527674  21.3125852  19.8868698  36.3101472  21.4211792  20.5755918
  36.8055137  23.9527269  26.1270872  36.9458098  24.4499733  26.8299513
  37.3037670  23.2513564  26.2685085  36.8996218  23.9229248  26.2522451
  36.8355359  24.8194380  23.4563448  37.4700439  25.4154805  23.3912910
  36.9180970  24.5197838  24.2709319  36.9411910  24.8635288  23.5666535
  33.3408347  27.0162221  26.7252994  33.8500576  27.6126729  27.1064300
  33.8142619  26.7488195  26.0429414  33.4851723  27.0648036  26.6807517
  35.6998879  23.6518480  29.5926175  34.9810868  24.0682612  29.8599038
  36.0711241  24.2172718  29.0417813  35.6490810  23.7967761  29.5508982
  29.1377247  25.0635706  33.0263280  28.9599008  24.6112315  33.7518195
  28.8496269  25.8661867  33.2101757  29.0690200  25.1158263  33.1606782
  30.8749717  27.5963429  30.1385039  30.0095236  27.5849120  30.0267810
  30.9748533  27.4093652  30.9856178  30.7623884  27.5669491  30.2473983
  36.4336234  11.2796425  14.9929075  35.6819134  10.9011964  14.7645120
  36.8822246  11.3114859  14.2447885  36.3885901  11.2282033  14.8486577
  31.2086035   7.3135104  16.8844181  30.9736219   6.4802757  16.7776450
  31.3471675   7.5939770  16.0705382  31.1941697   7.2318608  16.7486536
  37.2159331   6.4766014  11.3576716  36.6316546   6.9816045  11.7642580
  36.8129426   6.2508401  10.6173308  37.0698634   6.5174262  11.3081741
  32.7703359  12.1920775  18.1600387  32.2870938  12.9171265  18.1359971
  33.5826678  12.4896905  18.2710545  32.8194107  12.3423129  18.1727667
  35.6247557  12.7076951  18.3120667  36.3268136  12.1928940  18.3693424
  35.5445040  13.0351102  19.1167542  35.7171317  12.6791177  18.4393459
  34.9498332   8.8983303  17.8206275  35.7887231   9.1306236  17.8680037
  34.9810101   8.0287614  17.7513311  35.0780050   8.8040249  17.8170920
  35.5751035   9.3184178  22.1219581  36.1149260   9.1755309  22.7922953
  34.8920981   9.7180929  22.4903607  35.5543189   9.3563849  22.2754002
  30.9788180   5.5384469  22.2754002  30.7126595   4.7223586  22.4344993
  30.9926744   5.5837624  21.4049518  30.9412902   5.4241374  22.1707484
  31.3881594   6.3243248  19.5565747  31.2057167   6.2990134  18.7038039
  32.1231263   6.7942186  19.5954655  31.4695658   6.3904610  19.4363665
  32.4187296  10.8240375  20.4743992  32.4591441  11.0955226  19.6463772
  32.9781820  11.3482283  20.8901780  32.5070642  10.9416130  20.4135881
  33.8701882   9.4082324  15.2997918  33.0440000   9.6544061  15.1732197
  33.9313873   9.3294405  16.1659976  33.7576049   9.4327273  15.4086863
  36.5906627  14.0026587  16.0677098  36.3706922  13.7123941  16.8603765
  36.3701149  13.3441542  15.5395010  36.5254221  13.8626295  16.1066007
  35.5023574   6.0899903  18.3332800  35.2136823   5.4637374  18.8678527
  36.3706922   6.0320190  18.3997480  35.5883826   5.9887447  18.4223754
  35.7055847   7.7295154  14.2575165  36.4601815   8.1108193  14.4710627
  35.1126460   8.1806298  14.7121861  35.7292561   7.8523981  14.3558043
  37.0254074   8.9003715  19.6315280  36.5034827   9.0404007  20.3167145
  37.4128094   8.1414380  19.8217397  37.0057775   8.8089239  19.7616357
  34.5006546   5.2220545  24.2531779  35.0127643   5.5004798  23.6040539
  34.2142889   5.9609839  24.6194592  34.5341409   5.3722898  24.2121657
  37.3816325   9.0575472  24.3260099  37.2736680   9.0677534  25.1922157
  37.5912106   9.8830252  24.1365053  37.3966436   9.1816546  24.4264191
  35.3990117   6.3088114  21.7882037  34.8078050   6.9497612  21.7585052
  36.1611140   6.7325731  21.7613336  35.4238377   6.4663952  21.7797184
  32.6565979   7.9822212  22.9315953  32.1265903   7.2914651  22.9810928
  32.9291072   7.9732397  22.1028662  32.6190701   7.8789343  22.8163369
  27.9361821   4.6549976  20.2884302  27.8305270   4.6096820  19.4236386
  27.1862041   5.0003756  20.5698586  27.8097424   4.6990884  20.2021631
  30.5700541   4.5341561  17.0725085  29.7046060   4.5227251  16.9607857
  30.6699357   4.3471783  17.9196225  30.4574708   4.5047622  17.1814030
  36.1957551  14.3039459  20.6455191  36.5104109  15.1175848  20.6532973
  36.6050964  13.9189678  21.3137350  36.3025649  14.3668162  20.7459283
  33.5370571   8.2512568  20.2933799  34.1415428   8.2108402  19.6647620
  33.3297883   9.0983720  20.3237855  33.5959468   8.3700570  20.2049916
  28.7721853   7.2347185  20.1632722  28.6746131   6.4243457  20.4722779
  29.5550723   7.2138979  19.7778991  28.8737989   7.1114275  20.1519585
   5.6479785   9.9261273  27.2664227   5.6173789  10.7805909  27.4382496
   6.2461133   9.6256565  27.8250370   5.7316943  10.0077769  27.3739029
   3.4696359  12.5013575  25.5382537   3.3535885  13.2521261  25.9674675
   4.2652246  12.2437528  25.7878624   3.5700949  12.5748422  25.6386628
   1.1925665  13.2321219  23.8496826   1.1076960  14.0882186  23.9946395
   1.6810048  12.9565543  24.5178985   1.2514562  13.3178540  23.9698908
   2.1244098   9.8506013  25.3494561   1.5955569  10.0665647  26.0091868
   2.6469118  10.5442152  25.2695531   2.1232551   9.9849150  25.4350161
   7.5792151  15.4252318  30.7227606   6.7489854  15.6362961  30.8861023
   7.5301403  14.5989372  30.4469890   7.4498886  15.3341924  30.7064971
   4.8356466  16.0951672  30.8592322   4.3991698  16.0988414  31.6151293
   4.5019381  16.7757171  30.4271899   4.7219086  16.1964128  30.9073154
   7.9700812  12.8132592  29.7511959   8.6317246  12.2523260  29.6507867
   7.3292224  12.3184623  30.0764650   7.9729680  12.6569001  29.7844299
   4.2565643  13.8297974  29.4923948   4.4921232  13.9743173  28.6650798
   4.4055207  14.5940382  29.8855461   4.3131446  13.9637029  29.4287552
   6.0856100  12.6699640  27.3293552   6.4164317  13.2027280  26.7233646
   6.6589188  12.7238528  27.9855503   6.2189779  12.7569209  27.3371333
   1.2987989  10.5164543  28.0117132   1.3934843  11.2553837  28.4656757
   0.6746832  10.0882018  28.4451696   1.2197019  10.5625864  28.1425279
   1.5511010  12.3613283  21.2454084   1.4691173  12.4315470  22.1109071
   2.1890731  12.9243027  21.0537824   1.6330847  12.4552254  21.3444033
   7.1935451   7.9110137  28.8333713   6.9372016   7.0990079  28.6431596
   8.0364765   7.9187704  28.6063901   7.2801477   7.7922135  28.7718530
  11.5998823  11.4897183  34.0588905  11.5323324  11.5093142  33.1891491
  11.5854486  12.3327510  34.2844575  11.5877580  11.6170917  33.9641381
   3.5498876  14.9663607  26.9864083   4.1156909  15.6256816  26.9022626
   2.9026779  15.3113305  27.4580485   3.5377632  15.1145548  27.0436840
   5.4834336  11.6297474  30.6060880   5.3968311  11.7852900  31.4595659
   5.0284816  12.2735550  30.2320285   5.4037593  11.7473229  30.6767987
   3.2508201  15.6591580  33.0173221   3.1122560  16.3572626  33.5221963
   2.4708199  15.5040237  32.6609402   3.1151428  15.7391747  33.0399495
   4.7461574  15.0169834  23.7789720   4.3668382  14.2306972  23.7719009
   4.0827819  15.5656691  23.6361364   4.5920049  14.9814658  23.7570517
   2.9921673  17.2615325  24.1141406   3.0741510  18.0682311  23.7902857
   3.4771415  17.2811284  24.8382179   3.0758830  17.3835988  24.1728304
   1.1873703  19.6265149  28.5809341   0.7953494  19.3231864  27.8632207
   1.3426775  20.4634239  28.3914294   1.1527293  19.7048986  28.4465838
   1.3513377  16.1915138  28.5215371   0.9928032  16.3629781  29.2979404
   0.8652088  16.6528344  27.9643370   1.2272074  16.2854109  28.5540640
   1.9564008  19.0300642  32.0139375   1.7583697  19.5191456  31.3195586
   1.3351719  19.2341883  32.5923508   1.8351572  19.1317180  31.9962598
   3.3322265   8.7736423  28.3518316   2.6613455   9.3166126  28.2231381
   4.0262015   9.2431279  28.1100010   3.3351133   8.9234695  28.2973843
   7.1294593  14.8675646  25.1733866   7.5128199  15.6167002  25.4031963
   6.3338706  15.1141465  24.9145855   7.0688375  15.0145339  25.1691439
  16.6212368  25.4446581  27.2664227  16.5906373  26.2991217  27.4382496
  17.2193717  25.1441873  27.8250370  16.7049526  25.5263077  27.3739029
   9.8212053  24.5322232  32.0217157   8.9649949  24.6930730  32.0726274
   9.8679707  23.6614296  32.0422218   9.7011164  24.4273033  32.0323223
   9.6578153  34.4910319  23.2139936   9.3229521  35.1687241  22.7784158
  10.1705023  34.1015630  22.6256807   9.6843734  34.5334897  23.0626727
  12.6663874  26.5914276  34.6648809  13.2119834  27.2699362  34.7242778
  12.6080750  26.4501736  33.8050390  12.7379788  26.6706277  34.5460869
  14.4428943  28.0198883  25.5382537  14.3268469  28.7706569  25.9674675
  15.2384829  27.7622836  25.7878624  14.5433532  28.0933730  25.6386628
   1.2793081  22.2709359  32.5753803   0.6598112  21.6802006  32.4063817
   1.1776944  22.8620794  31.9418126   1.1730756  22.2713441  32.4558792
   6.3259268  32.0092906  26.8251879   6.6475109  32.5498113  26.2213187
   6.9731365  31.4389677  26.9574169   6.4685323  32.0052081  26.7558914
   8.3760976  24.0108901  26.9086266   9.0741141  24.1897028  27.4007729
   8.6913309  23.4879240  26.2856655   8.5256314  23.9602673  26.8888276
   8.5648912  30.3979346  26.8966057   9.0042547  29.7896446  27.3420830
   8.4153575  30.0186719  26.1251522   8.6070377  30.2517817  26.8485224
   6.5487840  19.3801297  30.9907540   6.2191170  19.8312441  30.3211239
   5.8732842  19.3017461  31.5380547   6.3998276  19.4352432  30.9730764
  12.1658248  28.7506527  23.8496826  12.0809543  29.6067494  23.9946395
  12.6542631  28.4750851  24.5178985  12.2247146  28.8363848  23.9698908
  13.7564248  15.3686820  29.2357151  13.4417689  16.0590299  29.6677573
  13.2391189  15.3131602  28.5342652  13.6328718  15.4621709  29.1954100
  13.0976681  25.3691321  25.3494561  12.5688153  25.5850955  26.0091868
  13.6201701  26.0627460  25.2695531  13.0965134  25.5034458  25.4350161
  18.5524734  30.9437626  30.7227606  17.7222438  31.1548269  30.8861023
  18.5033987  30.1174680  30.4469890  18.4231470  30.8527232  30.7064971
   4.9876289  29.2654538  24.1502029   4.4033505  29.7704569  24.5567893
   4.5846384  29.0396925  23.4098621   4.8415593  29.3062786  24.1007055
   9.4453504  25.5120190  22.6270950   9.6849507  25.7198174  21.8146293
   9.7669345  24.7077699  22.7359895   9.5290662  25.4234291  22.5231503
   4.7543794  17.4413586  26.4730488   5.5089762  17.8091903  26.2347538
   4.5771329  17.8153140  27.2409668   4.8398272  17.5511774  26.5515377
  18.0478693  23.5908026  34.5178027  17.2107114  23.6610213  34.7525622
  18.0166924  23.5932521  33.6452330  17.9196975  23.6018253  34.4237575
   3.1100859  19.8483905  23.1708601   2.9276432  20.0655785  22.3449594
   3.9726472  19.9622917  23.2267215   3.2105448  19.8973803  23.0563088
   8.7900578  16.8510315  26.2057625   9.5186738  16.6726270  25.7595781
   8.8795471  17.6928395  26.4164803   8.9107240  16.9494194  26.1711142
  12.7708878  27.7863703  30.1089919  13.5266394  28.2195217  30.1478828
  12.8771203  27.1368472  30.6824555  12.8979049  27.7541187  30.1987944
  15.8089050  31.6136980  30.8592322  15.3724281  31.6173722  31.6151293
  15.4751965  32.2942479  30.4271899  15.6951670  31.7149436  30.9073154
  15.7286532  18.6550808  33.1021750  16.3712441  18.7248912  33.6883665
  15.9809553  17.9880031  32.6001292  15.8608665  18.5677156  33.1149029
   2.6562886  23.1258077  21.6831074   1.9421063  22.8396257  22.0953507
   3.1406854  23.4654703  22.3237462   2.6222249  23.1339727  21.8386709
  18.9433396  28.3317900  29.7511959  19.6049830  27.7708568  29.6507867
  18.3024808  27.8369931  30.0764650  18.9462263  28.1754309  29.7844299
   9.8310204  31.6288031  22.0592882  10.2461352  31.2973055  21.3677378
   9.0002133  31.3956934  21.9313019   9.7698212  31.5459287  21.9383730
  15.2298227  29.3483282  29.4923948  15.4653816  29.4928481  28.6650798
  15.3787790  30.1125690  29.8855461  15.2864030  29.4822337  29.4287552
  17.0588683  28.1884948  27.3293552  17.3896900  28.7212588  26.7233646
  17.6321771  28.2423836  27.9855503  17.1922362  28.2754517  27.3371333
  12.2720572  26.0349851  28.0117132  12.3667427  26.7739145  28.4656757
  11.6479416  25.6067326  28.4451696  12.1929602  26.0811171  28.1425279
  12.5243594  27.8798591  21.2454084  12.4423756  27.9500778  22.1109071
  13.1623314  28.4428335  21.0537824  12.6063431  27.9737562  21.3444033
   5.8836765  27.6459329  30.7128610   5.6256009  26.8131064  30.6859909
   5.9385248  27.8716942  29.8721110   5.8536543  27.5557100  30.5848747
  10.9637815  19.7487779  30.8132703  10.2594142  19.2596965  30.9716622
  11.0122789  19.7610254  29.9421147  10.8667867  19.6777427  30.7072042
   4.8571477  25.1997091  31.1993505   4.2821068  25.3589259  31.8357466
   4.4807153  24.5632500  30.7361955   4.7174289  25.1294904  31.2248063
   8.5244766  23.6720440  36.0585883   8.1359198  23.2474658  35.4038074
   7.8599464  23.9202590  36.5662910   8.3691693  23.6459161  36.0373751
  18.1668035  23.4295445  28.8333713  17.9104600  22.6175387  28.6431596
  19.0097349  23.4373012  28.6063901  18.2534060  23.3107443  28.7718530
  12.3471127  17.3695069  33.5709867  12.7281639  16.6873240  33.9577742
  11.5434411  17.0804671  33.3885532  12.2847589  17.2262118  33.6013923
   9.6283704  27.9019045  24.2562690  10.4424343  28.1933938  24.1445461
   9.5642845  27.2478907  23.6820983   9.7386443  27.8484240  24.1551527
   5.4991612  31.3740562  29.3835002   6.1365559  31.1352310  29.9286796
   5.9246684  31.5777721  28.6488163   5.6567778  31.3691573  29.3552160
   6.1394427  26.5942852  23.7209892   6.5239580  26.3750559  24.4726437
   5.8906048  27.4205798  23.8510968   6.1596500  26.6840998  23.8510968
  16.8729615  30.3689490  34.7320560  16.5675432  31.1017547  35.0933876
  16.1535830  29.9627419  34.4513346  16.7216957  30.4171223  34.7433697
   7.8813084  31.8512985  31.0628788   7.9552092  31.6888157  31.9170638
   8.6982590  32.0403175  30.8189270   8.0129443  31.8549727  31.1526814
  22.5731407  27.0082491  34.0588905  22.5055907  27.0278450  33.1891491
  22.5587069  27.8512818  34.2844575  22.5610163  27.1356225  33.9641381
   3.8594865  18.2639789  29.0518672   2.9917290  18.3362388  29.1176281
   4.1470069  19.0661868  29.2406647   3.7734613  18.3933936  29.0893439
  12.9827753  18.4117648  37.3829994  13.7281345  18.2227459  36.9693419
  12.5665058  18.9375886  36.8243850  13.0312728  18.4619794  37.2394567
  20.3590024  25.7826877  32.3335499  20.9097946  25.1494946  32.5732591
  20.3434140  26.3142270  33.0251003  20.4375221  25.7675825  32.4714357
  14.0618430  24.0223210  31.4440095  13.7183196  23.3013546  31.7947345
  14.1611473  23.8137062  30.6018453  14.0260473  23.8847414  31.3711775
   3.4772806  30.5183678  27.0500478   4.2318774  30.8996717  27.2635941
   2.8843419  30.9694822  27.5047175   3.5009520  30.6412505  27.1483357
  14.5231459  30.4848914  26.9864083  15.0889492  31.1442124  26.9022626
  13.8759363  30.8298613  27.4580485  14.5110216  30.6330856  27.0436840
   1.7862217  21.7398048  26.4935548   1.4987012  21.3699319  25.7567496
   2.4732685  22.2092903  26.2319253   1.8451114  21.7545018  26.3450624
  10.9938038  33.4287699  26.4101162  10.7524713  32.6955559  26.0028227
  11.1739370  33.9774556  25.7567496  10.9845662  33.4010090  26.2531385
   6.2237358  28.7196258  27.8222085   6.0280141  29.3270993  27.2282388
   6.4471704  28.0264202  27.3413759   6.2271999  28.7073784  27.6638166
   4.6215888  25.6050996  27.9402953   5.3438540  25.7692154  27.4806759
   4.1423881  26.3260661  27.8342293   4.6579619  25.7349226  27.8568567
  12.5809396  21.9414795  33.3199638  11.7420496  21.9676074  33.0837901
  12.6513763  22.5885531  33.9004985  12.4677789  22.0410921  33.3708755
  11.0278674  18.8400172  28.0527254  11.7305027  18.6407921  27.5747212
  10.7622863  18.0676115  28.3596097  11.0925306  18.6963138  28.0272696
  16.4566920  27.1482782  30.6060880  16.3700894  27.3038208  31.4595659
  16.0017400  27.7920857  30.2320285  16.3770176  27.2658537  30.6767987
  10.3292736  24.4693529  29.2286439  10.0827450  24.3889280  30.0623228
  10.6577859  23.6846997  29.0348967  10.3413979  24.3419794  29.3233962
  14.2240784  31.1776888  33.0173221  14.0855144  31.8757934  33.5221963
  13.4440782  31.0225545  32.6609402  14.0884011  31.2577055  33.0399495
  15.7194157  30.5355142  23.7789720  15.3400966  29.7492280  23.7719009
  15.0560403  31.0841999  23.6361364  15.5652632  30.4999966  23.7570517
  13.1738783  13.4780842  31.1823801  13.2922351  13.9357305  30.4491103
  13.0000959  12.6726103  30.8960018  13.1657954  13.4274614  31.0324734
   8.5441066  34.0868661  27.6178546   9.3090957  33.8178305  27.2961210
   8.4419155  33.6018672  28.3348609   8.6422561  33.9758226  27.6758374
   6.5793835  22.2893071  34.1571782   5.7889910  22.1084531  34.4789118
   6.9754458  21.5120023  34.1402076   6.5210711  22.1480532  34.2024330
  11.0659726  31.1180845  19.5978495  11.8332711  31.1780970  19.1884347
  10.6191035  30.5461286  19.1134814  11.1133153  31.0417421  19.4656206
  11.9637522  29.9235501  31.8831228  11.2882523  29.6920733  32.3844615
  11.9729898  29.3156684  31.2573333  11.8656026  29.7994426  31.8647380
  13.9654256  32.7800633  24.1141406  14.0474094  33.5867619  23.7902857
  14.4503998  32.7996592  24.8382179  14.0491414  32.9021296  24.1728304
   7.7750759  27.4585469  32.7811484   7.3513009  27.6589968  32.0450502
   7.5995615  26.6114317  32.8935783   7.6861640  27.3634251  32.6885174
   3.0633204  27.9537521  28.2139456   3.2197824  27.8884323  29.0695448
   3.4033798  28.7286073  28.0018136   3.1366439  28.0586719  28.3094050
   9.6012349  27.3295404  27.0832819  10.1427894  26.8265785  27.5471440
   9.9158908  27.2760599  26.2722305   9.7276746  27.2474825  27.0316631
   7.7698799  32.7212756  24.3672847   7.8391619  31.8627294  24.5065848
   8.5487254  32.9384637  24.0391872   7.8951649  32.6265620  24.3390005
  10.7501618  22.2231709  37.1355120  10.9643588  21.5842623  36.5818474
  10.1335518  22.6677532  36.7062982  10.6906948  22.1941852  36.9905551
  12.1606286  35.1450457  28.5809341  11.7686078  34.8417172  27.8632207
  12.3159359  35.9819547  28.3914294  12.1259876  35.2234294  28.4465838
  12.9140706  23.8320774  38.0738427  12.1017388  23.5246664  38.1551600
  13.3730641  23.3519774  38.6381139  12.8621091  23.7157266  38.1693021
  12.3245961  31.7100446  28.5215371  11.9660616  31.8815089  29.2979404
  11.8384672  32.1713651  27.9643370  12.2004658  31.8039417  28.5540640
  10.1416347  15.3331644  32.1242463   9.2709905  15.3070365  32.0775772
  10.3956688  15.1608836  31.3068308  10.0509907  15.3041788  31.9962599
   7.1134326  27.3899611  21.0615606   7.4026851  28.1664494  21.3359180
   7.2006125  26.8788343  21.7630105   7.1688583  27.4291530  21.2058103
   7.1665488  17.3437873  33.5815933   6.6503976  16.6518064  33.7067512
   6.6059416  18.0108650  33.5278532   7.0072001  17.3401130  33.5921999
   9.2357721  17.8830833  35.4108786   8.8489474  17.9079864  36.1922315
   8.7490658  17.3172511  34.9583302   9.1070230  17.8026584  35.4596689
  15.2107700  24.4493488  34.0348488  14.7835309  24.3619836  33.2796587
  14.5733753  24.5571263  34.6203332  15.0537308  24.4526148  34.0093929
  12.3938781  17.3033707  30.6704347  12.5988375  17.2356015  31.5161344
  12.0665205  18.1092528  30.6025525  12.3754029  17.4119647  30.7864002
   7.0914932  24.6314275  32.4113315   6.7878070  24.0770263  33.0123723
   6.3894353  24.8106485  31.9241349   6.9431142  24.5759057  32.4283021
   6.1481029  21.9414795  26.9758017   6.4240764  21.2233707  26.5635585
   6.7479699  22.5399715  26.7679123   6.2774294  21.9235165  26.8838778
  15.6472469  17.8565471  30.1507113  15.0346783  18.3435873  30.5360845
  15.7436644  17.1808962  30.6944764  15.5710367  17.8283780  30.2885971
   9.6491550  19.6128312  25.2504612  10.1035296  19.7838873  25.9752457
  10.1231596  18.9996423  24.8502388   9.7859870  19.5479197  25.2978374
   3.5667698  20.2578636  35.2475368   4.0269180  20.3317565  35.9850492
   3.6123805  21.0559890  34.8975190   3.6418253  20.3872783  35.3048125
  12.9296592  34.5485950  32.0139375  12.7316280  35.0376764  31.3195586
  12.3084303  34.7527191  32.5923508  12.8084156  34.6502488  31.9962598
   6.9904570  26.3170846  26.3549619   7.7346615  26.7045123  26.5932569
   7.1365266  25.4728272  26.5190107   7.1215155  26.2501319  26.4143589
   8.9084145  18.1121105  31.3881481   8.0620190  18.2843913  31.2622831
   8.9055278  17.3070449  31.7247309   8.7831295  18.0182134  31.4192608
   9.9782446  21.8896320  32.2543539   9.5042400  21.3638082  32.7648850
  10.3500582  21.3425793  31.6858400   9.9632335  21.7312316  32.2458686
  16.2419176  26.9498695  33.6650319  16.0017399  26.1105111  33.6692746
  16.7211184  27.0298862  34.3891093  16.2771360  26.8380095  33.7725121
  11.9065945  22.7832874  25.3169292  11.3788964  22.8661618  24.6275001
  12.3661654  23.5250746  25.3133937  11.8967796  22.9053537  25.2143988
  18.2424363  23.7300153  31.6179578  18.0034133  23.6895987  30.7800363
  18.4058265  24.5771305  31.7445299  18.2314667  23.8492238  31.5133060
  14.8470393  28.1150102  37.5484623  15.5704592  27.6622628  37.3695643
  14.5820356  28.3954768  36.7656951  14.9151667  28.0901070  37.4063339
   3.8999011  21.0535394  20.3410188   3.5511815  21.7055119  20.8041737
   3.4195456  21.0392507  19.6134059   3.7769254  21.1478448  20.3021279
  11.4603028  31.3536438  24.4478949  12.1837227  31.8194551  24.3043523
  11.0203619  31.4210048  23.6976546  11.5018720  31.4320275  24.3163731
  10.6289183  28.2133980  35.6979638  10.0146176  27.6692031  35.9928274
  11.1456468  27.6998217  35.2185455  10.6144845  28.0570389  35.6703867
   9.8685480  29.2838250  33.4323937   9.4413088  28.6587969  32.9989373
   9.8610425  29.0013172  34.2582944   9.8044621  29.1491031  33.4903765
   8.1971190  20.1607005  33.6466471   8.2213677  19.6267117  32.9579251
   8.4482663  19.6524314  34.3092062   8.2381109  20.0067909  33.6431116
   4.4772512  18.8877823  33.0272215   4.5170884  19.3887030  33.7406923
   3.6522177  18.9788217  32.7578138   4.3612038  18.9759639  33.0922754
   4.2722919  23.6793924  25.8536232   4.4125880  24.1766389  26.5564874
   4.7705452  22.9780219  25.9950446   4.3664000  23.6495903  25.9787811
   4.3023142  24.5461035  23.1828809   4.9368221  25.1421460  23.1178271
   4.3848752  24.2464493  23.9974679   4.4079693  24.5901944  23.2931896
  17.2805707  27.0776513  36.0515173  17.8723548  27.7173763  36.0833371
  17.7164702  26.3799550  36.3407240  17.4324139  27.0694863  36.0996006
   5.8802125  20.4775011  23.1574251   6.2017966  19.9978093  22.5033513
   6.1429068  21.2874657  22.9665063   5.9668150  20.5264909  23.0329743
  11.2761280  19.8647205  35.5197730  11.7016351  19.4119731  34.9081256
  10.6618273  19.3107276  35.7962518  11.2489925  19.7161181  35.4702755
   0.8076130  26.7428876  26.4518355   1.3168359  27.3393384  26.8329661
   1.2810402  26.4754850  25.7694775   0.9519505  26.7914692  26.4072878
  11.7206878  35.4157143  24.6077011  11.0036187  35.2418005  24.1424248
  12.3713615  35.1809715  24.0752497  11.7108728  35.3552935  24.4606228
   9.7155502  16.3362305  28.9288307   9.0723820  16.1859951  29.4973446
   9.3754909  16.0904650  28.1637412   9.5700580  16.2774427  28.8991322
  14.3054849  24.2921731  28.3518316  13.6346039  24.8351434  28.2231381
  14.9994599  24.7616587  28.1100010  14.3083716  24.4420003  28.2973843
  14.4682976  20.7477615  31.2608689  14.8210586  20.3207338  31.9354488
  13.6097778  20.6628459  31.3909765  14.3932421  20.6722356  31.3803699
   3.1666661  23.3785135  29.3191535   2.4478650  23.7949267  29.5864399
   3.5379024  23.9439374  28.7683174   3.1158593  23.5234416  29.2774342
  12.4666242  24.0112984  35.2093531  12.4464169  23.8296279  36.0628310
  12.5145443  24.8825002  35.1853115  12.4700883  24.1129522  35.3316826
   8.9413236  22.4183135  24.6564915   8.3478075  22.7400131  24.1049482
   8.9788513  21.5724230  24.4486021   8.8587625  22.3407463  24.5447686
  15.9007036  15.8696027  32.1893001  15.3937901  15.1625166  32.1214179
  16.6974470  15.5389216  32.3194078  15.9434276  15.7169178  32.1991996
  11.8171052  22.3762639  28.0866665  11.5884745  22.3995341  27.2445023
  12.0769128  21.5520106  28.2061676  11.8217240  22.2578719  27.9791863
   4.8715815  20.9139185  29.3820861   5.3473181  21.2756265  28.7471042
   4.3704414  21.5695653  29.6621004   4.8681174  21.0633374  29.3297602
  18.1027176  30.3860954  25.1733866  18.4860782  31.1352310  25.4031963
  17.3071290  30.6326773  24.9145855  18.0420959  30.5330647  25.1691439
   6.9142468  23.0580385  22.7494245   7.2941433  23.0760014  21.9645359
   6.1735064  23.5034374  22.6285092   6.8611306  23.1262160  22.6157813
  14.5427758  21.3662576  28.3369823  14.5421985  21.2111233  29.1954100
  14.3383938  22.2125563  28.2811209  14.5127536  21.4683197  28.4557763
  12.2668610  26.0460078  31.9906030  12.7622276  25.3283073  31.9510051
  11.4568386  25.7430876  31.8760517  12.2212504  25.8957724  31.9679756
   7.7127222  29.8957891  24.1403035   6.9038545  29.5724565  24.0936344
   8.2202131  29.1891114  24.0731283   7.6676889  29.7439208  24.1233329
  14.3320429  28.7963766  34.6783159  14.7575501  28.2738188  34.1253584
  13.9677349  29.3944603  34.1571782  14.3407032  28.8073993  34.5192169
  10.9199029  32.5098030  31.0084317  11.3910207  33.2238293  31.1774302
  11.2559207  31.9096780  31.5444186  11.0394144  32.5269494  31.1116692
  10.9100879  14.2055827  34.5623505  10.1046843  14.0953556  34.8791343
  10.7807614  14.3068282  33.7053370  10.7721012  14.2039497  34.4831545
  14.3666839  20.3701319  35.1563201  13.7829828  20.8710525  34.7440769
  14.6871134  19.8630875  34.5227525  14.3280015  20.3693154  35.0021709
   6.9061639  19.2841913  25.4321876   7.7277333  19.4540226  25.1903571
   6.4431289  19.4389174  24.7088174   6.9592801  19.3323646  25.2893521
  17.5220423  34.8986605  30.9907540  17.1923753  35.3497749  30.3211239
  16.8465425  34.8202769  31.5380547  17.3730860  34.9537740  30.9730764
  24.7296831  30.8872128  29.2357151  24.4150272  31.5775607  29.6677573
  24.2123773  30.8316910  28.5342652  24.6061302  30.9807017  29.1954100
  15.7276378  32.9598894  26.4730488  16.4822346  33.3277211  26.2347538
  15.5503912  33.3338448  27.2409668  15.8130856  33.0697081  26.5515377
  14.0833442  35.3669213  23.1708601  13.9009015  35.5841093  22.3449594
  14.9459055  35.4808225  23.2267215  14.1838032  35.4159111  23.0563088
  19.7633161  32.3695623  26.2057625  20.4919322  32.1911578  25.7595781
  19.8528054  33.2113703  26.4164803  19.8839823  32.4679502  26.1711142
  21.9370399  35.2673087  30.8132703  21.2326725  34.7782273  30.9716622
  21.9855373  35.2795562  29.9421147  21.8400450  35.1962735  30.7072042
  14.8327448  33.7825097  29.0518672  13.9649874  33.8547696  29.1176281
  15.1202652  34.5847176  29.2406647  14.7467196  33.9119244  29.0893439
  22.0011258  34.3585480  28.0527254  22.7037610  34.1593228  27.5747212
  21.7355446  33.5861422  28.3596097  22.0657890  34.2148446  28.0272696
  24.1471367  28.9966150  31.1823801  24.2654935  29.4542613  30.4491103
  23.9733543  28.1911411  30.8960018  24.1390538  28.9459922  31.0324734
  21.1148931  30.8516952  32.1242463  20.2442489  30.8255673  32.0775772
  21.3689272  30.6794144  31.3068308  21.0242491  30.8227096  31.9962599
  18.1398071  32.8623181  33.5815933  17.6236560  32.1703372  33.7067512
  17.5792000  33.5293958  33.5278532  17.9804584  32.8586438  33.5921999
  23.3671365  32.8219015  30.6704347  23.5720958  32.7541323  31.5161344
  23.0397789  33.6277836  30.6025525  23.3486613  32.9304955  30.7864002
  17.1213613  37.4600103  26.9758017  17.3973347  36.7419015  26.5635585
  17.7212282  38.0585023  26.7679123  17.2506878  37.4420473  26.8838778
  20.6224133  35.1313620  25.2504612  21.0767880  35.3024180  25.9752457
  21.0964179  34.5181731  24.8502388  20.7592454  35.0664505  25.2978374
  19.8816729  33.6306413  31.3881481  19.0352774  33.8029221  31.2622831
  19.8787861  32.8255757  31.7247309  19.7563879  33.5367442  31.4192608
  22.8798529  38.3018182  25.3169292  22.3521548  38.3846926  24.6275001
  23.3394237  39.0436054  25.3133937  22.8700379  38.4238845  25.2143988
  15.4505096  34.4063131  33.0272215  15.4903467  34.9072338  33.7406923
  14.6254760  34.4973525  32.7578138  15.3344622  34.4944947  33.0922754
  16.8534708  35.9960319  23.1574251  17.1750549  35.5163401  22.5033513
  17.1161652  36.8059965  22.9665063  16.9400734  36.0450217  23.0329743
  20.6888086  31.8547613  28.9288307  20.0456404  31.7045259  29.4973446
  20.3487493  31.6089958  28.1637412  20.5433163  31.7959735  28.8991322
  19.9145819  37.9368443  24.6564915  19.3210659  38.2585439  24.1049482
  19.9521097  37.0909538  24.4486021  19.8320208  37.8592771  24.5447686
  22.7903636  37.8947947  28.0866665  22.5617329  37.9180649  27.2445023
  23.0501712  37.0705414  28.2061676  22.7949824  37.7764027  27.9791863
  15.8448398  36.4324493  29.3820861  16.3205765  36.7941573  28.7471042
  15.3436998  37.0880961  29.6621004  15.8413757  36.5818682  29.3297602
  17.8794222  34.8027221  25.4321876  18.7009917  34.9725534  25.1903571
  17.4163873  34.9574482  24.7088174  17.9325384  34.8508954  25.2893521
  16.3163192   2.3824712  14.2004273  16.2857196   3.2369348  14.3722543
  16.9144541   2.0820004  14.7590417  16.4000350   2.4641208  14.3079076
   9.5162877   1.4700363  18.9557204   8.6600773   1.6308861  19.0066321
   9.5630531   0.5992427  18.9762265   9.3961988   1.3651165  18.9663270
   3.9004017  11.0063081  14.7194435   3.1486916  10.6278619  14.4910481
   4.3490028  11.0381514  13.9713246   3.8553684  10.9548688  14.5751938
  12.8256594   7.7386888  28.5617660  13.5323361   7.2438919  28.6904594
  13.0144529   8.1795970  27.8320318  12.9584499   7.7305239  28.4726706
   9.3528977  11.4288450  10.1479983   9.0180345  12.1065372   9.7124205
   9.8655847  11.0393761   9.5596854   9.3794558  11.4713028   9.9966774
   8.8933268  13.3802719  16.0891094   9.2772647  13.9489617  15.5495869
   8.8292409  12.6552229  15.6096910   8.9406695  13.3578182  15.9384957
  12.3614698   3.5292407  21.5988856  12.9070658   4.2077493  21.6582825
  12.3031574   3.3879868  20.7390437  12.4330612   3.6084408  21.4800916
   5.4788773  11.0181473  16.9857208   5.5799136  10.2081827  17.2954336
   4.8830518  10.9238419  16.3556887   5.4061312  10.8846501  16.9383446
  14.1379767   4.9577014  12.4722583  14.0219293   5.7084700  12.9014721
  14.9335653   4.7000967  12.7218670  14.2384356   5.0311861  12.5726675
   5.3189512  15.9359062  18.3872064   5.9626968  16.3772226  18.7768222
   5.6445768  15.1312488  18.3002323   5.4621341  15.8824257  18.4317541
   6.0210092   8.9471037  13.7591926   6.3425933   9.4876244  13.1553234
   6.6682189   8.3767808  13.8914216   6.1636147   8.9430212  13.6898961
   8.0711800   0.9487032  13.8426312   8.7691965   1.1275159  14.3347776
   8.3864133   0.4257371  13.2196702   8.2207137   0.8980804  13.8228323
   8.2599736   7.3357477  13.8306104   8.6993371   6.7274577  14.2760877
   8.1104399   6.9564850  13.0591569   8.3021201   7.1895948  13.7825271
   5.7271379   5.9301489  21.0324929   6.3720381   5.4373932  20.7135878
   5.9673156   6.0726275  21.8591008   5.8581964   5.8778931  21.1074463
   8.2657470   8.7756394  20.6831822   8.5480713   7.9807800  20.4618578
   8.9943630   9.2536982  20.7036883   8.4147034   8.7290991  20.6534837
  11.8609072   5.6884658  10.7836873  11.7760367   6.5445625  10.9286442
  12.3493455   5.4128982  11.4519032  11.9197969   5.7741980  10.9038955
  12.7927505   2.3069452  12.2834608  12.2638977   2.5229086  12.9431915
  13.3152525   3.0005591  12.2035578  12.7915958   2.4412589  12.3690207
  18.2475558   7.8815757  17.6567653  17.4173261   8.0926400  17.8201069
  18.1984811   7.0552811  17.3809936  18.1182294   7.7905363  17.6405018
   4.6827113   6.2032669  11.0842076   4.0984328   6.7082700  11.4907940
   4.2797208   5.9775056  10.3438668   4.5366417   6.2440917  11.0347102
   6.3085296  10.7119611  20.4915562   5.7912238  10.3527026  19.8876870
   7.0059687  10.1881785  20.5021628   6.3350877  10.5817299  20.4045821
   9.9648888  11.1614425  26.4531735  10.0532234  10.9740565  27.3009946
  10.3938600  10.5151854  26.0536582  10.0410990  11.0377433  26.5203487
   7.5319348  10.4445585  25.4349397   6.9690182  10.0318195  25.9589059
   8.2940371  10.3698491  25.8542541   7.5613796  10.3722985  25.5742398
   3.0915339  12.4343606  18.0386028   3.7935918  11.9195595  18.0958784
   3.0112822  12.7617757  18.8432903   3.1839100  12.4057832  18.1658820
  17.7429517   0.5286157  21.4518074  16.9057938   0.5988344  21.6865669
  17.7117748   0.5310652  20.5792376  17.6147799   0.5396384  21.3577622
   2.4166115   8.6249958  17.5471636   3.2555014   8.8572891  17.5945397
   2.4477884   7.7554269  17.4778671   2.5447832   8.5306905  17.5436280
   3.0418818   9.0450833  21.8484941   3.5817042   8.9021964  22.5188314
   2.3588764   9.4447584  22.2168967   3.0210971   9.0830504  22.0019363
  12.4659702   4.7241834  17.0429966  13.2217217   5.1573348  17.0818874
  12.5722027   4.0746604  17.6164602  12.5929873   4.6919318  17.1327991
  15.5039874   8.5515111  17.7932369  15.0675105   8.5551854  18.5491340
  15.1702789   9.2320610  17.3611946  15.3902493   8.6527567  17.8413201
  10.0768947  10.5923444  29.1175519  10.8609364  10.7054292  29.4831261
   9.8765542   9.7664581  29.3134205  10.1634973  10.4870163  29.2009905
  10.2339340  12.5033546  22.7641974   9.4354586  12.2633046  23.0215843
  10.6825352  12.5547939  23.5109022  10.1813952  12.4755937  22.9126899
  18.6384220   5.2696031  16.6852006  19.3000654   4.7086700  16.5847914
  17.9975632   4.7748062  17.0104697  18.6413087   5.1132440  16.7184346
   9.5261027   8.5666162   8.9932929   9.9412176   8.2351186   8.3017425
   8.6952957   8.3335065   8.8653066   9.4649036   8.4837418   8.8723776
  14.9249050   6.2861413  16.4263995  15.1604640   6.4306612  15.5990845
  15.0738614   7.0503821  16.8195508  14.9814854   6.4200468  16.3627598
  16.7539507   5.1263079  14.2633598  17.0847724   5.6590720  13.6573693
  17.3272595   5.1801967  14.9195549  16.8873186   5.2132648  14.2711380
  11.9671396   2.9727982  14.9457178  12.0618251   3.7117276  15.3996804
  11.3430240   2.5445458  15.3791743  11.8880426   3.0189303  15.0765326
  10.2223870   6.1514195  25.5947459  10.7962732   5.5141439  25.7496023
  10.1438674   6.1518277  24.7257117  10.2957105   6.0579306  25.4893870
  12.2194418   4.8176722   8.1794131  12.1374580   4.8878909   9.0449117
  12.8574138   5.3806466   7.9877871  12.3014255   4.9115693   8.2784080
   5.5787589   4.5837460  17.6468657   5.3206833   3.7509195  17.6199956
   5.6336072   4.8095073  16.8061157   5.5487367   4.4935231  17.5188794
  17.8618859   0.3673576  15.7673760  17.6055424  -0.4446482  15.5771643
  18.7048173   0.3751143  15.5403947  17.9484884   0.2485574  15.7058577
   9.3234528   4.8397176  11.1902737  10.1375167   5.1312069  11.0785508
   9.2593669   4.1857039  10.6161030   9.4337267   4.7862371  11.0891574
  15.5444018   7.5223172  25.6032313  15.3082655   6.6911237  25.4844373
  16.1887247   7.4708779  26.1887157  15.6038689   7.3920860  25.6718206
   5.1942436   8.3118694  16.3175049   5.8316383   8.0730441  16.8626842
   5.6197508   8.5155853  15.5828210   5.3518602   8.3069704  16.2892206
   5.8345251   3.5320983  10.6549938   6.2190404   3.3128690  11.4066484
   5.5856871   4.3583929  10.7851015   5.8547324   3.6219130  10.7851015
  16.5680439   7.3067621  21.6660607  16.2626256   8.0395678  22.0273923
  15.8486654   6.9005551  21.3853393  16.4167781   7.3549354  21.6773744
   7.5763908   8.7891116  17.9968835   7.6502916   8.6266288  18.8510685
   8.3933414   8.9781306  17.7529317   7.7080267   8.7927859  18.0866861
  22.2682231   3.9460622  20.9928951  22.2006731   3.9656581  20.1231538
  22.2537893   4.7890949  21.2184622  22.2560987   4.0734356  20.8981428
   6.1168494  11.7525859  12.7282309   6.4066792  11.3614841  12.0041535
   6.8471975  11.9342564  13.1687584   6.2675378  11.7219673  12.6865116
  20.0540848   2.7205008  19.2675546  20.6048770   2.0873077  19.5072638
  20.0384963   3.2520401  19.9591050  20.1326044   2.7053956  19.4054404
   6.7063239   6.5543605  23.8135439   6.2074933   7.2659373  23.8920328
   7.5163463   6.8744272  23.7753602   6.7519346   6.7070454  23.8192008
   4.0574409  13.7293242  15.7942458   3.8374705  13.4390596  16.5869125
   3.8368931  13.0708197  15.2660371   3.9922004  13.5892950  15.8331367
   2.9691357   5.8166558  18.0598160   2.6804605   5.1904029  18.5943887
   3.8374705   5.7586846  18.1262841   3.0551608   5.7154102  18.1489115
  13.7569254   0.9601342  18.3780142  13.4134020   0.2391677  18.7287392
  13.8562297   0.7515193  17.5358500  13.7211297   0.8225545  18.3051822
   6.2242365  15.1022632  14.5773151   6.8766423  14.5699074  14.8064177
   5.5267974  14.7491284  14.9641025   6.2173083  14.9712155  14.6685319
   3.1723630   7.4561809  13.9840525   3.9269598   7.8374848  14.1975988
   2.5794243   7.9072953  14.4387222   3.1960343   7.5790637  14.0823404
  14.2182283   7.4227046  13.9204130  14.7840316   8.0820256  13.8362673
  13.5710187   7.7676744  14.3920532  14.2061040   7.5708987  13.9776887
   4.4921857   8.6270371  19.3580641   3.9702610   8.7670662  20.0432505
   4.8795877   7.8681035  19.5482758   4.4725557   8.5355894  19.4881717
  10.6888861  10.3665830  13.3441209  10.4475537   9.6333691  12.9368274
  10.8690194  10.9152687  12.6907543  10.6796485  10.3388221  13.1871432
   5.9188182   5.6574390  14.7562132   5.7230965   6.2649124  14.1622435
   6.1422528   4.9642334  14.2753806   5.9222823   5.6451915  14.5978212
  12.2760220  -1.1207074  20.2539685  11.4371320  -1.0945795  20.0177948
  12.3464587  -0.4736338  20.8345031  12.1628613  -1.0210948  20.3048802
   1.9674329   4.9487200  23.9797140   2.4795426   5.2271453  23.3305900
   1.6810671   5.6876494  24.3459953   2.0009192   5.0989554  23.9387018
  16.1517744   4.0860913  17.5400927  16.0651718   4.2416339  18.3935705
  15.6968223   4.7298989  17.1660332  16.0721000   4.2036668  17.6108033
  10.0243560   1.4071660  16.1626486   9.7778274   1.3267411  16.9963275
  10.3528683   0.6225128  15.9689014  10.0364803   1.2797926  16.2574009
  13.9191608   8.1155020  19.9513267  13.7805968   8.8136065  20.4562010
  13.1391606   7.9603676  19.5949449  13.7834835   8.1955186  19.9739542
  12.2569694   4.4151395  26.2035649  12.2517732   3.5431211  26.2078076
  12.9630687   4.6139564  25.7305105  12.3614698   4.3155269  26.1342684
   5.9840587   4.1428379  25.5749469   6.1283963   4.7229587  24.9392579
   6.3316235   4.5204676  26.2799324   6.0568048   4.2849083  25.5848464
   8.1560504   3.3418547  23.3574601   7.4083818   3.5349562  22.9522879
   8.3102029   2.5163767  23.1198722   8.0682932   3.2483659  23.2620007
   5.0568342  12.3331151  22.4410496   5.2057906  11.7734067  21.7883900
   5.8368344  12.4123152  22.8243015   5.1942436  12.2616716  22.4007445
  15.4144981   7.4733273  10.7129767  15.0351790   6.6870411  10.7059056
  14.7511227   8.0220130  10.5701411  15.2603456   7.4378097  10.6910563
   7.5821643  12.5045794  23.7194987   7.5065314  11.8354604  24.2745775
   7.5111502  13.2063582  24.2335653   7.5602249  12.5090701  23.8771835
   8.2391889  11.0246792  14.5518593   9.0041781  10.7556436  14.2301257
   8.1369979  10.5396803  15.2688656   8.3373385  10.9136357  14.6098420
  11.6588345   6.8613632  18.8171274  10.9833347   6.6298864  19.3184662
  11.6680722   6.2534815  18.1913379  11.5606850   6.7372557  18.7987427
   8.7882489   1.7031461  25.5735327   8.7241631   2.5641417  25.4455464
   8.9279677   1.3863454  24.7730879   8.7997960   1.7831628  25.4363540
  13.6605080   9.7178764  11.0481452  13.7424917  10.5245751  10.7242903
  14.1454822   9.7374724  11.7722226  13.7442238   9.8399427  11.1068351
   7.4701583   4.3963600  19.7151530   7.0463832   4.5968099  18.9790549
   7.2946439   3.5492448  19.8275830   7.3812464   4.3012382  19.6225220
   6.9713277  15.9114113  22.1772988   7.4609207  15.2124903  21.9948652
   6.3997509  15.6137983  22.7649045   6.9597807  15.7640337  22.2374028
   2.7584028   4.8915652  15.1479503   2.9148647   4.8262455  16.0035495
   3.0984621   5.6664204  14.9358183   2.8317263   4.9964850  15.2434097
   9.2963173   4.2673535  14.0172866   9.8378718   3.7643916  14.4811487
   9.6109732   4.2138730  13.2062351   9.4227570   4.1852956  13.9656678
  13.1680280   8.4776183  31.1299778  13.9815146   8.2061332  31.2904911
  13.0075247   8.1783723  30.3259974  13.2650229   8.3931109  31.0345184
   7.4649623   9.6590887  11.3012894   7.5342443   8.8005425  11.4405895
   8.2438078   9.8762768  10.9731919   7.5902473   9.5643751  11.2730051
  11.8557110  12.0828588  15.5149387  11.4636902  11.7795303  14.7972254
  12.0110182  12.9197678  15.3254341  11.8210700  12.1612425  15.3805885
  12.6091530   0.7698905  25.0078474  11.7968212   0.4624795  25.0891646
  13.0681465   0.2897905  25.5721186  12.5571915   0.6535397  25.1033068
  12.0196785   8.6478577  15.4555418  11.6611440   8.8193220  16.2319450
  11.5335496   9.1091783  14.8983416  11.8955482   8.7417548  15.4880687
  13.1801524   9.5382473  26.4022619  13.8181245   9.0442669  26.0685075
  12.5375616   9.4659873  25.8174846  13.1795751   9.4541481  26.2664974
  14.9058524   1.3871619  20.9688534  14.4786133   1.2997967  20.2136634
  14.2684577   1.4949394  21.5543379  14.7488132   1.3904279  20.9433976
  13.2355781  10.2302281  23.0427976  14.0248159   9.8791346  23.1630057
  13.4099379  11.0438670  22.7804609  13.3776063  10.2988138  23.0215844
   4.8484107   8.7842127  24.0525460   4.7404462   8.7944189  24.9187518
   5.0579889   9.6096907  23.8630414   4.8634218   8.9083202  24.1529551
   2.8657899   6.0354769  21.5147397   2.2745832   6.6764267  21.4850412
   3.6278923   6.4592387  21.4878697   2.8906160   6.1930608  21.5062545
  18.9848321   5.8660539  22.5124676  19.0431445   6.3147188  23.2584652
  18.3514788   6.2759352  22.0754756  18.8999616   5.9934274  22.5577224
  12.6247415  11.4864081  18.9479422  12.4267104  11.9754895  18.2535633
  12.0035127  11.6905322  19.5263555  12.5034980  11.5880619  18.9302645
   6.6855394   3.2548978  13.2889666   7.4297439   3.6423254  13.5272616
   6.8316090   2.4106403  13.4530154   6.8165979   3.1879450  13.3483636
  15.9370000   3.8876827  20.5990366  15.6968223   3.0483242  20.6032792
  16.4162007   3.9676993  21.3231139  15.9722184   3.7758226  20.7065168
  11.6016769  -0.2788994  12.2509339  11.0739788  -0.1960250  11.5615048
  12.0612477   0.4628877  12.2473984  11.5918620  -0.1568332  12.1484034
  17.9375187   0.6678284  18.5519625  17.6984957   0.6274118  17.7140410
  18.1009089   1.5149436  18.6785346  17.9265491   0.7870369  18.4473107
  14.5421217   5.0528233  24.4824670  15.2655416   4.6000760  24.3035690
  14.2771180   5.3332899  23.6996998  14.6102491   5.0279202  24.3403386
  11.1553852   8.2914569  11.3818996  11.8788051   8.7572682  11.2383570
  10.7154443   8.3588179  10.6316593  11.1969544   8.3698406  11.2503778
  10.3240007   5.1512111  22.6319685   9.7097000   4.6070162  22.9268321
  10.8407292   4.6376348  22.1525501  10.3095669   4.9948520  22.6043914
   9.5636304   6.2216381  20.3663984   9.1363912   5.5966100  19.9329419
   9.5561248   5.9391303  21.1922991   9.4995445   6.0869162  20.4243811
  16.9756531   4.0154644  22.9855220  17.5674372   4.6551895  23.0173418
  17.4115526   3.3177681  23.2747287  17.1274963   4.0072994  23.0336053
   8.8049921   8.4372016  23.6113114   8.2975012   8.9907863  24.0553744
   8.5076567   8.4980306  22.7931888   8.6854806   8.5278328  23.5561571
  11.4157702  12.3535274  11.5417057  10.6987011  12.1796136  11.0764295
  12.0664439  12.1187846  11.0092543  11.4059552  12.2931067  11.3946275
  14.0005673   1.2299863  15.2858362  13.3296863   1.7729565  15.1571428
  14.6945423   1.6994718  15.0440057  14.0034540   1.3798134  15.2313890
   8.0492407  13.3696575  20.5170121   7.8258061  12.6115404  20.8854147
   7.5602250  13.3994596  19.7950560   7.9435856  13.2618799  20.4646862
  12.1617066   0.9491115  22.1433578  12.1414993   0.7674410  22.9968357
  12.2096267   1.8203133  22.1193162  12.1651707   1.0507653  22.2656873
  10.1063396   7.5378307  28.0682054  10.0659251   6.8927984  27.4827210
  10.9186714   7.4814924  28.3807467  10.2206549   7.4337274  28.0279004
   6.6970863  13.5897033  17.9707205   6.2831262  12.9271163  17.5811047
   7.3818238  13.7374891  17.4502900   6.7369235  13.5137691  17.8363703
  10.0636158  12.7487118  18.7230822   9.6652441  12.8589388  17.9551642
   9.4487377  12.9569184  19.3057382   9.9135047  12.7960686  18.6962121
  11.5121876  -0.6859230  15.0206712  11.2835569  -0.6626528  14.1785070
  11.7719952  -1.5101763  15.1401722  11.5168064  -0.8043150  14.9131910
  17.7978000   7.3239085  12.1073913  18.1811606   8.0730441  12.3372010
  17.0022114   7.5704904  11.8485902  17.7371782   7.4708779  12.1031486
  14.2378582  -1.6959292  15.2709870  14.2372809  -1.8510636  16.1294147
  14.0334762  -0.8496305  15.2151256  14.2078360  -1.5938672  15.3897810
  11.9619434   2.9838209  18.9246077  12.4573100   2.2661204  18.8850097
  11.1519210   2.6809007  18.8100564  11.9163328   2.8335856  18.9019803
   7.4078046   6.8336023  11.0743082   6.5989369   6.5102696  11.0276391
   7.9152955   6.1269245  11.0071330   7.3627713   6.6817339  11.0573376
  14.0271253   5.7341897  21.6123206  14.4526325   5.2116319  21.0593631
  13.6628173   6.3322734  21.0911829  14.0357856   5.7452124  21.4532216
   3.6625333  14.0306114  20.3720551   3.9771892  14.8442503  20.3798333
   4.0718746  13.6456333  21.0402710   3.7693431  14.0934817  20.4724643
  10.6149853   9.4476161  17.9424363  11.0861031  10.1616424  18.1114349
  10.9510031   8.8474911  18.4784233  10.7344968   9.4647625  18.0456739
  12.7026837  11.0577475  30.1216435  12.8123803  10.2686035  30.4773183
  13.0317734  10.9683411  29.3190773  12.7679243  10.9283327  30.0558826
  11.2523799   9.2394095  24.7052056  10.7044745   8.6151979  24.4372121
  11.7136828   9.4288367  23.9896135  11.2391008   9.1753145  24.5602487
   1.0038353   7.9779223  20.0199160   1.6083211   7.9375057  19.3912981
   0.7965666   8.8250375  20.0503216   1.0627250   8.0967225  19.9315276
  10.8182125  10.2445168  21.2361397  11.6380499  10.1008134  21.4977692
  10.5376203  10.8691367  21.7777835  10.8978869  10.3155520  21.3549337
  27.2895776  17.9010020  14.2004273  27.2589780  18.7554656  14.3722543
  27.8877124  17.6005312  14.7590417  27.3732934  17.9826516  14.3079076
  14.8736600  26.5248389  14.7194435  14.1219500  26.1463927  14.4910481
  15.3222612  26.5566822  13.9713246  14.8286267  26.4733996  14.5751938
  23.7989177  23.2572196  28.5617660  24.5055944  22.7624227  28.6904594
  23.9877113  23.6981278  27.8320318  23.9317083  23.2490547  28.4726706
  20.3261560  26.9473758  10.1479983  19.9912929  27.6250680   9.7124205
  20.8388431  26.5579069   9.5596854  20.3527141  26.9898336   9.9966774
  19.8665851  28.8988027  16.0891094  20.2505231  29.4674925  15.5495869
  19.8024993  28.1737537  15.6096910  19.9139279  28.8763490  15.9384957
  16.4521356  26.5366781  16.9857208  16.5531719  25.7267135  17.2954336
  15.8563102  26.4423727  16.3556887  16.3793895  26.4031809  16.9383446
  25.1112350  20.4762322  12.4722583  24.9951876  21.2270008  12.9014721
  25.9068237  20.2186275  12.7218670  25.2116940  20.5497169  12.5726675
  16.2922096  31.4544370  18.3872064  16.9359552  31.8957534  18.7768222
  16.6178352  30.6497796  18.3002323  16.4353925  31.4009565  18.4317541
   9.6486401  22.5587067  16.6109542   9.4136585  21.7254720  16.5041810
   9.7872041  22.8391733  15.7970743   9.6342063  22.4770571  16.4751897
  11.9476488  14.7272798  19.5093849  11.3281520  14.1365445  19.3403864
  11.8460352  15.3184233  18.8758173  11.8414164  14.7276880  19.3898839
  16.9942676  24.4656345  13.7591926  17.3158517  25.0061552  13.1553234
  17.6414772  23.8953116  13.8914216  17.1368731  24.4615520  13.6898961
  11.6745621  18.2725080  21.7537418  11.5504318  18.8587525  22.3887237
  12.3263906  17.7785275  22.0549693  11.7519271  18.2863884  21.8923348
  19.2390054  24.2941702  20.6831822  19.5213296  23.4993108  20.4618578
  19.9676214  24.7722290  20.7036883  19.3879617  24.2476299  20.6534837
  17.2171247  11.8364736  17.9247587  16.8874577  12.2875880  17.2551286
  16.5416249  11.7580900  18.4720594  17.0681684  11.8915872  17.9070810
  22.8341656  21.2069966  10.7836873  22.7492951  22.0630933  10.9286442
  23.3226039  20.9314290  11.4519032  22.8930553  21.2927287  10.9038955
  24.4247655   7.8250259  16.1697198  24.1101096   8.5153738  16.6017620
  23.9074597   7.7695042  15.4682698  24.3012126   7.9185148  16.1294147
  23.7660089  17.8254760  12.2834608  23.2371560  18.0414394  12.9431915
  24.2885109  18.5190899  12.2035578  23.7648542  17.9597897  12.3690207
  29.2208142  23.4001065  17.6567653  28.3905845  23.6111708  17.8201069
  29.1717394  22.5738119  17.3809936  29.0914877  23.3090671  17.6405018
  15.6559697  21.7217977  11.0842076  15.0716912  22.2268008  11.4907940
  15.2529792  21.4960364  10.3438668  15.5099001  21.7626225  11.0347102
  11.2103725  27.4372738  17.8865748  10.7271304  28.1623228  17.8625331
  12.0227044  27.7348868  17.9975906  11.2594473  27.5875092  17.8993027
  17.2817879  26.2304919  20.4915562  16.7644821  25.8712334  19.8876870
  17.9792271  25.7067093  20.5021628  17.3083461  26.1002607  20.4045821
  20.9381471  26.6799733  26.4531735  21.0264817  26.4925873  27.3009946
  21.3671184  26.0337162  26.0536582  21.0143574  26.5562741  26.5203487
  18.5051931  25.9630893  25.4349397  17.9422766  25.5503503  25.9589059
  19.2672955  25.8883798  25.8542541  18.5346380  25.8908293  25.5742398
  20.1136911  17.9683629   9.5610997  20.3532915  18.1761613   8.7486340
  20.4352752  17.1641138   9.6699941  20.1974069  17.8797730   9.4571550
  15.4227201   9.8977025  13.4070535  16.1773170  10.2655342  13.1687585
  15.2454736  10.2716579  14.1749714  15.5081680  10.0075213  13.4855423
  14.0647923  27.9528914  18.0386028  14.7668502  27.4380903  18.0958784
  13.9845406  28.2803065  18.8432903  14.1571683  27.9243140  18.1658820
  28.7162100  16.0471465  21.4518074  27.8790521  16.1173652  21.6865669
  28.6850331  16.0495960  20.5792376  28.5880383  16.0581692  21.3577622
  15.1126829  18.1904501  27.1666443  15.2847333  18.0810396  28.0151724
  15.6496187  18.8358906  26.9297635  15.2171833  18.2696503  27.2571539
  13.7784266  12.3047344  10.1048648  13.5959839  12.5219225   9.2789641
  14.6409879  12.4186356  10.1607262  13.8788856  12.3537242   9.9903135
  13.3898698  24.1435266  17.5471636  14.2287598  24.3758199  17.5945397
  13.4210467  23.2739577  17.4778671  13.5180416  24.0492212  17.5436280
  14.0151401  24.5636141  21.8484941  14.5549626  24.4207272  22.5188314
  13.3321347  24.9632892  22.2168967  13.9943555  24.6015812  22.0019363
  19.4583985   9.3073754  13.1397672  20.1870146   9.1289709  12.6935828
  19.5478878  10.1491834  13.3504850  19.5790647   9.4057633  13.1051189
  26.4772457  24.0700419  17.7932369  26.0407689  24.0737161  18.5491340
  26.1435373  24.7505918  17.3611946  26.3635077  24.1712875  17.8413201
  21.0501531  26.1108752  29.1175519  21.8341947  26.2239600  29.4831261
  20.8498125  25.2849889  29.3134205  21.1367556  26.0055471  29.2009905
   9.4188546  20.7836432  22.0019363   9.1526961  19.9675549  22.1610353
   9.4327110  20.8289588  21.1314878   9.3813269  20.6693337  21.8972845
  26.3969940  11.1114247  20.0361796  27.0395848  11.1812351  20.6223712
  26.6492961  10.4443470  19.5341338  26.5292072  11.0240596  20.0489076
  13.3246293  15.5821516   8.6171121  12.6104470  15.2959696   9.0293553
  13.8090262  15.9218142   9.2577508  13.2905656  15.5903166   8.7726756
  14.1687153  14.3214810  24.6486370  13.4758949  13.8511790  24.8947102
  14.7847480  14.0953115  25.2228078  14.1571682  14.2181942  24.7695523
  21.2071924  28.0218854  22.7641974  20.4087170  27.7818354  23.0215843
  21.6557936  28.0733247  23.5109022  21.1546535  27.9941245  22.9126899
  29.6116803  20.7881339  16.6852006  30.2733237  20.2272007  16.5847914
  28.9708215  20.2933370  17.0104697  29.6145671  20.6317748  16.7184346
  20.4993611  24.0851470   8.9932929  20.9144760  23.7536494   8.3017425
  19.6685541  23.8520373   8.8653066  20.4381620  24.0022726   8.8723776
   9.8281960  21.5695211  19.2831107   9.6457533  21.5442097  18.4303399
  10.5631629  22.0394149  19.3220016   9.9096024  21.6356574  19.1629025
  25.8981634  21.8046721  16.4263995  26.1337223  21.9491920  15.5990845
  26.0471198  22.5689129  16.8195508  25.9547437  21.9385776  16.3627598
  12.8927712  18.2880214  25.7913216  13.6167684  18.2733245  26.2778110
  12.9943848  18.9975570  25.2935184  13.0145921  18.3904917  25.7892002
  27.7272091  20.6448387  14.2633598  28.0580308  21.1776027  13.6573693
  28.3005179  20.6987275  14.9195549  27.8605770  20.7317956  14.2711380
  20.2672661  21.7679299  30.6562163  19.4745642  22.0822811  30.8414782
  20.3821588  21.9830767  29.8182947  20.1668071  21.8463136  30.5600497
  21.1956454  21.6699503  25.5947459  21.7695315  21.0326747  25.7496023
  21.1171257  21.6703585  24.7257117  21.2689689  21.5764614  25.4893870
   9.7952870  18.4488712  19.4330174  10.3726373  18.3125163  20.0722419
   9.0966932  17.9924496  19.6875758   9.7773892  18.3610978  19.5652463
  23.1927001  20.3362030   8.1794131  23.1107164  20.4064217   9.0449117
  23.8306722  20.8991774   7.9877871  23.2746839  20.4301001   8.2784080
  21.6321223  12.2051218  17.7472749  20.9277549  11.7160404  17.9056669
  21.6806197  12.2173693  16.8761194  21.5351274  12.1340866  17.6412089
  28.8351442  15.8858884  15.7673760  28.5788007  15.0738826  15.5771643
  29.6780756  15.8936451  15.5403947  28.9217468  15.7670882  15.7058577
   5.2711703  17.3000605  16.1477992   5.3571955  16.9232473  16.9291522
   5.8987501  16.9261051  15.6697950   5.3768254  17.1886087  16.1923469
  23.0154535   9.8258508  20.5049914  23.3965046   9.1436679  20.8917788
  22.2117819   9.5368110  20.3225579  22.9530996   9.6825557  20.5353970
  20.2967111  20.3582484  11.1902737  21.1107750  20.6497377  11.0785508
  20.2326253  19.7042346  10.6161030  20.4069850  20.3047679  11.0891574
  26.5176602  23.0408480  25.6032313  26.2815239  22.2096545  25.4844373
  27.1619830  22.9894087  26.1887157  26.5771272  22.9106168  25.6718206
  10.8587662  26.0692338  20.2009353  10.8991807  26.3407189  19.3729132
  11.4182186  26.5934246  20.6167141  10.9471008  26.1868093  20.1401241
  16.8077835  19.0506291  10.6549938  17.1922987  18.8313998  11.4066484
  16.5589455  19.8769237  10.7851015  16.8279907  19.1404438  10.7851015
  16.9746375  12.3312706  30.3712523  16.6599816  13.1012269  30.1082085
  16.6536308  11.7682963  29.7864750  16.8805294  12.3622975  30.2453873
  27.5413022  22.8252929  21.6660607  27.2358839  23.5580986  22.0273923
  26.8219238  22.4190858  21.3853393  27.3900364  22.8734662  21.6773744
  18.5496492  24.3076424  17.9968835  18.6235500  24.1451596  18.8510685
  19.3665998  24.4966614  17.7529317  18.6812850  24.3113167  18.0866861
  33.2414814  19.4645930  20.9928951  33.1739315  19.4841889  20.1231538
  33.2270477  20.3076257  21.2184622  33.2293571  19.5919664  20.8981428
  12.3102248  24.6534287  15.0263279  11.4840366  24.8996024  14.8997558
  12.3714240  24.5746368  15.8925337  12.1976415  24.6779236  15.1352223
  14.5278272  10.7203228  15.9858719  13.6600698  10.7925827  16.0516328
  14.8153476  11.5225307  16.1746694  14.4418020  10.8497375  16.0233486
  23.6511161  10.8681087  24.3170041  24.3964753  10.6790898  23.9033466
  23.2348465  11.3939325  23.7583897  23.6996135  10.9183233  24.1734614
  17.0901077  27.2711167  12.7282309  17.3799376  26.8800149  12.0041535
  17.8204558  27.4527872  13.1687584  17.2407962  27.2404981  12.6865116
  31.0273432  18.2390316  19.2675546  31.5781353  17.6058385  19.5072638
  31.0117547  18.7705709  19.9591050  31.1058628  18.2239264  19.4054404
  15.0306993  29.2478550  15.7942458  14.8107288  28.9575904  16.5869125
  14.8101515  28.5893505  15.2660371  14.9654587  29.1078258  15.8331367
  17.1974949  30.6207940  14.5773151  17.8499007  30.0884382  14.8064177
  16.5000557  30.2676592  14.9641025  17.1905667  30.4897463  14.6685319
  25.1914867  22.9412354  13.9204130  25.7572900  23.6005563  13.8362673
  24.5442770  23.2862052  14.3920532  25.1793623  23.0894295  13.9776887
  16.6062881  14.9309958  29.1097737  15.7962656  15.2367737  28.9987580
  17.0837567  15.6515540  29.2250322  16.5566359  15.0824559  29.1104809
  15.4654440  24.1455679  19.3580641  14.9435194  24.2855970  20.0432505
  15.8528460  23.3866343  19.5482758  15.4458141  24.0541202  19.4881717
  12.4545624  14.1961487  13.4275595  12.1670420  13.8262758  12.6907543
  13.1416092  14.6656343  13.1659300  12.5134521  14.2108457  13.2790671
  21.6621445  25.8851138  13.3441209  21.4208121  25.1518998  12.9368274
  21.8422778  26.4337995  12.6907543  21.6529069  25.8573529  13.1871432
  12.9406912  20.4672508  23.9797140  13.4528009  20.7456761  23.3305900
  12.6543255  21.2061802  24.3459953  12.9741776  20.6174862  23.9387018
  21.6962082  11.2963611  14.9867301  22.3988434  11.0971360  14.5087259
  21.4306270  10.5239554  15.2936144  21.7608714  11.1526577  14.9612742
  27.1250327  19.6046221  17.5400927  27.0384302  19.7601647  18.3935705
  26.6700807  20.2484297  17.1660332  27.0453584  19.7221976  17.6108033
  10.0273819  14.9742700  14.2760876  10.1289955  15.7768861  14.6041852
  10.8229705  14.7730036  13.9783957  10.1601724  15.0628599  14.2796232
  16.4590638  12.5598896  24.0398181  16.2673835  12.5754031  24.8897605
  17.3089234  12.7562571  24.0164836  16.5566360  12.5913248  24.1621476
  10.8437551  15.0889878  22.0181998  10.7023043  14.2373819  22.1426506
  11.1278114  15.1318539  21.1944204  10.8645397  14.9689628  21.9149622
  24.8924192  23.6340327  19.9513267  24.7538551  24.3321373  20.4562010
  24.1124190  23.4788984  19.5949449  24.7567419  23.7140494  19.9739542
  23.2302277  19.9336703  26.2035649  23.2250316  19.0616519  26.2078076
  23.9363271  20.1324872  25.7305105  23.3347281  19.8340577  26.1342684
  16.9573170  19.6613687  25.5749469  17.1016546  20.2414895  24.9392579
  17.3048819  20.0389983  26.2799324  17.0300632  19.8034391  25.5848464
  16.0300925  27.8516459  22.4410496  16.1790489  27.2919374  21.7883900
  16.8100928  27.9308460  22.8243015  16.1675019  27.7802024  22.4007445
  26.3877565  22.9918581  10.7129767  26.0084374  22.2055719  10.7059056
  25.7243810  23.5405438  10.5701411  26.2336040  22.9563405  10.6910563
  18.5554226  28.0231101  23.7194987  18.4797897  27.3539912  24.2745775
  18.4844085  28.7248890  24.2335653  18.5334833  28.0276009  23.8771835
  19.3694865  12.7554406  24.2470005  19.8267479  13.4878380  24.3742797
  19.4451194  12.3320871  25.0057260  19.4485835  12.8011644  24.3771081
  11.6127856  13.0020226  25.3359448  11.0770046  12.3900584  25.6520216
  11.6745621  13.5768362  25.9893115  11.5423489  12.9967153  25.4794875
  23.8422191   5.9344281  18.1163847  23.9605759   6.3920744  17.3831150
  23.6684367   5.1289542  17.8300065  23.8341362   5.8838053  17.9664781
  19.2124473  26.5432100  14.5518593  19.9774364  26.2741744  14.2301257
  19.1102563  26.0582111  15.2688656  19.3105968  26.4321665  14.6098420
  17.2477243  14.7456510  21.0911829  16.4573318  14.5647970  21.4129164
  17.6437866  13.9683462  21.0742123  17.1894119  14.6043971  21.1364377
  21.7343134  23.5744284   6.5318542  22.5016119  23.6344409   6.1224394
  21.2874443  23.0024726   6.0474861  21.7816561  23.4980860   6.3996252
  22.6320929  22.3798940  18.8171274  21.9565931  22.1484172  19.3184662
  22.6413305  21.7720123  18.1913379  22.5339434  22.2557865  18.7987427
  19.7615073  17.2216769  25.5735327  19.6974214  18.0826725  25.4455464
  19.9012261  16.9048762  24.7730879  19.7730543  17.3016936  25.4363540
  24.6337664  25.2364072  11.0481452  24.7157501  26.0431058  10.7242903
  25.1187406  25.2560032  11.7722226  24.7174822  25.3584735  11.1068351
  17.9445860  31.4299421  22.1772988  18.4341791  30.7310210  21.9948652
  17.3730093  31.1323291  22.7649045  17.9330390  31.2825645  22.2374028
  24.1412864  23.9961491  31.1299778  24.9547729  23.7246639  31.2904911
  23.9807830  23.6969031  30.3259974  24.2382812  23.9116417  31.0345184
  18.4382206  25.1776195  11.3012894  18.5075027  24.3190733  11.4405895
  19.2170661  25.3948076  10.9731919  18.5635056  25.0829059  11.2730051
  22.8289694  27.6013896  15.5149387  22.4369486  27.2980611  14.7972254
  22.9842766  28.4382986  15.3254341  22.7943284  27.6797733  15.3805885
  10.3050873  17.5935910  15.4640270  10.6849838  18.0120455  14.8000537
   9.7306238  18.1749366  15.7709113  10.2762198  17.7413769  15.4117011
  23.5824114  16.2884213  25.0078474  22.7700796  15.9810103  25.0891646
  24.0414049  15.8083213  25.5721186  23.5304499  16.1720705  25.1033068
  22.9929369  24.1663885  15.4555418  22.6344023  24.3378528  16.2319450
  22.5068079  24.6277091  14.8983416  22.8688065  24.2602856  15.4880687
  20.8099755   7.7895083  19.0582509  19.9393313   7.7633805  19.0115819
  21.0640096   7.6172276  18.2408355  20.7193315   7.7605227  18.9302646
  17.7817734  19.8463050   7.9955652  18.0710259  20.6227933   8.2699227
  17.8689533  19.3351782   8.6970152  17.8371990  19.8854969   8.1398150
  20.6777621  17.6944284  29.7907176  21.1477253  18.3186401  30.1775050
  20.7239502  17.0261260  30.3500391  20.7545497  17.6878965  29.9307247
  17.8348895   9.8001312  20.5155980  17.3187384   9.1081503  20.6407559
  17.2742824  10.4672089  20.4618578  17.6755408   9.7964569  20.5262046
  19.9041129  10.3394272  22.3448832  19.5172882  10.3643303  23.1262362
  19.4174066   9.7735951  21.8923349  19.7753637  10.2590023  22.3936736
  24.1534108  25.0567781  26.4022619  24.7913828  24.5627977  26.0685075
  23.5108200  24.9845181  25.8174846  24.1528334  24.9726789  26.2664974
  19.5698270   7.2261257  24.6359092  20.1991388   7.7621557  24.3580163
  19.7384133   7.1338616  25.4872658  19.6876065   7.2922620  24.7207620
  19.3712185  12.0132452  26.9085504  20.1985614  11.7417601  26.9644118
  19.3920031  12.8093294  27.2649322  19.4965035  12.0912206  26.9700687
  24.2088365  25.7487589  23.0427976  24.9980743  25.3976654  23.1630057
  24.3831962  26.5623978  22.7804609  24.3508646  25.8173446  23.0215844
  13.9481675  19.1596315  20.0955764  13.1069682  19.0600189  20.3034658
  14.1571683  19.9291795  20.4470085  13.8546368  19.2588358  20.1783079
  11.4257242  16.7815852  17.9240515  11.0313940  16.8558864  17.1490625
  10.8697359  17.1673798  18.4748877  11.2860054  16.8497626  17.8908175
  23.0622189   9.7597146  17.6044394  23.2671782   9.6919454  18.4501391
  22.7348613  10.5655967  17.5365571  23.0437437   9.8683086  17.7204049
  16.8164437  14.3978234  13.9098064  17.0924171  13.6797146  13.4975631
  17.4163106  14.9963154  13.7019170  16.9457702  14.3798605  13.8178825
  15.8216691  24.3027435  24.0525460  15.7137046  24.3129497  24.9187518
  16.0312472  25.1282215  23.8630414  15.8366802  24.4268510  24.1529551
  26.3155876  10.3128910  17.0847159  25.7030190  10.7999312  17.4700891
  26.4120051   9.6372401  17.6284811  26.2393774  10.2847219  17.2226018
  20.3174957  12.0691751  12.1844659  20.7718704  12.2402312  12.9092503
  20.7915003  11.4559862  11.7842435  20.4543278  12.0042636  12.2318420
  13.8390483  21.5540077  21.5147397  13.2478416  22.1949575  21.4850412
  14.6011506  21.9777694  21.4878697  13.8638743  21.7115916  21.5062545
  14.2351106  12.7142075  22.1815415  14.6952587  12.7881004  22.9190539
  14.2807212  13.5123329  21.8315236  14.3101661  12.8436222  22.2388171
  15.8834455  13.3808770  26.7487442  15.4920020  12.7342117  27.1843220
  16.0520318  13.9720205  27.3681697  15.8505366  13.3723038  26.9050148
  29.9580904  21.3845847  22.5124676  30.0164028  21.8332496  23.2584652
  29.3247372  21.7944660  22.0754756  29.8732199  21.5119582  22.5577224
  23.5979999  27.0049389  18.9479422  23.3999688  27.4940203  18.2535633
  22.9767710  27.2090630  19.5263555  23.4767564  27.1065927  18.9302645
  19.5767553  10.5684545  18.3221528  18.7303598  10.7407352  18.1962877
  19.5738685   9.7633888  18.6587356  19.4514703  10.4745573  18.3532654
  11.0238883  16.3431266  24.5567131  11.8864496  16.2426975  24.4704461
  10.6930666  15.7625975  23.9952703  11.1024080  16.2422892  24.4612537
  26.9102584  19.4062135  20.5990366  26.6700807  18.5668550  20.6032792
  27.3894591  19.4862301  21.3231139  26.9454768  19.2943534  20.7065168
  22.5749353  15.2396313  12.2509339  22.0472372  15.3225057  11.5615048
  23.0345061  15.9814185  12.2473984  22.5651203  15.3616976  12.1484034
  28.9107771  16.1863592  18.5519625  28.6717541  16.1459426  17.7140410
  29.0741672  17.0334744  18.6785346  28.8998074  16.3055677  18.4473107
  25.5153801  20.5713541  24.4824670  26.2388000  20.1186067  24.3035690
  25.2503763  20.8518207  23.6996998  25.5835074  20.5464510  24.3403386
  14.3840669  15.1673715  21.2177549  13.7593740  15.1792107  20.6103502
  14.0486264  15.6433890  21.8668790  14.2426161  15.2392232  21.2234118
  14.5682418  13.5098833   7.2750234  14.2195222  14.1618558   7.7381784
  14.0878864  13.4955946   6.5474106  14.4452662  13.6041887   7.2361326
  11.0966345  23.2274175  22.6581314  10.5666269  22.5366614  22.7076288
  11.3691438  23.2184360  21.8294022  11.0591067  23.1241307  22.5428730
  22.1286435  23.8099877  11.3818996  22.8520634  24.2757990  11.2383570
  21.6887026  23.8773487  10.6316593  22.1702128  23.8883714  11.2503778
  13.6531415  16.7766862  23.4352418  13.8124901  16.0210187  23.8404140
  13.4724308  17.3257802  24.0893156  13.6496774  16.7460676  23.5915124
  21.5951718   8.9428098  23.9903207  21.0992279   9.1391772  23.2994774
  22.3520780   9.3420766  23.8192009  21.6338542   9.0305832  23.8623344
  18.8654597  12.6170444  20.5806518  18.8897085  12.0830556  19.8919298
  19.1166071  12.1087753  21.2432108  18.9064516  12.4631348  20.5771163
   6.3762187  19.9001939  20.0149662   6.2705636  19.8548783  19.1501746
   5.6262407  20.2455719  20.2963947   6.2497790  19.9442847  19.9286992
  15.1455920  11.3441262  19.9612262  15.1854291  11.8450469  20.6746970
  14.3205584  11.4351656  19.6918185  15.0295446  11.4323078  20.0262800
  17.3285532  20.9102002  28.0632557  16.4781163  21.0473716  28.1990202
  17.4913660  20.1765780  28.5080258  17.2269396  20.8216103  28.1488156
  14.3754066  11.3510665  27.8942572  15.0006770  10.8072798  28.1672004
  13.9204546  10.8705582  27.3250362  14.4002327  11.2000146  27.8504166
  14.9406327  16.1357364  12.7876279  15.0809288  16.6329828  13.4904920
  15.4388860  15.4343658  12.9290493  15.0347408  16.1059342  12.9127858
  14.9706549  17.0024475  10.1168856  15.6051629  17.5984900  10.0518318
  15.0532160  16.7027932  10.9314726  15.0763100  17.0465383  10.2271942
  27.9489115  19.5339952  22.9855220  28.5406955  20.1737203  23.0173418
  28.3848109  18.8362989  23.2747287  28.1007546  19.5258302  23.0336053
  16.5485532  12.9338450  10.0914298  16.8701373  12.4541532   9.4373560
  16.8112476  13.7438096   9.9005109  16.6351557  12.9828348   9.9669790
  19.7782505  23.9557324  23.6113114  19.2707596  24.5093171  24.0553744
  19.4809151  24.0165614  22.7931888  19.6587390  24.0463635  23.5561571
  21.9444687  12.3210644  22.4537777  22.3699759  11.8683170  21.8421303
  21.3301680  11.7670715  22.7302564  21.9173332  12.1724620  22.4042802
  11.4759537  19.1992315  13.3858402  11.9851766  19.7956823  13.7669707
  11.9493809  18.9318289  12.7034821  11.6202913  19.2478131  13.3412925
  22.3890285  27.8720582  11.5417057  21.6719595  27.6981444  11.0764295
  23.0397023  27.6373154  11.0092543  22.3792136  27.8116374  11.3946275
  20.3838910   8.7925744  15.8628354  19.7407228   8.6423390  16.4313492
  20.0438317   8.5468089  15.0977458  20.2383987   8.7337866  15.8331369
  24.9738256  16.7485171  15.2858362  24.3029446  17.2914873  15.1571428
  25.6678007  17.2180026  15.0440057  24.9767124  16.8983442  15.2313890
  19.0224990  28.8881883  20.5170121  18.7990645  28.1300712  20.8854147
  18.5334833  28.9179904  19.7950560  18.9168439  28.7804107  20.4646862
  25.1366384  13.2041054  18.1948736  25.4893994  12.7770777  18.8694534
  24.2781185  13.1191898  18.3249812  25.0615828  13.1285795  18.3143746
  13.8350069  15.8348574  16.2531582  13.1162058  16.2512706  16.5204446
  14.2062431  16.4002813  15.7023220  13.7842001  15.9797855  16.2114389
  21.0795979  23.0563615  28.0682054  21.0391834  22.4113292  27.4827210
  21.8919298  23.0000232  28.3807467  21.1939133  22.9522582  28.0279004
  17.6703447  29.1082341  17.9707205  17.2563846  28.4456471  17.5811047
  18.3550821  29.2560199  17.4502900  17.7101819  29.0322999  17.8363703
  21.0368741  28.2672426  18.7230822  20.6385024  28.3774696  17.9551642
  20.4219961  28.4754492  19.3057382  20.8867630  28.3145994  18.6962121
  19.6096643  14.8746574  11.5904962  19.0161482  15.1963570  11.0389529
  19.6471921  14.0287669  11.3826068  19.5271032  14.7970902  11.4787733
  26.5690444   8.3259466  19.1233048  26.0621309   7.6188606  19.0554226
  27.3657878   7.9952655  19.2534125  26.6117683   8.1732617  19.1332043
  22.4854460  14.8326078  15.0206712  22.2568153  14.8558780  14.1785070
  22.7452536  14.0083545  15.1401722  22.4900648  14.7142158  14.9131910
  16.7673688  16.6860551  24.6231812  16.2552591  16.0781734  24.9816843
  16.5953184  17.4017144  25.0905788  16.6663325  16.7023851  24.7448036
  11.6139403  15.1298127  27.2734174  11.4441993  15.7899501  26.7282381
  11.1705353  15.3404688  27.9946663  11.5238736  15.2584109  27.2995803
  15.5399222  13.3702625  16.3160908  16.0156589  13.7319704  15.6811089
  15.0387822  14.0259092  16.5961050  15.5364581  13.5196813  16.2637649
  28.7710584  22.8424393  12.1073913  29.1544190  23.5915749  12.3372010
  27.9754697  23.0890212  11.8485902  28.7104366  22.9894086  12.1031486
  20.6442759  14.6084796  27.0634068  21.2014189  14.3798605  26.4312533
  20.3203824  15.3690462  26.7869280  20.6789169  14.6868633  26.9290565
   8.5141467  18.0344992  22.5322664   7.9668187  17.3645638  22.6503532
   9.3033846  17.6674840  22.5966131   8.5493651  17.8809979  22.5591364
  18.3625876  17.6952449  28.0286075  19.1137203  18.0104126  28.3425629
  18.5548452  17.4931620  27.2019997  18.5017290  17.7119831  27.9529471
  17.5825875  15.5143824   9.6834292  17.9624840  15.5323454   8.8985406
  16.8418471  15.9597813   9.5625139  17.5294713  15.5825599   9.5497860
  25.2111166  13.8226016  15.2709870  25.2105392  13.6674672  16.1294147
  25.0067346  14.6689003  15.2151256  25.1810944  13.9246636  15.3897810
   7.2728437  17.2465800  19.6868687   7.0950198  16.7942409  20.4123602
   6.9847459  18.0491961  19.8707164   7.2041390  17.2988358  19.8212190
  18.3810629  22.3521331  11.0743082  17.5721952  22.0288004  11.0276391
  18.8885538  21.6454553  11.0071330  18.3360296  22.2002647  11.0573376
   9.0100907  19.7793524  16.7990446   8.1446426  19.7679214  16.6873217
   9.1099723  19.5923747  17.6461585   8.8975074  19.7499585  16.9079390
  25.0003837  21.2527205  21.6123206  25.4258908  20.7301627  21.0593631
  24.6360757  21.8508042  21.0911829  25.0090439  21.2637432  21.4532216
  14.6357917  29.5491422  20.3720551  14.9504476  30.3627811  20.3798333
  15.0451330  29.1641641  21.0402710  14.7426015  29.6120125  20.4724643
  21.5882436  24.9661469  17.9424363  22.0593614  25.6801732  18.1114349
  21.9242615  24.3660219  18.4784233  21.7077551  24.9832933  18.0456739
  23.6759421  26.5762782  30.1216435  23.7856386  25.7871343  30.4773183
  24.0050317  26.4868719  29.3190773  23.7411827  26.4468635  30.0558826
  18.5051931   9.7388940  24.8982458  18.6379837   8.9419933  25.2263434
  18.8897084  10.2655343  25.4780734  18.5808260   9.6988856  25.0325961
  22.2256383  24.7579403  24.7052056  21.6777329  24.1337287  24.4372121
  22.6869411  24.9473675  23.9896135  22.2123592  24.6938453  24.5602487
  21.5784286   6.6619266  21.4963551  20.7730250   6.5516995  21.8131390
  21.4491022   6.7631722  20.6393417  21.4404419   6.6602936  21.4171592
  25.0350247  12.8264758  22.0903248  24.4513236  13.3273964  21.6780816
  25.3554541  12.3194314  21.4567572  24.9963422  12.8256593  21.9361755
  17.5745046  11.7405353  12.3661923  18.3960740  11.9103665  12.1243618
  17.1114697  11.8952613  11.6428221  17.6276208  11.7887085  12.2233567
  16.1640378   9.7348115  23.1460352  16.7084791   9.3939242  23.7364694
  16.2177314  10.5933576  23.2881636  16.2529497   9.8103374  23.2542225
  11.9770937  23.4964531  20.0199160  12.5815794  23.4560365  19.3912981
  11.7698249  24.3435683  20.0503216  12.0359834  23.6152533  19.9315276
  21.7914709  25.7630476  21.2361397  22.6113083  25.6193442  21.4977692
  21.5108787  26.3876675  21.7777835  21.8711452  25.8340828  21.3549337
   7.2122219  22.4799148  19.8898083   7.1146497  21.6695420  20.1988140
   7.9951089  22.4590942  19.5044351   7.3138356  22.3566238  19.8784946
  31.4628044  32.5070979  18.9557204  30.6065940  32.6679477  19.0066321
  31.5095698  31.6363043  18.9762265  31.3427156  32.4021781  18.9663270
  20.6218984  38.0772375  16.6109542  20.3869169  37.2440028  16.5041810
  20.7604625  38.3577041  15.7970743  20.6074647  37.9955879  16.4751897
  22.9209072  30.2458106  19.5093849  22.3014103  29.6550753  19.3403864
  22.8192935  30.8369541  18.8758173  22.8146747  30.2462188  19.3898839
  30.0176967  31.9857648  13.8426312  30.7157132  32.1645775  14.3347776
  30.3329300  31.4627987  13.2196702  30.1672305  31.9351420  13.8228323
  22.6478205  33.7910388  21.7537418  22.5236902  34.3772833  22.3887237
  23.2996489  33.2970583  22.0549693  22.7251854  33.8049192  21.8923348
  27.6736546  36.9672105  21.0324929  28.3185548  36.4744548  20.7135878
  27.9138323  37.1096891  21.8591008  27.8047131  36.9149547  21.1074463
  28.1903831  27.3550044  17.9247587  27.8607161  27.8061188  17.2551286
  27.5148833  27.2766208  18.4720594  28.0414267  27.4101179  17.9070810
  35.3980239  23.3435567  16.1697198  35.0833680  24.0339046  16.6017620
  34.8807180  23.2880349  15.4682698  35.2744709  23.4370456  16.1294147
  26.6292280  37.2403285  11.0842076  26.0449496  37.7453316  11.4907940
  26.2262376  37.0145672  10.3438668  26.4831584  37.2811533  11.0347102
  26.3959785  25.4162333  13.4070535  27.1505753  25.7840650  13.1687585
  26.2187320  25.7901887  14.1749714  26.4814263  25.5260521  13.4855423
  26.0859413  33.7089809  27.1666443  26.2579917  33.5995703  28.0151724
  26.6228770  34.3544214  26.9297635  26.1904417  33.7881811  27.2571539
  24.7516850  27.8232652  10.1048648  24.5692423  28.0404533   9.2789641
  25.6142463  27.9371664  10.1607262  24.8521439  27.8722550   9.9903135
  24.3631282  39.6620574  17.5471636  25.2020181  39.8943507  17.5945397
  24.3943051  38.7924885  17.4778671  24.4912999  39.5677520  17.5436280
  24.9883985  40.0821449  21.8484941  25.5282210  39.9392580  22.5188314
  24.3053931  40.4818200  22.2168967  24.9676139  40.1201120  22.0019363
  30.4316569  24.8259062  13.1397672  31.1602729  24.6475017  12.6935828
  30.5211462  25.6677142  13.3504850  30.5523231  24.9242941  13.1051189
  20.3921130  36.3021740  22.0019363  20.1259545  35.4860857  22.1610353
  20.4059694  36.3474895  21.1314878  20.3545852  36.1878645  21.8972845
  24.2978877  31.1006824   8.6171121  23.5837054  30.8145004   9.0293553
  24.7822845  31.4403450   9.2577508  24.2638240  31.1088474   8.7726756
  25.1419736  29.8400118  24.6486370  24.4491533  29.3697098  24.8947102
  25.7580063  29.6138423  25.2228078  25.1304266  29.7367250  24.7695523
  20.8014543  37.0880519  19.2831107  20.6190117  37.0627405  18.4303399
  21.5364212  37.5579457  19.3220016  20.8828607  37.1541882  19.1629025
  23.8660295  33.8065522  25.7913216  24.5900267  33.7918553  26.2778110
  23.9676432  34.5160877  25.2935184  23.9878504  33.9090225  25.7892002
  20.7685454  33.9674020  19.4330174  21.3458956  33.8310471  20.0722419
  20.0699515  33.5109804  19.6875758  20.7506475  33.8796286  19.5652463
  27.5252756  35.6208076  17.6468657  27.2672000  34.7879811  17.6199956
  27.5801239  35.8465689  16.8061157  27.4952534  35.5305847  17.5188794
  32.6053806  27.7236526  17.7472749  31.9010133  27.2345712  17.9056669
  32.6538780  27.7359001  16.8761194  32.5083858  27.6526174  17.6412089
  26.4987468  33.1745838  18.1333552  25.9237059  33.3338007  18.7697513
  26.1223144  32.5381247  17.6702002  26.3590280  33.1043651  18.1588110
  30.1660757  31.6469187  22.9925930  29.7775189  31.2223405  22.3378121
  29.5015455  31.8951337  23.5002957  30.0107684  31.6207909  22.9713798
  16.2444287  32.8185913  16.1477992  16.3304539  32.4417781  16.9291522
  16.8720084  32.4446359  15.6697950  16.3500838  32.7071395  16.1923469
  33.9887118  25.3443816  20.5049914  34.3697630  24.6621987  20.8917788
  33.1850403  25.0553418  20.3225579  33.9263580  25.2010865  20.5353970
  27.7810418  34.5691599  10.6549938  28.1655571  34.3499306  11.4066484
  27.5322039  35.3954545  10.7851015  27.8012491  34.6589745  10.7851015
  27.9478959  27.8498014  30.3712523  27.6332400  28.6197577  30.1082085
  27.6268891  27.2868270  29.7864750  27.8537878  27.8808283  30.2453873
  25.5010856  26.2388536  15.9858719  24.6333281  26.3111135  16.0516328
  25.7886060  27.0410615  16.1746694  25.4150604  26.3682683  16.0233486
  34.6243744  26.3866395  24.3170041  35.3697336  26.1976206  23.9033466
  34.2081049  26.9124633  23.7583897  34.6728719  26.4368541  24.1734614
  28.6528406  37.5914221  23.8135439  28.1540100  38.3029989  23.8920328
  29.4628630  37.9114888  23.7753602  28.6984513  37.7441070  23.8192008
  24.9156524  36.8537174  18.0598160  24.6269772  36.2274645  18.5943887
  25.7839872  36.7957461  18.1262841  25.0016776  36.7524718  18.1489115
  35.7034421  31.9971957  18.3780142  35.3599187  31.2762293  18.7287392
  35.8027464  31.7885809  17.5358500  35.6676464  31.8596161  18.3051822
  25.1188797  38.4932425  13.9840525  25.8734765  38.8745464  14.1975988
  24.5259410  38.9443569  14.4387222  25.1425511  38.6161252  14.0823404
  27.5795464  30.4495265  29.1097737  26.7695240  30.7553045  28.9987580
  28.0570151  31.1700848  29.2250322  27.5298943  30.6009867  29.1104809
  26.4387024  39.6640986  19.3580641  25.9167777  39.8041278  20.0432505
  26.8261044  38.9051651  19.5482758  26.4190725  39.5726510  19.4881717
  23.4278208  29.7146795  13.4275595  23.1403003  29.3448066  12.6907543
  24.1148676  30.1841651  13.1659300  23.4867105  29.7293765  13.2790671
  27.8653349  36.6945006  14.7562132  27.6696132  37.3019740  14.1622435
  28.0887695  36.0012950  14.2753806  27.8687990  36.6822531  14.5978212
  26.2631879  33.5799743  14.8743000  26.9854531  33.7440902  14.4146806
  25.7839872  34.3009408  14.7682340  26.2995610  33.7097973  14.7908614
  34.2225387  29.9163542  20.2539685  33.3836488  29.9424821  20.0177948
  34.2929754  30.5634278  20.8345031  34.1093780  30.0159668  20.3048802
  23.9139496  35.9857816  23.9797140  24.4260593  36.2642069  23.3305900
  23.6275839  36.7247110  24.3459953  23.9474359  36.1360170  23.9387018
  32.6694665  26.8148919  14.9867301  33.3721018  26.6156668  14.5087259
  32.4038854  26.0424862  15.2936144  32.7341297  26.6711885  14.9612742
  21.0006402  30.4928008  14.2760876  21.1022539  31.2954169  14.6041852
  21.7962289  30.2915344  13.9783957  21.1334308  30.5813906  14.2796232
  27.4323221  28.0784204  24.0398181  27.2406418  28.0939339  24.8897605
  28.2821817  28.2747879  24.0164836  27.5298943  28.1098556  24.1621476
  21.8170134  30.6075186  22.0181998  21.6755626  29.7559127  22.1426506
  22.1010698  30.6503847  21.1944204  21.8377980  30.4874936  21.9149622
  31.9708727  32.4442276  16.1626486  31.7243441  32.3638027  16.9963275
  32.2993850  31.6595744  15.9689014  31.9829970  32.3168541  16.2574009
  27.9305754  35.1798995  25.5749469  28.0749130  35.7600203  24.9392579
  28.2781403  35.5575291  26.2799324  28.0033215  35.3219699  25.5848464
  30.1025671  34.3789163  23.3574601  29.3548985  34.5720177  22.9522879
  30.2567197  33.5534383  23.1198722  30.0148099  34.2854274  23.2620007
  30.3427448  28.2739714  24.2470005  30.8000063  29.0063688  24.3742797
  30.4183777  27.8506179  25.0057260  30.4218418  28.3196952  24.3771081
  22.5860440  28.5205533  25.3359448  22.0502629  27.9085892  25.6520216
  22.6478204  29.0953669  25.9893115  22.5156072  28.5152461  25.4794875
  34.8154774  21.4529589  18.1163847  34.9338342  21.9106052  17.3831150
  34.6416950  20.6474850  17.8300065  34.8073945  21.4023361  17.9664781
  28.2209826  30.2641818  21.0911829  27.4305901  30.0833278  21.4129164
  28.6170449  29.4868770  21.0742123  28.1626703  30.1229279  21.1364377
  30.7347657  32.7402077  25.5735327  30.6706798  33.6012033  25.4455464
  30.8744844  32.4234070  24.7730879  30.7463127  32.8202243  25.4363540
  29.4166751  35.4334216  19.7151530  28.9929000  35.6338715  18.9790549
  29.2411606  34.5863064  19.8275830  29.3277631  35.3382998  19.6225220
  24.7049196  35.9286268  15.1479503  24.8613815  35.8633070  16.0035495
  25.0449789  36.7034820  14.9358183  24.7782430  36.0335466  15.2434097
  31.2428340  35.3044151  14.0172866  31.7843886  34.8014532  14.4811487
  31.5574899  35.2509346  13.2062351  31.3692737  35.2223572  13.9656678
  32.3917609  30.1980456  24.0695167  32.6059579  29.5591370  23.5158521
  31.7751509  30.6426280  23.6403028  32.3322939  30.1690599  23.9245598
  21.2783457  33.1121218  15.4640270  21.6582422  33.5305763  14.8000537
  20.7038822  33.6934674  15.7709113  21.2494782  33.2599077  15.4117011
  34.5556697  31.8069521  25.0078474  33.7433379  31.4995411  25.0891646
  35.0146632  31.3268521  25.5721186  34.5037082  31.6906013  25.1033068
  31.7832338  23.3080391  19.0582509  30.9125896  23.2819112  19.0115819
  32.0372679  23.1357584  18.2408355  31.6925898  23.2790535  18.9302646
  28.8081479  25.3186620  20.5155980  28.2919967  24.6266811  20.6407559
  28.2475408  25.9857397  20.4618578  28.6487992  25.3149877  20.5262046
  30.8773712  25.8579580  22.3448832  30.4905465  25.8828611  23.1262362
  30.3906649  25.2921258  21.8923349  30.7486221  25.7775331  22.3936736
  36.8523692  32.4242235  20.9688534  36.4251300  32.3368583  20.2136634
  36.2149745  32.5320010  21.5543379  36.6953299  32.4274895  20.9433976
  30.5430854  22.7446565  24.6359092  31.1723972  23.2806865  24.3580163
  30.7116717  22.6523924  25.4872658  30.6608648  22.8107928  24.7207620
  30.3444769  27.5317760  26.9085504  31.1718198  27.2602909  26.9644118
  30.3652615  28.3278602  27.2649322  30.4697619  27.6097514  26.9700687
  24.9214259  34.6781623  20.0955764  24.0802265  34.5785497  20.3034658
  25.1304266  35.4477103  20.4470085  24.8278951  34.7773666  20.1783079
  22.3989825  32.3001160  17.9240515  22.0046523  32.3744172  17.1490625
  21.8429942  32.6859106  18.4748877  22.2592638  32.3682934  17.8908175
  34.0354772  25.2782454  17.6044394  34.2404366  25.2104762  18.4501391
  33.7081196  26.0841275  17.5365571  34.0170020  25.3868394  17.7204049
  28.7330923  32.6063022  19.3453362  28.4294061  32.0519010  19.9463770
  28.0310344  32.7855232  18.8581396  28.5847133  32.5507804  19.3623068
  27.7897021  29.9163542  13.9098064  28.0656755  29.1982454  13.4975631
  28.3895690  30.5148462  13.7019170  27.9190285  29.8983913  13.8178825
  37.2888460  25.8314218  17.0847159  36.6762774  26.3184620  17.4700891
  37.3852635  25.1557709  17.6284811  37.2126358  25.8032527  17.2226018
  31.2907541  27.5877059  12.1844659  31.7451288  27.7587620  12.9092503
  31.7647587  26.9745170  11.7842435  31.4275861  27.5227944  12.2318420
  24.8123066  37.0725385  21.5147397  24.2211000  37.7134883  21.4850412
  25.5744090  37.4963002  21.4878697  24.8371327  37.2301224  21.5062545
  25.2083689  28.2327383  22.1815415  25.6685171  28.3066312  22.9190539
  25.2539796  29.0308637  21.8315236  25.2834245  28.3621530  22.2388171
  26.8567039  28.8994078  26.7487442  26.4652604  28.2527425  27.1843220
  27.0252902  29.4905513  27.3681697  26.8237949  28.8908346  26.9050148
  28.6320561  34.2919594  13.2889666  29.3762606  34.6793870  13.5272616
  28.7781257  33.4477019  13.4530154  28.7631146  34.2250066  13.3483636
  30.5500136  26.0869852  18.3221528  29.7036182  26.2592660  18.1962877
  30.5471269  25.2819196  18.6587356  30.4247286  25.9930881  18.3532654
  31.6198437  29.8645067  19.1883585  31.1458391  29.3386829  19.6988896
  31.9916573  29.3174540  18.6198447  31.6048326  29.7061063  19.1798733
  21.9971467  31.8616574  24.5567131  22.8597080  31.7612283  24.4704461
  21.6663250  31.2811283  23.9952703  22.0756663  31.7608200  24.4612537
  33.5481937  30.7581621  12.2509339  33.0204955  30.8410365  11.5615048
  34.0077645  31.4999493  12.2473984  33.5383787  30.8802284  12.1484034
  25.3573253  30.6859023  21.2177549  24.7326323  30.6977415  20.6103502
  25.0218848  31.1619198  21.8668790  25.2158745  30.7577540  21.2234118
  25.5415002  29.0284141   7.2750234  25.1927806  29.6803866   7.7381784
  25.0611447  29.0141254   6.5474106  25.4185246  29.1227195   7.2361326
  22.0698929  38.7459483  22.6581314  21.5398853  38.0551922  22.7076288
  22.3424022  38.7369668  21.8294022  22.0323651  38.6426614  22.5428730
  24.6263998  32.2952170  23.4352418  24.7857485  31.5395494  23.8404140
  24.4456892  32.8443110  24.0893156  24.6229357  32.2645984  23.5915124
  32.5684301  24.4613406  23.9903207  32.0724863  24.6577080  23.2994774
  33.3253363  24.8606074  23.8192009  32.6071126  24.5491140  23.8623344
  29.8387181  28.1355752  20.5806518  29.8629668  27.6015864  19.8919298
  30.0898655  27.6273061  21.2432108  29.8797100  27.9816656  20.5771163
  17.3494771  35.4187247  20.0149662  17.2438220  35.3734091  19.1501746
  16.5994991  35.7641027  20.2963947  17.2230374  35.4628155  19.9286992
  26.1188503  26.8626570  19.9612262  26.1586875  27.3635777  20.6746970
  25.2938168  26.9536964  19.6918185  26.0028029  26.9508386  20.0262800
  27.5402867  33.3787080  22.2586161  26.7094796  33.5460898  22.0521409
  27.4854384  33.0023031  23.0435047  27.4092281  33.3476811  22.3434689
  25.3486650  26.8695973  27.8942572  25.9739353  26.3258106  28.1672004
  24.8937130  26.3890890  27.3250362  25.3734910  26.7185454  27.8504166
  25.9138910  31.6542671  12.7876279  26.0541871  32.1515136  13.4904920
  26.4121443  30.9528966  12.9290493  26.0079991  31.6244650  12.9127858
  25.9439133  32.5209782  10.1168856  26.5784212  33.1170207  10.0518318
  26.0264744  32.2213240  10.9314726  26.0495684  32.5650691  10.2271942
  27.5218116  28.4523758  10.0914298  27.8433957  27.9726840   9.4373560
  27.7845059  29.2623404   9.9005109  27.6084141  28.5013656   9.9669790
  32.9177271  27.8395952  22.4537777  33.3432342  27.3868478  21.8421303
  32.3034264  27.2856023  22.7302564  32.8905916  27.6909928  22.4042802
  22.4492121  34.7177623  13.3858402  22.9584350  35.3142131  13.7669707
  22.9226393  34.4503597  12.7034821  22.5935496  34.7663439  13.3412925
  31.3571493  24.3111052  15.8628354  30.7139811  24.1608698  16.4313492
  31.0170900  24.0653397  15.0977458  31.2116571  24.2523174  15.8331369
  35.9470840  32.2670478  15.2858362  35.2762030  32.8100181  15.1571428
  36.6410590  32.7365334  15.0440057  35.9499707  32.4168750  15.2313890
  36.1098967  28.7226362  18.1948736  36.4626577  28.2956085  18.8694534
  35.2513769  28.6377206  18.3249812  36.0348412  28.6471103  18.3143746
  24.8082652  31.3533882  16.2531582  24.0894642  31.7698014  16.5204446
  25.1795015  31.9188121  15.7023220  24.7574584  31.4983163  16.2114389
  34.1082233  31.9861731  22.1433578  34.0880161  31.8045026  22.9968357
  34.1561434  32.8573749  22.1193162  34.1116874  32.0878269  22.2656873
  30.5829227  30.3931882  11.5904962  29.9894066  30.7148878  11.0389529
  30.6204504  29.5472977  11.3826068  30.5003616  30.3156210  11.4787733
  33.4587043  30.3511386  15.0206712  33.2300736  30.3744088  14.1785070
  33.7185120  29.5268853  15.1401722  33.4633231  30.2327466  14.9131910
  27.7406272  32.2045859  24.6231812  27.2285175  31.5967042  24.9816843
  27.5685768  32.9202452  25.0905788  27.6395909  32.2209159  24.7448036
  22.5871986  30.6483435  27.2734174  22.4174577  31.3084809  26.7282381
  22.1437936  30.8589996  27.9946663  22.4971320  30.7769417  27.2995803
  26.5131806  28.8887932  16.3160908  26.9889172  29.2505012  15.6811089
  26.0120405  29.5444400  16.5961050  26.5097165  29.0382121  16.2637649
  31.6175342  30.1270104  27.0634068  32.1746772  29.8983913  26.4312533
  31.2936407  30.8875769  26.7869280  31.6521752  30.2053941  26.9290565
  19.4874051  33.5530300  22.5322664  18.9400770  32.8830946  22.6503532
  20.2766429  33.1860148  22.5966131  19.5226235  33.3995287  22.5591364
  29.3358459  33.2137757  28.0286075  30.0869786  33.5289434  28.3425629
  29.5281036  33.0116928  27.2019997  29.4749874  33.2305139  27.9529471
  28.5558459  31.0329132   9.6834292  28.9357424  31.0508761   8.8985406
  27.8151055  31.4783121   9.5625139  28.5027297  31.1010907   9.5497860
  36.1843750  29.3411323  15.2709870  36.1837976  29.1859980  16.1294147
  35.9799930  30.1874311  15.2151256  36.1543527  29.4431944  15.3897810
  18.2461020  32.7651108  19.6868687  18.0682782  32.3127717  20.4123602
  17.9580043  33.5677269  19.8707164  18.1773974  32.8173666  19.8212190
  33.9084602  34.0208825  18.9246077  34.4038267  33.3031820  18.8850097
  33.0984377  33.7179623  18.8100564  33.8628495  33.8706472  18.9019803
  19.9833490  35.2978832  16.7990446  19.1179010  35.2864522  16.6873217
  20.0832306  35.1109055  17.6461585  19.8707657  35.2684893  16.9079390
  29.4784515  25.2574248  24.8982458  29.6112420  24.4605241  25.2263434
  29.8629668  25.7840651  25.4780734  29.5540844  25.2174164  25.0325961
  32.5516870  22.1804574  21.4963551  31.7462834  22.0702303  21.8131390
  32.4223605  22.2817029  20.6393417  32.4137003  22.1788244  21.4171592
  36.0082831  28.3450066  22.0903248  35.4245819  28.8459272  21.6780816
  36.3287125  27.8379622  21.4567572  35.9696006  28.3441901  21.9361755
  28.5477630  27.2590660  12.3661923  29.3693324  27.4288973  12.1243618
  28.0847281  27.4137921  11.6428221  28.6008792  27.3072393  12.2233567
  27.1372962  25.2533423  23.1460352  27.6817375  24.9124549  23.7364694
  27.1909897  26.1118884  23.2881636  27.2262081  25.3288682  23.2542225
  22.9503520  39.0149839  20.0199160  23.5548378  38.9745673  19.3912981
  22.7430833  39.8620991  20.0503216  23.0092418  39.1337841  19.9315276
  18.1854803  37.9984456  19.8898083  18.0879081  37.1880728  20.1988140
  18.9683672  37.9776250  19.5044351  18.2870939  37.8751546  19.8784946
  15.9872920   8.3922501   5.3212111  16.6310375   8.8335665   5.7108269
  16.3129176   7.5875927   5.2342370  16.1304749   8.3387696   5.3657588
  18.9340878   1.2319834   7.6171869  19.2164120   0.4371239   7.3958625
  19.6627038   1.7100421   7.6376930  19.0830441   1.1854431   7.5874884
  16.9768703   3.1683050   7.4255609  16.4595645   2.8090465   6.8216917
  17.6743095   2.6445224   7.4361675  17.0034285   3.0380738   7.3385868
  20.6332295   3.6177864  13.3871782  20.7215641   3.4304004  14.2349992
  21.0622008   2.9715294  12.9876629  20.7094398   3.4940872  13.4543534
  18.2002755   2.9009024  12.3689444  17.6373590   2.4881634  12.8929106
  18.9623779   2.8261930  12.7882588  18.2297204   2.8286425  12.5082445
  13.7102225   1.5014272   8.7824988  14.2500450   1.3585403   9.4528360
  13.0272171   1.9011023   9.1509014  13.6894379   1.5393943   8.9359410
  20.7452355   3.0486883  16.0515566  21.5292771   3.1617731  16.4171308
  20.5448949   2.2228020  16.2474252  20.8318380   2.9433602  16.1349952
  20.9022748   4.9596985   9.6982021  20.1037994   4.7196485   9.9555890
  21.3508760   5.0111378  10.4449069  20.8497359   4.9319376   9.8466946
  17.3746646  -0.9892956  10.7475486  16.8758340  -0.2777188  10.8260374
  18.1846871  -0.6692289  10.7093648  17.4202753  -0.8366107  10.7532055
  15.7251749   4.7894590   9.3750543  15.8741313   4.2297506   8.7223947
  16.5051751   4.8686591   9.7583062  15.8625843   4.7180155   9.3347492
  18.2505050   4.9609233  10.6535034  18.1748721   4.2918043  11.2085822
  18.1794909   5.6627021  11.1675700  18.2285657   4.9654140  10.8111882
  17.6396684   8.3677552   9.1113034  18.1292615   7.6688342   8.9288699
  17.0680917   8.0701422   9.6989092  17.6281214   8.2203776   9.1714075
  23.8484932   1.9945912  13.3362666  24.4864652   1.5006108  13.0025122
  23.2059023   1.9223313  12.7514893  23.8479158   1.9104921  13.2005021
  23.9039188   2.6865720   9.9768022  24.6931567   2.3354785  10.0970104
  24.0782786   3.5002109   9.7144656  24.0459470   2.7551577   9.9555890
  15.5167515   1.2405566  10.9865507  15.4087870   1.2507628  11.8527565
  15.7263296   2.0660346  10.7970460  15.5317626   1.3646641  11.0869598
  23.2930823   3.9427520   5.8819469  23.0950512   4.4318334   5.1875680
  22.6718534   4.1468761   6.4603602  23.1718387   4.0444058   5.8642692
  19.4733329   0.8935455  10.5453161  18.9658420   1.4471302  10.9893791
  19.1759975   0.9543745   9.7271935  19.3538214   0.9841767  10.4901617
  18.7175814   5.8260014   7.4510168  18.4941468   5.0678843   7.8194194
  18.2285657   5.8558035   6.7290607  18.6119263   5.7182238   7.3986909
  20.7319565   5.2050557   5.6570869  20.3335848   5.3152827   4.8891689
  20.1170785   5.4132623   6.2397429  20.5818454   5.2524125   5.6302168
  14.3308741   6.4869554   7.3060598  14.6455300   7.3005942   7.3138380
  14.7402154   6.1019772   7.9742757  14.4376839   6.5498256   7.4064690
  23.3710245   3.5140914  17.0556482  23.4807210   2.7249474  17.4113229
  23.7001141   3.4246850  16.2530820  23.4362651   3.3846767  16.9898873
  21.9207207   1.6957534  11.6392103  21.3728153   1.0715418  11.3712168
  22.3820235   1.8851806  10.9236182  21.9074416   1.6316585  11.4942534
  21.4865533   2.7008607   8.1701444  22.3063907   2.5571573   8.4317739
  21.2059611   3.3254806   8.7117882  21.5662276   2.7718959   8.2889383
  31.1578868   9.4449110   5.8897251  30.3016764   9.6057608   5.9406368
  31.2046522   8.5741174   5.9102312  31.0377980   9.3399912   5.9003317
  25.5420008  18.9811828   1.6534482  24.7902907  18.6027366   1.4250527
  25.9906019  19.0130261   0.9053293  25.4969675  18.9297435   1.5091984
  34.4672585  15.7135635  15.4957707  35.1739352  15.2187666  15.6244641
  34.6560520  16.1544717  14.7660365  34.6000490  15.7053986  15.4066752
  34.0030689  11.5041154   8.5328902  34.5486649  12.1826240   8.5922872
  33.9447565  11.3628615   7.6730484  34.0746603  11.5833155   8.4140963
  27.1204764  18.9930220   3.9197255  27.2215127  18.1830574   4.2294383
  26.5246509  18.8987166   3.2896933  27.0477303  18.8595248   3.8723493
  26.9605504  23.9107809   5.3212111  27.6042959  24.3520973   5.7108269
  27.2861759  23.1061235   5.2342370  27.1037332  23.8573004   5.3657588
  20.3169808  15.0150506   3.5449588  20.0819993  14.1818159   3.4381857
  20.4555449  15.2955172   2.7310789  20.3025471  14.9334010   3.4091943
  22.6159896   7.1836237   6.4433896  21.9964927   6.5928884   6.2743911
  22.5143759   7.7747672   5.8098219  22.5097571   7.1840320   6.3238886
  27.6626083  16.9219784   0.6931973  27.9841924  17.4624991   0.0893281
  28.3098180  16.3516555   0.8254262  27.8052138  16.9178959   0.6239008
  22.3429029  10.7288519   8.6877465  22.2187726  11.3150964   9.3227284
  22.9947313  10.2348714   8.9889740  22.4202678  10.7427323   8.8263394
  29.9015727  15.3106224   0.7646151  30.3409362  14.7023324   1.2100924
  29.7520390  14.9313597  -0.0068384  29.9437192  15.1644695   0.7165318
  27.3687370  13.9050236   7.9664976  28.0136372  13.4122679   7.6475925
  27.6089147  14.0475022   8.7931055  27.4997955  13.8527678   8.0414509
  29.9073461  16.7505142   7.6171869  30.1896704  15.9556547   7.3958625
  30.6359621  17.2285729   7.6376930  30.0563025  16.7039738   7.5874884
  27.8854655   4.2928175   4.8587634  27.5557985   4.7439319   4.1891333
  27.2099657   4.2144339   5.4060640  27.7365091   4.3479311   4.8410857
  26.3243104  14.1781416  -1.9817877  25.7400320  14.6831447  -1.5752013
  25.9213199  13.9523803  -2.7221285  26.1782408  14.2189664  -2.0312852
  21.8787133  19.8936177   4.8205795  21.3954711  20.6186667   4.7965378
  22.6910451  20.1912307   4.9315952  21.9277881  20.0438531   4.8333074
  27.9501287  18.6868358   7.4255609  27.4328229  18.3275773   6.8216917
  28.6475678  18.1630532   7.4361675  27.9766868  18.5566046   7.3385868
  31.6064879  19.1363172  13.3871782  31.6948225  18.9489312  14.2349992
  32.0354592  18.4900602  12.9876629  31.6826981  19.0126180  13.4543534
  29.1735339  18.4194332  12.3689444  28.6106174  18.0066942  12.8929106
  29.9356362  18.3447238  12.7882588  29.2029787  18.3471732  12.5082445
  24.7331330  20.4092353   4.9726074  25.4351909  19.8944342   5.0298831
  24.6528813  20.7366504   5.7772950  24.8255091  20.3806579   5.0998867
  25.7810237  10.6467940  14.1006490  25.9530740  10.5373835  14.9491771
  26.3179594  11.2922345  13.8637682  25.8855241  10.7259942  14.1911586
  24.0582106  16.5998705   4.4811683  24.8971005  16.8321638   4.5285444
  24.0893875  15.7303017   4.4118718  24.1863823  16.5055652   4.4776327
  24.6834809  17.0199580   8.7824988  25.2233034  16.8770711   9.4528360
  24.0004755  17.4196331   9.1509014  24.6626963  17.0579251   8.9359410
  31.7184938  18.5672191  16.0515566  32.5025355  18.6803039  16.4171308
  31.5181533  17.7413328  16.2474252  31.8050964  18.4618910  16.1349952
  20.0871954  13.2399871   8.9359410  19.8210369  12.4238988   9.0950400
  20.1010518  13.2853027   8.0654925  20.0496676  13.1256776   8.8312892
  24.8370560   6.7778249  11.5826417  24.1442357   6.3075229  11.8287149
  25.4530887   6.5516554  12.1568124  24.8255090   6.6745381  11.7035570
  31.8755332  20.4782293   9.6982021  31.0770577  20.2381793   9.9555890
  32.3241343  20.5296686  10.4449069  31.8229943  20.4504684   9.8466946
  20.4965367  14.0258651   6.2171154  20.3140941  14.0005537   5.3643446
  21.2315036  14.4957588   6.2560063  20.5779431  14.0920013   6.0969072
  23.5611119  10.7443653  12.7253262  24.2851091  10.7296684  13.2118157
  23.6627256  11.4539009  12.2275231  23.6829328  10.8468357  12.7232049
  30.9356068  14.2242738  17.5902209  30.1429049  14.5386250  17.7754829
  31.0504996  14.4394206  16.7522994  30.8351479  14.3026575  17.4940544
  31.8639861  14.1262942  12.5287506  32.4378723  13.4890186  12.6836070
  31.7854665  14.1267024  11.6597164  31.9373096  14.0328053  12.4233917
  20.4636278  10.9052151   6.3670220  21.0409780  10.7688602   7.0062466
  19.7650339  10.4487935   6.6215805  20.4457299  10.8174417   6.4992510
  27.2203580  12.5586207   4.5808704  26.9622824  11.7257942   4.5540003
  27.2752063  12.7843820   3.7401204  27.1903358  12.4683978   4.4528840
  26.1938292  10.1123969   5.0673598  25.6187883  10.2716138   5.7037559
  25.8173968   9.4759378   4.6042049  26.0541104  10.0421782   5.0928157
  29.8611581   8.5847319   9.9265977  29.4726013   8.1601536   9.2718168
  29.1966279   8.8329468  10.4343003  29.7058508   8.5586040   9.9053845
  26.8358427  16.2867441   3.2515096  27.4732374  16.0479188   3.7966889
  27.2613499  16.4904600   2.5168256  26.9934593  16.2818451   3.2232253
  21.5271070  18.5255777   7.1349400  21.5675215  18.7970628   6.3069179
  22.0865594  19.0497685   7.5507188  21.6154415  18.6431532   7.0741288
  27.6429783   4.7876146  17.3052569  27.3283224   5.5575708  17.0422132
  27.3219715   4.2246402  16.7204796  27.5488702   4.8186414  17.1793919
  29.2179899  16.7639863   4.9308882  29.2918907  16.6015035   5.7850732
  30.0349405  16.9530053   4.6869364  29.3496258  16.7676606   5.0206908
  22.9785656  17.1097726   1.9603326  22.1523773  17.3559463   1.8337604
  23.0397647  17.0309807   2.8265384  22.8659823  17.1342675   2.0692270
  28.3479230  14.5292352  10.7475486  27.8490924  15.2408120  10.8260374
  29.1579454  14.8493019  10.7093648  28.3935337  14.6819201  10.7532055
  25.6990400  21.7041989   2.7282505  25.4790696  21.4139343   3.5209172
  25.4784922  21.0456944   2.2000418  25.6337995  21.5641697   2.7671414
  24.6107348  13.7915305   4.9938207  24.3220596  13.1652776   5.5283934
  25.4790696  13.7335593   5.0602887  24.6967600  13.6902849   5.0829161
  24.8139621  15.4310556   0.9180572  25.5685589  15.8123595   1.1316034
  24.2210234  15.8821700   1.3727268  24.8376335  15.5539384   1.0163450
  27.2746288   7.3873397  16.0437784  26.4646064   7.6931176  15.9327627
  27.7520975   8.1078979  16.1590368  27.2249767   7.5387998  16.0444855
  26.1337848  16.6019118   6.2920687  25.6118601  16.7419409   6.9772552
  26.5211868  15.8429782   6.4822805  26.1141549  16.5104641   6.4221764
  27.5604173  13.6323137   1.6902178  27.3646956  14.2397871   1.0962481
  27.7838519  12.9391081   1.2093852  27.5638814  13.6200662   1.5318259
  25.9582703  10.5177875   1.8083047  26.6805355  10.6819033   1.3486853
  25.4790696  11.2387539   1.7022386  25.9946434  10.6476104   1.7248661
  23.6090320  12.9235947  10.9137187  24.1211417  13.2020200  10.2645946
  23.3226663  13.6625241  11.2800000  23.6425183  13.0738301  10.8727065
  27.1274045   5.0162336  10.9738228  26.9357242   5.0317470  11.8237652
  27.9772641   5.2126010  10.9504883  27.2249767   5.0476687  11.0961523
  21.5120958   7.5453317   8.9522045  21.3706450   6.6937258   9.0766553
  21.7961522   7.5881978   8.1284251  21.5328804   7.4253067   8.8489669
  35.5607600  16.0903767   6.8853314  35.4221959  16.7884812   7.3902057
  34.7807597  15.9352423   6.5289496  35.4250826  16.1703933   6.9079588
  33.8985685  12.3900142  13.1375696  33.8933723  11.5179958  13.1418122
  34.6046679  12.5888311  12.6645152  34.0030689  12.2904016  13.0682731
  27.6256578  12.1177126  12.5089516  27.7699954  12.6978334  11.8732626
  27.9732227  12.4953423  13.2139371  27.6984039  12.2597830  12.5188511
  29.7976495  11.3167294  10.2914648  29.0499809  11.5098309   9.8862926
  29.9518021  10.4912514  10.0538769  29.7098923  11.2232406  10.1960053
  26.6984333  20.3079898   9.3750543  26.8473897  19.7482814   8.7223947
  27.4784335  20.3871899   9.7583062  26.8358427  20.2365463   9.3347492
  29.2237634  20.4794541  10.6535034  29.1481305  19.8103351  11.2085822
  29.1527493  21.1812329  11.1675700  29.2018241  20.4839448  10.8111882
  30.0378272   5.2117845  11.1810051  30.4950886   5.9441819  11.3082844
  30.1134601   4.7884310  11.9397307  30.1169242   5.2575083  11.3111128
  22.2811264   5.4583665  12.2699495  21.7453453   4.8464023  12.5860262
  22.3429028   6.0331801  12.9233162  22.2106896   5.4530592  12.4134922
  29.8807881  18.9995539   1.4858640  30.6457772  18.7305183   1.1641304
  29.7785971  18.5145550   2.2028702  29.9789376  18.8885104   1.5438467
  27.9160650   7.2019949   8.0251875  27.1256725   7.0211409   8.3469211
  28.3121273   6.4246901   8.0082170  27.8577526   7.0607410   8.0704424
  33.3004337  14.8362379   5.7511321  32.6249338  14.6047611   6.2524708
  33.3096713  14.2283562   5.1253426  33.2022841  14.7121304   5.7327474
  30.4298481   9.6780208  12.5075374  30.3657622  10.5390164  12.3795511
  30.5695668   9.3612201  11.7070926  30.4413951   9.7580375  12.3703587
  29.1117574  12.3712347   6.6491577  28.6879824  12.5716846   5.9130596
  28.9362430  11.5241195   6.7615877  29.0228455  12.2761129   6.5565267
  28.6129268  23.8862860   9.1113034  29.1025198  23.1873650   8.9288699
  28.0413500  23.5886730   9.6989092  28.6013798  23.7389084   9.1714075
  24.4000019  12.8664399   2.0819550  24.5564639  12.8011202   2.9375542
  24.7400613  13.6412951   1.8698229  24.4733254  12.9713597   2.1774144
  34.8096271  16.4524930  18.0639825  35.6231137  16.1810079  18.2244958
  34.6491238  16.1532470  17.2600021  34.9066220  16.3679856  17.9685231
  32.0868433   7.1358587  11.0035213  32.3010403   6.4969501  10.4498567
  31.4702333   7.5804411  10.5743075  32.0273763   7.1068731  10.8585644
  20.9734281  10.0499349   2.3980317  21.3533246  10.4683894   1.7340584
  20.3989646  10.6312805   2.7049160  20.9445606  10.1977208   2.3457058
  34.2507521   8.7447652  11.9418520  33.4384203   8.4373542  12.0231693
  34.7097456   8.2646652  12.5061233  34.1987906   8.6284144  12.0373115
  33.6612776  16.6227324   2.3895465  33.3027431  16.7941967   3.1659497
  33.1751487  17.0840530   1.8323463  33.5371473  16.7166295   2.4220734
  31.3461029  10.1507723  16.7247223  31.8160660  10.7749840  17.1115097
  31.3922909   9.4824699  17.2840437  31.4228905  10.1442404  16.8647294
  34.8217515  17.5131220  13.3362666  35.4597236  17.0191416  13.0025122
  34.1791607  17.4408620  12.7514893  34.8211742  17.4290228  13.2005021
  30.0395593   4.4695891  13.8425551  30.8669022   4.1981040  13.8984165
  30.0603439   5.2656733  14.1989369  30.1648443   4.5475645  13.9040734
  34.8771772  18.2051028   9.9768022  35.6664150  17.8540093  10.0970104
  35.0515370  19.0187417   9.7144656  35.0192054  18.2736885   9.9555890
  24.6165082  11.6159754   7.0295811  23.7753089  11.5163628   7.2374705
  24.8255090  12.3855234   7.3810132  24.5229775  11.7151797   7.1123126
  22.0940649   9.2379291   4.8580562  21.6997347   9.3122303   4.0830672
  21.5380766   9.6237237   5.4088924  21.9543462   9.3061066   4.8248222
  28.4281747   9.5441153   6.2793409  28.1244885   8.9897141   6.8803816
  27.7261168   9.7233363   5.7921443  28.2797957   9.4885936   6.2963114
  26.4900098  16.7590874  10.9865507  26.3820453  16.7692936  11.8527565
  26.6995880  17.5845654  10.7970460  26.5050209  16.8831949  11.0869598
  24.5073890  14.0103516   8.4487444  23.9161824  14.6513014   8.4190459
  25.2694914  14.4341134   8.4218744  24.5322151  14.1679355   8.4402591
  24.9034513   5.1705514   9.1155462  25.3635995   5.2444443   9.8530586
  24.9490620   5.9686768   8.7655283  24.9785068   5.2999661   9.1728218
  26.5517863   5.8372209  13.6827489  26.1603428   5.1905556  14.1183267
  26.7203726   6.4283644  14.3021744  26.5188773   5.8286477  13.8390195
  34.2663407  19.4612828   5.8819469  34.0683095  19.9503642   5.1875680
  33.6451118  19.6654069   6.4603602  34.1450971  19.5629366   5.8642692
  21.6922291   8.7994705  11.4907178  22.5547904   8.6990414  11.4044508
  21.3614074   8.2189414  10.9292750  21.7707487   8.6986331  11.3952584
  36.1837208  13.0276980  11.4164717  36.9071407  12.5749507  11.2375737
  35.9187171  13.3081646  10.6337045  36.2518482  13.0027949  11.2743432
  25.0524077   7.6237154   8.1517596  24.4277147   7.6355546   7.5443549
  24.7169672   8.0997329   8.8008836  24.9109569   7.6955671   8.1574165
  21.7649752  15.6837614   9.5921360  21.2349677  14.9930053   9.6416335
  22.0374846  15.6747799   8.7634069  21.7274475  15.5804746   9.4768776
  31.9655998  13.1260858   9.5659732  31.3512991  12.5818909   9.8608367
  32.4823283  12.6125095   9.0865548  31.9511660  12.9697267   9.5383960
  31.2052295  14.1965128   7.3004031  30.7779903  13.5714847   6.8669466
  31.1977240  13.9140050   8.1263038  31.1411436  14.0617909   7.3583858
  24.3214822   9.2330301  10.3692465  24.4808309   8.4773626  10.7744187
  24.1407716   9.7821241  11.0233202  24.3180181   9.2024115  10.5255171
  29.5338005   5.0733883   7.5146565  29.5580492   4.5393995   6.8259345
  29.7849478   4.5651192   8.1772155  29.5747924   4.9194787   7.5111209
  17.0445595  12.3565378   6.9489709  16.9389044  12.3112222   6.0841793
  16.2945815  12.7019159   7.2303994  16.9181198  12.4006286   6.8627038
  25.8139327   3.8004701   6.8952309  25.8537699   4.3013908   7.6087016
  24.9888992   3.8915095   6.6258232  25.6978853   3.8886518   6.9602847
  27.9968940  13.3665441  14.9972604  27.1464571  13.5037155  15.1330249
  28.1597068  12.6329219  15.4420305  27.8952804  13.2779542  15.0828203
  27.2353690  10.3165211   9.1926208  26.4045620  10.4839029   8.9861456
  27.1805208   9.9401162   9.9775093  27.1043105  10.2854942   9.2774736
  25.0437474   3.8074104  14.8282619  25.6690177   3.2636237  15.1012051
  24.5887954   3.3269022  14.2590409  25.0685734   3.6563585  14.7844213
  30.4465912  16.4120763  10.5453161  29.9391003  16.9656610  10.9893791
  30.1492559  16.4729053   9.7271935  30.3270797  16.5027075  10.4901617
  32.6128095   4.7774083   9.3877824  33.0383166   4.3246609   8.7761350
  31.9985088   4.2234154   9.6642611  32.5856740   4.6288059   9.3382849
  22.1442945  11.6555754   0.3198449  22.6535174  12.2520262   0.7009754
  22.6177217  11.3881728  -0.3625132  22.2886320  11.7041570   0.2752971
  29.6908398  21.3445322   7.4510168  29.4674052  20.5864151   7.8194194
  29.2018241  21.3743343   6.7290607  29.5851847  21.2367546   7.3986909
  24.5033476   8.2912013   3.1871629  23.7845465   8.7076146   3.4544493
  24.8745839   8.8566252   2.6363267  24.4525408   8.4361294   3.1454436
  33.8033057   8.9239862   9.0773625  33.7830984   8.7423157   9.9308404
  33.8512258   9.7951880   9.0533208  33.8067698   9.0256400   9.1996919
  31.7479387  15.5127054  15.0022101  31.7075242  14.8676731  14.4167257
  32.5602705  15.4563671  15.3147513  31.8622541  15.4086021  14.9619050
  28.3386855  21.5645780   4.9047252  27.9247253  20.9019910   4.5151094
  29.0234229  21.7123639   4.3842946  28.3785226  21.4886438   4.7703749
  31.7052149  20.7235865   5.6570869  31.3068432  20.8338135   4.8891689
  31.0903368  20.9317931   6.2397429  31.5551038  20.7709433   5.6302168
  27.4357096   9.1423990  11.5571859  26.9235999   8.5345173  11.9156890
  27.2636592   9.8580583  12.0245835  27.3346733   9.1587290  11.6788083
  22.2822810   7.5861566  14.2074221  22.1125401   8.2462941  13.6622427
  21.8388760   7.7968127  14.9286710  22.1922144   7.7147548  14.2335850
  26.2082630   5.8266064   3.2500954  26.6839996   6.1883143   2.6151135
  25.7071229   6.4822531   3.5301097  26.2047989   5.9760252   3.1977695
  31.3126166   7.0648235  13.9974114  31.8697596   6.8362045  13.3652580
  30.9887231   7.8253901  13.7209327  31.3472576   7.1432072  13.8630612
  19.1824875  10.4908431   9.4662711  18.6351594   9.8209077   9.5843579
  19.9717253  10.1238279   9.5306178  19.2177059  10.3373418   9.4931411
  29.0309283  10.1515888  14.9626122  29.7820610  10.4667565  15.2765676
  29.2231860   9.9495059  14.1360043  29.1700697  10.1683270  14.8869517
  17.9411844   9.7029239   6.6208734  17.7633606   9.2505848   7.3463649
  17.6530867  10.5055400   6.8047211  17.8724798   9.7551797   6.7552236
  19.6784314  12.2356963   3.7330493  18.8129834  12.2242653   3.6213264
  19.7783130  12.0487186   4.5801632  19.5658481  12.2063024   3.8419437
  35.6687244  13.7090644   8.5463253  36.0942316  13.1865066   7.9933678
  35.3044164  14.3071481   8.0251876  35.6773847  13.7200871   8.3872262
  25.3041324  22.0054861   7.3060598  25.6187883  22.8191250   7.3138380
  25.7134738  21.6205080   7.9742757  25.4109422  22.0683564   7.4064690
  32.2565844  17.4224908   4.8764410  32.7277022  18.1365171   5.0454395
  32.5926022  16.8223658   5.4124280  32.3760959  17.4396372   4.9796786
  34.3442828  19.0326222  17.0556482  34.4539794  18.2434782  17.4113229
  34.6733725  18.9432158  16.2530820  34.4095234  18.9032074  16.9898873
  32.8939790  17.2142842  11.6392103  32.3460736  16.5900726  11.3712168
  33.3552819  17.4037114  10.9236182  32.8807000  17.1501893  11.4942534
  22.6454344  15.9527970   6.9539207  23.2499202  15.9123804   6.3253027
  22.4381657  16.7999122   6.9843262  22.7043242  16.0715972   6.8655323
  32.4598116  18.2193915   8.1701444  33.2796490  18.0756881   8.4317739
  32.1792194  18.8440114   8.7117882  32.5394860  18.2904267   8.2889383
  17.8805627  14.9362587   6.8238130  17.7829905  14.1258859   7.1328186
  18.6634496  14.9154381   6.4384398  17.9821763  14.8129678   6.8124993
  33.5892479  22.7021545   6.4433896  32.9697511  22.1114192   6.2743911
  33.4876343  23.2932980   5.8098219  33.4830155  22.7025627   6.3238886
  33.3161612  26.2473827   8.6877465  33.1920309  26.8336272   9.3227284
  33.9679897  25.7534022   8.9889740  33.3935262  26.2612631   8.8263394
  36.7542820  26.1653248  14.1006490  36.9263324  26.0559143  14.9491771
  37.2912178  26.8107653  13.8637682  36.8587824  26.2445250  14.1911586
  31.0604537  28.7585179   8.9359410  30.7942953  27.9424296   9.0950400
  31.0743101  28.8038335   8.0654925  31.0229260  28.6442084   8.8312892
  35.8103144  22.2963557  11.5826417  35.1174940  21.8260537  11.8287149
  36.4263471  22.0701862  12.1568124  35.7987674  22.1930689  11.7035570
  34.5343703  26.2628961  12.7253262  35.2583675  26.2481992  13.2118157
  34.6359839  26.9724317  12.2275231  34.6561912  26.3653664  12.7232049
  31.4368861  26.4237459   6.3670220  32.0142364  26.2873910   7.0062466
  30.7382923  25.9673243   6.6215805  31.4189883  26.3359725   6.4992510
  34.5822903  28.4421255  10.9137187  35.0944000  28.7205508  10.2645946
  34.2959246  29.1810549  11.2800000  34.6157767  28.5923609  10.8727065
  32.4853542  23.0638625   8.9522045  32.3439034  22.2122566   9.0766553
  32.7694105  23.1067286   8.1284251  32.5061388  22.9438375   8.8489669
  33.2543847  20.9768973  12.2699495  32.7186037  20.3649331  12.5860262
  33.3161612  21.5517109  12.9233162  33.1839480  20.9715900  12.4134922
  35.8767097  20.6890822   9.1155462  36.3368578  20.7629751   9.8530586
  35.9223203  21.4872076   8.7655283  35.9517652  20.8184969   9.1728218
  32.6654875  24.3180013  11.4907178  33.5280488  24.2175722  11.4044508
  32.3346658  23.7374722  10.9292750  32.7440071  24.2171639  11.3952584
  36.0256660  23.1422462   8.1517596  35.4009731  23.1540854   7.5443549
  35.6902255  23.6182637   8.8008836  35.8842152  23.2140979   8.1574165
  35.2947406  24.7515609  10.3692465  35.4540893  23.9958934  10.7744187
  35.1140299  25.3006549  11.0233202  35.2912765  24.7209423  10.5255171
  28.0178178  27.8750686   6.9489709  27.9121627  27.8297530   6.0841793
  27.2678398  28.2204466   7.2303994  27.8913781  27.9191594   6.8627038
  36.7871911  19.3190009   6.8952309  36.8270282  19.8199216   7.6087016
  35.9621575  19.4100403   6.6258232  36.6711437  19.4071825   6.9602847
  36.0170057  19.3259412  14.8282619  36.6422761  18.7821545  15.1012051
  35.5620537  18.8454329  14.2590409  36.0418318  19.1748893  14.7844213
  33.2555394  23.1046874  14.2074221  33.0857984  23.7648248  13.6622427
  32.8121344  23.3153435  14.9286710  33.1654728  23.2332856  14.2335850
  30.1557458  26.0093739   9.4662711  29.6084178  25.3394385   9.5843579
  30.9449837  25.6423587   9.5306178  30.1909642  25.8558726   9.4931411
  28.9144428  25.2214547   6.6208734  28.7366189  24.7691156   7.3463649
  28.6263450  26.0240708   6.8047211  28.8457381  25.2737105   6.7552236
   0.7082597  19.1912585  20.7194312   0.6407097  19.2108544  19.8496898
   0.6938259  20.0342912  20.9449982   0.6961353  19.3186320  20.6246789
   2.8648021  23.0702222  15.8962558   2.5501462  23.7605701  16.3282981
   2.3474963  23.0147005  15.1948059   2.7412492  23.1637111  15.8559507
   7.1562466  31.2923428  21.1783435   6.3190887  31.3625616  21.4131029
   7.1250697  31.2947923  20.3057737   7.0280749  31.3033655  21.0842983
   4.8370306  26.3566210  19.7627157   5.4796215  26.4264315  20.3489072
   5.0893327  25.6895433  19.2606699   4.9692438  26.2692559  19.7754436
   7.2751808  31.1310847  15.4939120   7.0188373  30.3190789  15.3037003
   8.1181122  31.1388414  15.2669308   7.3617834  31.0122845  15.4323938
   1.4554901  25.0710471  20.2315275   1.8365413  24.3888642  20.6183149
   0.6518185  24.7820073  20.0490939   1.3931363  24.9277520  20.2619331
  11.6815180  34.7097893  20.7194312  11.6139681  34.7293852  19.8496898
  11.6670843  35.5528220  20.9449982  11.6693937  34.8371627  20.6246789
   2.0911527  26.1133050  24.0435401   2.8365119  25.9242861  23.6298827
   1.6748832  26.6391288  23.4849258   2.1396501  26.1635196  23.8999974
   9.4673798  33.4842279  18.9940906  10.0181719  32.8510348  19.2337998
   9.4517913  34.0157672  19.6856410   9.5458994  33.4691227  19.1319764
   3.1702204  31.7238613  18.1045502   2.8266970  31.0028948  18.4552752
   3.2695247  31.5152464  17.2623861   3.1344247  31.5862816  18.0317182
   1.6893169  29.6430197  19.9805045   0.8504270  29.6691476  19.7443309
   1.7597537  30.2900933  20.5610392   1.5761563  29.7426323  20.0314162
   2.2822557  21.1796244  17.8429208   2.4006125  21.6372707  17.1096511
   2.1084733  20.3741505  17.5565426   2.2741728  21.1290016  17.6930142
   2.0224480  31.5336176  24.7343834   1.2101162  31.2262066  24.8157007
   2.4814415  31.0535176  25.2986546   1.9704865  31.4172668  24.8298428
   4.3191474  32.1508890  20.6953895   3.8919082  32.0635239  19.9401994
   3.6817527  32.2586665  21.2808739   4.1621081  32.1541550  20.6699336
   1.5022555  25.0049109  17.3309755   1.7072148  24.9371417  18.1766752
   1.1748979  25.8107930  17.2630932   1.4837803  25.1135049  17.4469410
   4.7556243  25.5580873  16.8112520   4.1430556  26.0451275  17.1966252
   4.8520417  24.8824364  17.3550171   4.6794140  25.5299182  16.9491378
   7.3508137  31.4315555  18.2784986   7.1117907  31.3911389  17.4405770
   7.5142038  32.2786707  18.4050707   7.3398440  31.5507640  18.1738467
   3.4138622  31.9937134  15.0123723   2.7429812  32.5366836  14.8836788
   4.1078373  32.4631989  14.7705418   3.4167490  32.1435405  14.9579251
   3.5766750  28.4493017  17.9214096   3.9294360  28.0222740  18.5959895
   2.7181551  28.3643861  18.0515173   3.5016195  28.3737758  18.0409107
   5.0090810  23.5711429  18.8498409   4.5021675  22.8640569  18.7819586
   5.8058244  23.2404618  18.9799485   5.0518049  23.4184580  18.8597404
   0.9254826  30.0778041  14.7472072   0.6968519  30.1010743  13.9050431
   1.1852902  29.2535508  14.8667083   0.9301014  29.9594121  14.6397270
   3.6511532  29.0677979  14.9975231   3.6505758  28.9126635  15.8559507
   3.4467712  29.9140966  14.9416616   3.6211310  29.1698599  15.1163170
   3.4750613  28.0716721  21.8168609   2.8913602  28.5725927  21.4046176
   3.7954907  27.5646277  21.1832932   3.4363788  28.0708556  21.6627116
   1.9340367  15.4402291  15.2223067   2.6407134  14.9454321  15.3510002
   2.1228303  15.8811372  14.4925725   2.0668273  15.4320641  15.1332113
   7.3559332  15.5831159   4.3173060   6.5257035  15.7941803   4.4806477
   7.3068584  14.7568214   4.0415344   7.2266067  15.4920765   4.3010425
   4.6123647  16.2530513   4.4537776   4.1758879  16.2567256   5.2096747
   4.2786563  16.9336012   4.0217353   4.4986267  16.3542969   4.5018608
   4.6527792  15.2238575  12.2637720   4.4166429  14.3926639  12.1449780
   5.2971021  15.1724182  12.8492564   4.7122462  15.0936262  12.3323613
   5.6764212  15.0083023   8.3266014   5.3710029  15.7411080   8.6879330
   4.9570428  14.6020953   8.0458800   5.5251555  15.0564756   8.3379151
  11.3766004  11.6476024   7.6534359  11.3090505  11.6671983   6.7836945
  11.3621667  12.4906351   7.8790029  11.3644761  11.7749759   7.5586836
   9.1624622  10.4220410   5.9280953   9.7132543   9.7888479   6.1678045
   9.1468737  10.9535803   6.6196457   9.2409818  10.4069358   6.0659811
   3.0275382  15.8170422   6.6118675   2.8889741  16.5151468   7.1167417
   2.2475380  15.6619078   6.2554856   2.8918609  15.8970588   6.6344949
   1.3653467  12.1166797  12.8641056   1.3601506  11.2446614  12.8683483
   2.0714461  12.3154966  12.3910512   1.4698471  12.0170671  12.7948092
   2.2764054  16.1791585  17.7905186   3.0898919  15.9076734  17.9510318
   2.1159020  15.8799125  16.9865381   2.3734002  16.0946511  17.6950591
   1.7175304   8.4714307  11.6683881   0.9051986   8.1640198  11.7497054
   2.1765239   7.9913307  12.2326593   1.6655689   8.3550800  11.7638475
   2.2885298  17.2397875  13.0628026   2.9265019  16.7458071  12.7290482
   1.6459390  17.1675276  12.4780253   2.2879525  17.1556884  12.9270381
   2.3439555  17.9317683   9.7033383   3.1331933  17.5806748   9.8235465
   2.5183152  18.7454072   9.4410017   2.4859836  18.0003541   9.6821251
   8.0932094  13.5675941   9.1730083   8.1515218  14.0162590   9.9190059
   7.4598562  13.9774754   8.7360163   8.0083390  13.6949676   9.2182631
   1.7331189  19.1879483   5.6084829   1.5350878  19.6770298   4.9141040
   1.1118900  19.3920725   6.1868962   1.6118754  19.2896021   5.5908052
   5.0453774  11.5892229   7.2595773   4.8051997  10.7498644   7.2638200
   5.5245781  11.6692396   7.9836547   5.0805958  11.4773629   7.3670576
   3.6504991  12.7543635  11.1430077   4.3739190  12.3016162  10.9641097
   3.3854953  13.0348301  10.3602405   3.7186264  12.7294604  11.0008793
   6.0840305  11.7170046   9.6460627   6.6758145  12.3567297   9.6778825
   6.5199300  11.0193083   9.9352694   6.2358736  11.7088397   9.6941460
   3.1355027  13.4357299   8.2728613   3.5610098  12.9131721   7.7199038
   2.7711947  14.0338137   7.7517236   3.1441629  13.4467526   8.1137623
   1.8110611  18.7592877  16.7821843   1.9207576  17.9701437  17.1378590
   2.1401508  18.6698813  15.9796181   1.8763017  18.6298730  16.7164233
  16.3979549  25.6025422   0.8609681  16.3673554  26.4570059   1.0327950
  16.9960898  25.3020715   1.4195824  16.4816707  25.6841919   0.9684483
   9.5979234  24.6901073   5.6162611   8.7417130  24.8509571   5.6671728
   9.6446888  23.8193137   5.6367672   9.4778346  24.5851875   5.6268677
  12.9072951  30.9587599  15.2223067  13.6139718  30.4639629  15.3510002
  13.0960886  31.3996680  14.4925725  13.0400856  30.9505949  15.1332113
  12.4431055  26.7493117   8.2594263  12.9887015  27.4278203   8.3188233
  12.3847932  26.6080578   7.3995844  12.5146970  26.8285119   8.1406323
   0.7829395  25.9740482   8.4142826   0.6588092  26.5602927   9.0492644
   1.4347679  25.4800678   8.7155101   0.8603044  25.9879286   8.5528755
   5.8087736  29.1502199   7.6930337   6.4536738  28.6574642   7.3741285
   6.0489513  29.2926985   8.5196415   5.9398321  29.0979641   7.7679870
   8.3473827  31.9957105   7.3437229   8.6297070  31.2008510   7.1223985
   9.0759988  32.4737692   7.3642290   8.4963391  31.9491702   7.3140244
   6.3255021  19.5380139   4.5852994   5.9958351  19.9891282   3.9156693
   5.6500023  19.4596302   5.1326001   6.1765457  19.5931274   4.5676218
  13.5331429  15.5265661   2.8302605  13.2184870  16.2169140   3.2623027
  13.0158370  15.4710444   2.1288106  13.4095899  15.6200550   2.7899554
  12.8743863  25.5270162  -1.0559984  12.3455334  25.7429796  -0.3962678
  13.3968883  26.2206301  -1.1359015  12.8732316  25.6613299  -0.9704385
  18.3291916  31.1016467   4.3173060  17.4989619  31.3127111   4.4806477
  18.2801168  30.2753521   4.0415344  18.1998651  31.0106073   4.3010425
  10.0465245  34.3815135  13.1137143  10.1348591  34.1941276  13.9615353
  10.4754958  33.7352565  12.7141989  10.1227347  34.2578143  13.1808894
   7.6135705  33.6646295  12.0954805   7.0506540  33.2518905  12.6194466
   8.3756728  33.5899201  12.5147948   7.6430153  33.5923696  12.2347805
  17.8245874  23.7486868   8.1123481  16.9874295  23.8189055   8.3471076
  17.7934105  23.7511362   7.2397784  17.6964156  23.7597095   8.0183029
   4.2210603  25.8919903  13.8271850   4.3931107  25.7825798  14.6757131
   4.7579960  26.5374309  13.5903042   4.3255607  25.9711905  13.9176947
  12.5476060  27.9442544   3.7035373  13.3033575  28.3774058   3.7424282
  12.6538384  27.2947314   4.2770009  12.6746230  27.9120028   3.7933398
  15.5856231  31.7715821   4.4537776  15.1491463  31.7752564   5.2096747
  15.2519146  32.4521320   4.0217353  15.4718851  31.8728277   4.5018608
  10.1585304  33.8124154  15.7780926  10.9425721  33.9255002  16.1436668
   9.9581899  32.9865291  15.9739612  10.2451330  33.7070874  15.8615312
  15.5053714  18.8129649   6.6967204  16.1479622  18.8827754   7.2829119
  15.7576734  18.1458872   6.1946746  15.6375846  18.7255998   6.7094483
   3.2770926  22.0230213  11.3091778   2.5842723  21.5527192  11.5552509
   3.8931254  21.7968517  11.8833485   3.2655456  21.9197344  11.4300930
  18.7200577  28.4896741   3.3457413  19.3817011  27.9287410   3.2453322
  18.0791989  27.9948772   3.6710104  18.7229444  28.3333150   3.3789753
  15.0065408  29.5062124   3.0869402  15.2420997  29.6507322   2.2596252
  15.1554971  30.2704532   3.4800915  15.0631211  29.6401178   3.0233006
   2.0011485  25.9895616  12.4518623   2.7251457  25.9748647  12.9383518
   2.1027622  26.6990972  11.9540591   2.1229694  26.0920320  12.4497410
   9.3756435  29.4694701  17.3167570   8.5829415  29.7838213  17.5020190
   9.4905362  29.6846170  16.4788355   9.2751845  29.5478538  17.2205905
  12.0487754  26.1928692   1.6062586  12.1434608  26.9317986   2.0602211
  11.4246597  25.7646168   2.0397150  11.9696784  26.2390013   1.7370733
  10.3040227  29.3714905  12.2552867  10.8779089  28.7342149  12.4101431
  10.2255031  29.3718987  11.3862524  10.3773462  29.2780016  12.1499278
  10.7404996  19.9066621   4.4078157  10.0361323  19.4175806   4.5662076
  10.7889970  19.9189095   3.5366601  10.6435048  19.8356269   4.3017497
   4.6338658  25.3575932   4.7938959   4.0588249  25.5168101   5.4302920
   4.2574334  24.7211342   4.3307409   4.4941471  25.2873745   4.8193517
   8.3011947  23.8299282   9.6531337   7.9126380  23.4053499   8.9983528
   7.6366645  24.0781431  10.1608364   8.1458875  23.8038003   9.6319205
  17.9435216  23.5874286   2.4279167  17.6871781  22.7754228   2.2377050
  18.7864530  23.5951854   2.2009355  18.0301241  23.4686284   2.3663984
  12.1238308  17.5273910   7.1655321  12.5048820  16.8452082   7.5523196
  11.3201593  17.2383513   6.9830986  12.0614770  17.3840959   7.1959377
  15.6260375  30.7423882  12.2637720  15.3899013  29.9111947  12.1449780
  16.2703604  30.6909490  12.8492564  15.6855046  30.6121570  12.3323613
   6.0830149  20.0328109  17.0317930   5.7683590  20.8027671  16.7687493
   5.7620081  19.4698365  16.4470157   5.9889068  20.0638377  16.9059280
  16.6496796  30.5268331   8.3266014  16.3442613  31.2596388   8.6879330
  15.9303012  30.1206261   8.0458800  16.4984138  30.5750064   8.3379151
  22.3498588  27.1661332   7.6534359  22.2823088  27.1857291   6.7836945
  22.3354250  28.0091659   7.8790029  22.3377344  27.2935067   7.5586836
  12.7594934  18.5696490  10.9775448  13.5048526  18.3806300  10.5638873
  12.3432239  19.0954728  10.4189304  12.8079909  18.6198635  10.8340021
  20.1357205  25.9405718   5.9280953  20.6865127  25.3073787   6.1678045
  20.1201321  26.4721111   6.6196457  20.2142402  25.9254666   6.0659811
   6.7879596  29.7744315  10.4740846   6.2891290  30.4860083  10.5525735
   7.5979820  30.0944982  10.4359009   6.8335703  29.9271164  10.4797415
  13.8385612  24.1802052   5.0385549  13.4950377  23.4592387   5.3892799
  13.9378654  23.9715903   4.1963907  13.8027654  24.0426255   4.9657229
   5.7146654  22.6325360  15.7703145   4.9046430  22.9383139  15.6592987
   6.1921341  23.3530942  15.8855729   5.6650133  22.7839961  15.7710216
  12.3576577  22.0993637   6.9145092  11.5187678  22.1254915   6.6783355
  12.4280944  22.7464372   7.4950439  12.2444970  22.1989762   6.9654209
   2.0490686  28.1687910  10.6402547   2.5611783  28.4472163   9.9911307
   1.7627029  28.9077204  11.0065360   2.0825549  28.3190264  10.5992425
  10.8045855  18.9979014   1.6472708  11.5072208  18.7986762   1.1692666
  10.5390044  18.2254956   1.9541552  10.8692488  18.8541980   1.6218150
  16.2334101  27.3061623   4.2006334  16.1468075  27.4617049   5.0541113
  15.7784581  27.9499699   3.8265739  16.1537357  27.4237378   4.2713441
   5.5674411  20.2614299  10.7003589   5.3757608  20.2769433  11.5503012
   6.4173007  20.4577973  10.6770244   5.6650133  20.2928650  10.8226883
  10.1059917  24.6272370   2.8231893   9.8594631  24.5468121   3.6568682
  10.4345040  23.8425838   2.6294421  10.1181160  24.4998636   2.9179416
  14.0007966  31.3355730   6.6118675  13.8622325  32.0336776   7.1167417
  13.2207964  31.1804386   6.2554856  13.8651193  31.4155896   6.6344949
  12.3386051  27.6352105  12.8641056  12.3334089  26.7631922  12.8683483
  13.0447045  27.8340274  12.3910512  12.4431055  27.5355979  12.7948092
   6.0656944  27.3629089  12.2354876   6.2100320  27.9430297  11.5997986
   6.4132593  27.7405386  12.9404731   6.1384405  27.5049793  12.2453871
   8.2376861  26.5619257  10.0180008   7.4900176  26.7550272   9.6128286
   8.3918387  25.7364477   9.7804129   8.1499289  26.4684369   9.9225414
   8.4778638  20.4569808  10.9075412   8.9351253  21.1893782  11.0348204
   8.5534967  20.0336273  11.6662668   8.5569608  20.5027046  11.0376488
  12.9505964  13.6359683   4.7769255  13.0689533  14.0936147   4.0436557
  12.7768140  12.8304944   4.4905472  12.9425135  13.5853455   4.6270188
   6.3561016  22.4471912   7.7517236   5.5657091  22.2663372   8.0734572
   6.7521639  21.6698865   7.7347530   6.2977893  22.3059373   7.7969784
  11.7404703  30.0814342   5.4776682  11.0649705  29.8499574   5.9790069
  11.7497079  29.4735525   4.8518787  11.6423207  29.9573267   5.4592834
   8.8698847  24.9232171  12.2340735   8.8057988  25.7842128  12.1060871
   9.0096034  24.6064164  11.4336286   8.8814317  25.0032338  12.0968948
   7.5517941  27.6164310   6.3756938   7.1280190  27.8168810   5.6395956
   7.3762796  26.7693158   6.4881237   7.4628821  27.5213092   6.2830628
  13.2496638  31.6976893  17.7905186  14.0631503  31.4262042  17.9510318
  13.0891604  31.3984433  16.9865381  13.3466586  31.6131819  17.6950591
  10.5268800  22.3810550  10.7300574  10.7410769  21.7421464  10.1763928
   9.9102699  22.8256374  10.3008436  10.4674129  22.3520694  10.5851005
  12.6907888  23.9899615  11.6683881  11.8784569  23.6825506  11.7497054
  13.1497822  23.5098615  12.2326593  12.6388272  23.8736108  11.7638475
   9.9183528  15.4910486   5.7187917   9.0477086  15.4649207   5.6721226
  10.1723869  15.3187678   4.9013762   9.8277088  15.4620629   5.5908053
   9.7861395  25.3959687  16.4512583  10.2561026  26.0201803  16.8380457
   9.8323275  24.7276662  17.0105798   9.8629271  25.3894367  16.5912655
   6.9432669  17.5016714   7.1761387   6.4271157  16.8096906   7.3012966
   6.3826598  18.1687491   7.1223986   6.7839182  17.4979972   7.1867453
   9.0124902  18.0409674   9.0054240   8.6256655  18.0658706   9.7867769
   8.5257839  17.4751353   8.5528756   8.8837411  17.9605425   9.0542143
  13.2617882  32.7583183  13.0628026  13.8997602  32.2643379  12.7290482
  12.6191973  32.6860584  12.4780253  13.2612108  32.6742192  12.9270381
  14.9874882  24.6072329   7.6293942  14.5602490  24.5198678   6.8742041
  14.3500935  24.7150105   8.2148786  14.8304489  24.6104989   7.6039383
   8.6782044  14.9276660  11.2964499   9.3075162  15.4636960  11.0185570
   8.8467907  14.8354019  12.1478065   8.7959838  14.9938022  11.3813028
   8.4795959  19.7147854  13.5690911   9.3069388  19.4433003  13.6249526
   8.5003805  20.5108696  13.9254729   8.6048809  19.7927609  13.6306094
  13.3172138  33.4502991   9.7033383  14.1064516  33.0992056   9.8235465
  13.4915736  34.2639380   9.4410017  13.4592420  33.5188849   9.6821251
   3.0565449  26.8611717   6.7561172   2.2153455  26.7615591   6.9640066
   3.2655457  27.6307197   7.1075492   2.9630141  26.9603760   6.8388487
  12.1705962  17.4612548   4.2649801  12.3755556  17.3934856   5.1106798
  11.8432386  18.2671369   4.1970979  12.1521210  17.5698489   4.3809456
   6.8682113  24.7893116   6.0058769   6.5645251  24.2349105   6.6069177
   6.1661534  24.9685326   5.5186803   6.7198323  24.7337899   6.0228475
   4.9300464  32.0042837  10.7130867   4.8220819  32.0144899  11.5792925
   5.1396246  32.8297617  10.5235821   4.9450576  32.1283912  10.8134959
  15.4239650  18.0144312   3.7452567  14.8113964  18.5014714   4.1306299
  15.5203825  17.3387803   4.2890218  15.3477548  17.9862621   3.8831425
   3.3434879  20.4157477   8.8420822   3.8036361  20.4896407   9.5795946
   3.3890986  21.2138731   8.4920644   3.4185435  20.5451624   8.8993579
   4.9918229  21.0824172  13.4092849   4.6003794  20.4357519  13.8448627
   5.1604092  21.6735607  14.0287105   4.9589139  21.0738440  13.5655555
  19.0664678  29.0861249   9.1730083  19.1247802  29.5347898   9.9190059
  18.4331146  29.4960062   8.7360163  18.9815973  29.2134984   9.2182631
  12.7063773  34.7064791   5.6084829  12.5083461  35.1955605   4.9141040
  12.0851484  34.9106032   6.1868962  12.5851337  34.8081329   5.5908052
   8.6851327  18.2699947   4.9826935   7.8387372  18.4422755   4.8568285
   8.6822459  17.4649290   5.3192763   8.5598476  18.1760976   5.0138062
   9.7549627  22.0475161   5.8488993   9.2809581  21.5216923   6.3594304
  10.1267763  21.5004634   5.2803854   9.7399516  21.8891158   5.8404140
  16.0186358  27.1077537   7.2595773  15.7784580  26.2683952   7.2638200
  16.4978365  27.1877704   7.9836547  16.0538541  26.9958937   7.3670576
  11.6833127  22.9411716  -1.0885253  11.1556145  23.0240460  -1.7779545
  12.1428835  23.6829587  -1.0920609  11.6734977  23.0632378  -1.1910558
  18.0191545  23.8878994   5.2125032  17.7801314  23.8474828   4.3745817
  18.1825446  24.7350146   5.3390753  18.0081848  24.0071079   5.1078514
  14.6237575  28.2728943  11.1430077  15.3471774  27.8201470  10.9641097
  14.3587537  28.5533609  10.3602405  14.6918848  28.2479912  11.0008793
   3.4924443  22.8689117   7.8782957   2.8677513  22.8807509   7.2708909
   3.1570038  23.3449292   8.5274197   3.3509935  22.9407634   7.8839525
  10.4056364  28.3712822   9.2925093   9.7913357  27.8270872   9.5873728
  10.9223649  27.8577058   8.8130909  10.3912027  28.2149231   9.2649321
   9.6452661  29.4417092   7.0269391   9.2180269  28.8166810   6.5934827
   9.6377606  29.1592013   7.8528398   9.5811803  29.3069872   7.0849219
   2.7615188  24.4782265  10.0957825   2.9208675  23.7225589  10.5009547
   2.5808082  25.0273204  10.7498563   2.7580547  24.4476078  10.2520531
  10.7035491  16.6443500  10.6508615  10.2076053  16.8407174   9.9600181
  11.4604553  17.0436168  10.4797416  10.7422316  16.7321234  10.5228751
   7.9738371  20.3185846   7.2411925   7.9980858  19.7845958   6.5524705
   8.2249845  19.8103155   7.9037516   8.0148290  20.1646750   7.2376570
   4.2539693  19.0456664   6.6217669   4.2938065  19.5465871   7.3352377
   3.4289358  19.1367058   6.3523593   4.1379219  19.1338481   6.6868208
   6.4369306  28.6117404  14.7237964   5.5864937  28.7489119  14.8595609
   6.5997434  27.8781183  15.1685666   6.3353170  28.5231506  14.8093563
   5.6754057  25.5617174   8.9191569   4.8445986  25.7290992   8.7126817
   5.6205574  25.1853125   9.7040454   5.5443472  25.5306905   9.0040097
   3.4837840  19.0526067  14.5547979   4.1090543  18.5088200  14.8277411
   3.0288320  18.5720985  13.9855770   3.5086100  18.9015548  14.5109573
  17.0572889  27.2355354   9.6460627  17.6490729  27.8752605   9.6778825
  17.4931883  26.5378391   9.9352694  17.2091320  27.2273704   9.6941460
   8.8866278  31.6572727  10.2718521   8.3791370  32.2108573  10.7159152
   8.5892925  31.7181016   9.4537296   8.7671163  31.7479038  10.2166978
  11.0528461  20.0226046   9.1143184  11.4783532  19.5698573   8.5026711
  10.4385454  19.4686117   9.3907972  11.0257106  19.8740022   9.0648209
  14.0822030  24.4500573   1.9463770  13.4113220  24.9930275   1.8176835
  14.7761780  24.9195428   1.7045465  14.0850897  24.5998844   1.8919297
  14.2450157  20.9056456   4.8554143  14.5977768  20.4786179   5.5299942
  13.3864959  20.8207300   4.9855219  14.1699602  20.8301197   4.9749153
  12.2433423  24.1691825   8.8038985  12.2231351  23.9875120   9.6573764
  12.2912624  25.0403843   8.7798569  12.2468064  24.2708363   8.9262280
  10.1879753  30.7579017  14.7287462  10.1475608  30.1128694  14.1432618
  11.0003071  30.7015634  15.0412874  10.3022907  30.6537984  14.6884411
  15.6774218  16.0274868   5.7838455  15.1705082  15.3204008   5.7159633
  16.4741651  15.6968057   5.9139532  15.7201457  15.8748020   5.7937450
  11.5938233  22.5341480   1.6812119  11.3651926  22.5574182   0.8390477
  11.8536310  21.7098947   1.8007130  11.5984421  22.4157560   1.5737317
   5.8757462  24.3875953  11.2837219   5.3636365  23.7797136  11.6422251
   5.7036958  25.1032546  11.7511195   5.7747099  24.4039253  11.4053443
   4.6482996  21.0718027   2.9766315   5.1240362  21.4335107   2.3416496
   4.1471596  21.7274494   3.2566458   4.6448355  21.2212216   2.9243056
   9.7526532  22.3100198  13.7239475  10.3097962  22.0814008  13.0917940
   9.4287597  23.0705864  13.4474687   9.7872942  22.3884035  13.5895972
   7.4709649  25.3967851  14.6891482   8.2220976  25.7119528  15.0031036
   7.6632226  25.1947022  13.8625404   7.6101064  25.4135233  14.6134878
  14.3194940  21.5241418   1.9315277  14.3189166  21.3690074   2.7899554
  14.1151120  22.3704405   1.8756663  14.2894717  21.6262039   2.0503217
  12.0435792  26.2038920   5.5851484  12.5389457  25.4861915   5.5455505
  11.2335567  25.9009717   5.4705971  11.9979685  26.0536566   5.5625210
  14.1087611  28.9542607   8.2728613  14.5342682  28.4317029   7.7199038
  13.7444530  29.5523444   7.7517236  14.1174213  28.9652834   8.1137623
  10.6966210  32.6676871   4.6029771  11.1677388  33.3817134   4.7719756
  11.0326388  32.0675621   5.1389640  10.8161325  32.6848336   4.7062146
  12.7843195  34.2778185  16.7821843  12.8940160  33.4886745  17.1378590
  13.1134091  34.1884121  15.9796181  12.8495600  34.1484038  16.7164233
   7.6135705  17.4404342  11.5587865   7.7463610  16.6435335  11.8868841
   7.9980858  17.9670745  12.1386141   7.6892034  17.4004259  11.6931368
  11.3340156  32.4594805  11.3657463  10.7861102  31.8352689  11.0977529
  11.7953185  32.6489078  10.6501543  11.3207366  32.3953856  11.2207894
  10.6868060  14.3634668   8.1568959   9.8814024  14.2532398   8.4736797
  10.5574796  14.4647124   7.2998824  10.5488193  14.3618338   8.0776999
  14.1434021  20.5280160   8.7508656  13.5597009  21.0289366   8.3386223
  14.4638315  20.0209716   8.1172979  14.1047196  20.5271995   8.5967163
   5.2724152  17.4363517   9.8065759   5.8168565  17.0954644  10.3970101
   5.3261087  18.2948979   9.9487044   5.3613271  17.5118776   9.9147632
  10.8998483  33.4645878   7.8966804  11.7196856  33.3208844   8.1583100
  10.6192560  34.0892077   8.4383242  10.9795226  33.5356230   8.0154744
  23.0970892  33.0459218   7.1655321  23.4781404  32.3637390   7.5523196
  22.2934176  32.7568821   6.9830986  23.0347354  32.9026267   7.1959377
  17.0562732  35.5513417  17.0317930  16.7416173  36.3212979  16.7687493
  16.7352665  34.9883673  16.4470157  16.9621651  35.5823685  16.9059280
  23.7327518  34.0881798  10.9775448  24.4781110  33.8991608  10.5638873
  23.3164823  34.6140035  10.4189304  23.7812492  34.1383943  10.8340021
  16.5406995  35.7799607  10.7003589  16.3490192  35.7954741  11.5503012
  17.3905591  35.9763281  10.6770244  16.6382717  35.8113958  10.8226883
  19.4511222  35.9755116  10.9075412  19.9083836  36.7079090  11.0348204
  19.5267551  35.5521581  11.6662668  19.5302192  36.0212354  11.0376488
  17.3293600  37.9657220   7.7517236  16.5389675  37.7848680   8.0734572
  17.7254223  37.1884172   7.7347530  17.2710476  37.8244681   7.7969784
  21.5001383  37.8995858  10.7300574  21.7143353  37.2606772  10.1763928
  20.8835282  38.3441682  10.3008436  21.4406712  37.8706002  10.5851005
  23.6640471  39.5084923  11.6683881  22.8517153  39.2010813  11.7497054
  24.1230406  39.0283923  12.2326593  23.6120856  39.3921415  11.7638475
  20.8916112  31.0095794   5.7187917  20.0209670  30.9834515   5.6721226
  21.1456453  30.8372986   4.9013762  20.8009672  30.9805937   5.5908053
  17.9165252  33.0202022   7.1761387  17.4003741  32.3282213   7.3012966
  17.3559181  33.6872799   7.1223986  17.7571766  33.0165280   7.1867453
  19.9857486  33.5594982   9.0054240  19.5989239  33.5844014   9.7867769
  19.4990423  32.9936661   8.5528756  19.8569995  33.4790733   9.0542143
  19.6514627  30.4461968  11.2964499  20.2807745  30.9822268  11.0185570
  19.8200490  30.3539326  12.1478065  19.7692422  30.5123330  11.3813028
  19.4528542  35.2333162  13.5690911  20.2801972  34.9618311  13.6249526
  19.4736388  36.0294004  13.9254729  19.5781392  35.3112916  13.6306094
  14.3167463  35.9342785   8.8420822  14.7768944  36.0081715   9.5795946
  14.3623570  36.7324039   8.4920644  14.3918018  36.0636932   8.8993579
  15.9650813  36.6009480  13.4092849  15.5736378  35.9542827  13.8448627
  16.1336675  37.1920915  14.0287105  15.9321723  36.5923748  13.5655555
  19.6583910  33.7885255   4.9826935  18.8119955  33.9608062   4.8568285
  19.6555043  32.9834598   5.3192763  19.5331060  33.6946284   5.0138062
  21.6768075  32.1628808  10.6508615  21.1808636  32.3592482   9.9600181
  22.4337137  32.5621476  10.4797416  21.7154900  32.2506542  10.5228751
  18.9470955  35.8371154   7.2411925  18.9713442  35.3031266   6.5524705
  19.1982428  35.3288463   7.9037516  18.9880873  35.6832058   7.2376570
  15.2272277  34.5641972   6.6217669  15.2670648  35.0651179   7.3352377
  14.4021941  34.6552366   6.3523593  15.1111803  34.6523789   6.6868208
  14.4570423  34.5711375  14.5547979  15.0823127  34.0273508  14.8277411
  14.0020903  34.0906293  13.9855770  14.4818684  34.4200856  14.5109573
  22.0261044  35.5411354   9.1143184  22.4516116  35.0883880   8.5026711
  21.4118037  34.9871425   9.3907972  21.9989690  35.3925330   9.0648209
  20.7259116  37.8285506  13.7239475  21.2830546  37.5999316  13.0917940
  20.4020181  38.5891172  13.4474687  20.7605526  37.9069343  13.5895972
  18.5868288  32.9589650  11.5587865  18.7196194  32.1620643  11.8868841
  18.9713441  33.4856053  12.1386141  18.6624617  32.9189567  11.6931368
  21.6600644  29.8819976   8.1568959  20.8546607  29.7717706   8.4736797
  21.5307379  29.9832432   7.2998824  21.5220776  29.8803646   8.0776999
  16.2456735  32.9548825   9.8065759  16.7901148  32.6139952  10.3970101
  16.2993671  33.8134286   9.9487044  16.3345855  33.0304084   9.9147632
  23.5756358  23.4151038   2.1563114  24.2823126  22.9203068   2.2850049
  23.7644294  23.8560119   1.4265772  23.7084264  23.4069388   2.0672160
  14.8894010  18.3483342   0.7611897  15.0614514  18.2389237   1.6097178
  15.4263368  18.9937748   0.5243089  14.9939014  18.4275344   0.8516994
  20.8268712  26.2687593   2.7120973  21.6109129  26.3818441   3.0776715
  20.6265306  25.4428730   2.9079659  20.9134737  26.1634313   2.7955359
  12.6694893  18.4459056  -0.6141330  13.3934865  18.4312086  -0.1276436
  12.7711029  19.1554411  -1.1119362  12.7913102  18.5483759  -0.6162543
  20.0439842  21.9258140   4.2507617  19.2512823  22.2401652   4.4360236
  20.1588769  22.1409609   3.4128401  19.9435253  22.0041977   4.1545952
  16.7513556  12.4891548   3.9657977  16.4366997  13.2591111   3.7027539
  16.4303489  11.9261804   3.3810204  16.6572475  12.5201817   3.8399327
  16.3830062  15.0888799   2.7043192  15.5729837  15.3946579   2.5933034
  16.8604748  15.8094381   2.8195776  16.3333540  15.2403400   2.7050263
  23.0069458  20.0915544  -0.2018897  23.0017497  19.2195361  -0.1976470
  23.7130452  20.2903713  -0.6749441  23.1114462  19.9919418  -0.2711861
  16.7340352  19.8192528  -0.8305077  16.8783727  20.3993736  -1.4661967
  17.0816000  20.1968825  -0.1255222  16.8067813  19.9613232  -0.8206082
  18.9060269  19.0182696  -3.0479945  18.1583583  19.2113711  -3.4531667
  19.0601794  18.1927916  -3.2855824  18.8182697  18.9247808  -3.1434539
  19.5382254  17.3795610  -0.8319218  19.4741395  18.2405567  -0.9599082
  19.6779442  17.0627603  -1.6323667  19.5497724  17.4595777  -0.9691006
  23.9180045  24.1540332   4.7245232  24.7314910  23.8825481   4.8850365
  23.7575011  23.8547872   3.9205428  24.0149994  24.0695258   4.6290638
  23.3591295  16.4463054  -1.3976072  22.5467977  16.1388945  -1.3162900
  23.8181230  15.9662054  -0.8333360  23.3071680  16.3299547  -1.3021478
  20.4544803  17.8523126   3.3852630  20.9244434  18.4765242   3.7720504
  20.5006683  17.1840101   3.9445845  20.5312678  17.8457806   3.5252701
  19.1479366  12.1711293   0.5030958  19.9752796  11.8996442   0.5589572
  19.1687212  12.9672135   0.8594776  19.2732216  12.2491048   0.5646141
  17.1052714  21.0680843   1.6578011  16.2548344  21.2052558   1.7935656
  17.2680841  20.3344622   2.1025713  17.0036577  20.9794945   1.7433610
  20.8563161  23.2142456   1.6627509  20.8159015  22.5692133   1.0772664
  21.6686479  23.1579073   1.9752921  20.9706314  23.1101423   1.6224458
  20.4209940  14.7663637   0.6579522  20.9781370  14.5377447   0.0257987
  20.0971005  15.5269303   0.3814734  20.4556350  14.8447474   0.5236019
  18.1393057  17.8531291   1.6231529  18.8904384  18.1682967   1.9371083
  18.3315633  17.6510461   0.7965451  18.2784471  17.8698672   1.5474925
  23.4526602  26.7341624   3.7161889  23.5623568  25.9450184   4.0718637
  23.7817499  26.6447560   2.9136228  23.5179008  26.6047477   3.6504280
  37.9722519  37.9722519  37.9722519 109.4712190 109.4712190 109.4712190
