ACE
  5076
  23.0530030  16.8284504  15.2319812  22.4018149  17.6460367  15.5411844
  21.5043002  17.6501826  14.9226794  22.9273062  18.5938324  15.4243884
  21.9856256  17.4949933  17.0057227  22.3828959  16.5417049  17.6719489
  21.1839319  18.4411658  17.4999595  20.8837316  19.2060904  16.9127036
  20.7198006  18.4114374  18.8722935  20.1527216  17.4967026  19.0448647
  21.8905340  18.4505531  19.8487553  22.4627273  19.3653459  19.6943240
  21.5127252  18.4271199  20.8709155  22.5341270  17.5871924  19.6799489
  19.8229933  19.6037418  19.1733431  19.5782530  20.4357731  18.3025582
  19.3323475  19.6849304  20.4122539  19.5621673  18.9759570  21.0938982
  18.4666838  20.7717939  20.8232970  18.9921739  21.7195900  20.7064985
  17.1969043  20.8114141  19.9796651  16.6550717  19.8724860  20.0933818
  16.5661161  21.6366425  20.3101260  17.4606536  20.9534717  18.9316407
  18.0526723  20.6215413  22.2801781  18.4499456  19.6682537  22.9464040
  17.2509776  21.5677131  22.7744145  16.9507755  22.3326365  22.1871580
  16.7868476  21.5379856  24.1467489  17.1922383  20.6596353  24.6490037
  17.1208373  22.4377908  24.6633745  15.6978322  21.4941340  24.1616656
  21.1781923  27.2830591  37.3043192  20.8433292  27.9607513  36.8687414
  21.6908794  26.8935902  36.7160064  21.2047504  27.3255169  37.1529984
  19.8964747  16.8029173  40.9989522  20.5944912  16.9817300  41.4910985
  20.2117080  16.2799512  40.3759911  20.0460084  16.7522945  40.9791532
  23.6862019  21.5426799  37.9400083  23.6013314  22.3987766  38.0849652
  24.1746402  21.2671123  38.6082242  23.7450916  21.6284120  38.0602164
  24.6180452  18.1611593  39.4397818  24.0891924  18.3771227  40.0995124
  25.1405472  18.8547732  39.3598787  24.6168905  18.2954730  39.5253417
  16.5080060  22.0574810  38.2405286  15.9237275  22.5624841  38.6471150
  16.1050155  21.8317197  37.5001878  16.3619364  22.0983058  38.1910311
  20.9657274  18.3040462  36.7174206  21.2053278  18.5118446  35.9049550
  21.2873115  17.4997971  36.8263151  21.0494432  18.2154563  36.6134760
  14.1766656  15.9178349  35.7734330  13.4624833  15.6316529  36.1856763
  14.6610625  16.2574975  36.4140718  14.1426020  15.9259999  35.9289965
  21.3513974  24.4208303  36.1496139  21.7665123  24.0893327  35.4580634
  20.5205904  24.1877206  36.0216275  21.2901983  24.3379559  36.0286986
  24.0447364  20.6718863  35.3357340  23.9627527  20.7421050  36.2012327
  24.6827085  21.2348607  35.1441081  24.1267202  20.7657834  35.4347290
  21.1487475  20.6939317  38.3465947  21.9628113  20.9854210  38.2348718
  21.0846616  20.0399179  37.7724240  21.2590214  20.6404512  38.2454784
  17.6598198  19.3863124  37.8113148  18.0443351  19.1670831  38.5629693
  17.4109818  20.2126070  37.9414224  17.6800270  19.4761271  37.9414224
  14.9976577  23.3103950  41.1403735  15.7522545  23.6916989  41.3539197
  14.4047189  23.7615094  41.5950431  15.0213290  23.4332778  41.2386613
  17.7441129  21.5116531  41.9125341  17.5483912  22.1191265  41.3185644
  17.9675474  20.8184475  41.4317015  17.7475770  21.4994056  41.7541422
  22.5863497  23.9101117  33.6881752  23.3536482  23.9701242  33.2787604
  22.1394806  23.3381559  33.2038070  22.6336924  23.8337693  33.5559462
  21.1216120  20.1215676  41.1736076  21.6631665  19.6186057  41.6374696
  21.4362679  20.0680871  40.3625561  21.2480517  20.0395097  41.1219888
  19.2902569  25.5133028  38.4576104  19.3595390  24.6547566  38.5969104
  20.0691025  25.7304909  38.1295128  19.4155419  25.4185892  38.4293261
  18.6338097  20.1819883  35.1518862  18.9230622  20.9584766  35.4262436
  18.7209896  19.6708615  35.8533361  18.6892353  20.2211802  35.2961360
  18.5108341  19.1091119  40.4452876  19.2550386  19.4965395  40.6835826
  18.6569037  18.2648544  40.6093364  18.6418926  19.0421591  40.5046845
  23.4269716  15.5753147  39.4072549  22.8992735  15.6581890  38.7178258
  23.8865424  16.3171018  39.4037194  23.4171567  15.6973809  39.3047244
  15.4202781  13.8455666  34.4313444  15.0715586  14.4975391  34.8944993
  14.9399227  13.8312779  33.7037315  15.2973025  13.9398720  34.3924535
  22.9806799  24.1456710  38.5382206  23.7040997  24.6114823  38.3946779
  22.5407390  24.2130320  37.7879803  23.0222491  24.2240547  38.4066987
  15.8226912  17.3381308  37.2732065  16.4571992  17.9341733  37.2081527
  15.9052523  17.0384765  38.0877936  15.9283463  17.3822216  37.3835152
  17.4005895  13.2695283  37.2477507  17.7221736  12.7898365  36.5936770
  17.6632839  14.0794929  37.0568319  17.4871921  13.3185181  37.1232999
  20.4617006  15.2103407  38.7468171  19.8681846  15.5320403  38.1952738
  20.4992284  14.3644502  38.5389277  20.3791395  15.1327735  38.6350943
  18.4346239  15.8500657  36.8397501  18.8145203  15.8680287  36.0548616
  17.6938835  16.2954646  36.7188348  18.3815076  15.9182432  36.7061069
  19.2330993  22.6878164  38.2306291  18.4242315  22.3644837  38.1839601
  19.7405902  21.9811386  38.1634540  19.1880659  22.5359480  38.2136586
  15.4207787   3.7983353  28.8097692  14.6690687   3.4198891  28.5813737
  15.8693799   3.8301786  28.0616502  15.3757454   3.7468960  28.6655194
  20.8732747   4.2208722  24.2383239  20.5384116   4.8985644  23.8027461
  21.3859618   3.8314034  23.6500111  20.8998328   4.2633300  24.0870030
  20.4137039   6.1722991  30.1794351  20.7976418   6.7409890  29.6399126
  20.3496180   5.4472501  29.7000167  20.4610466   6.1498454  30.0288213
  16.9992544   3.8101745  31.0760464  17.1002906   3.0002099  31.3857592
  16.4034289   3.7158691  30.4460143  16.9265082   3.6766773  31.0286703
  16.8393283   8.7279334  32.4775320  17.4830739   9.1692498  32.8671479
  17.1649539   7.9232760  32.3905579  16.9825112   8.6744529  32.5220798
  17.5413863   1.7391309  27.8495182  17.8629704   2.2796516  27.2456490
  18.1885959   1.1688080  27.9817472  17.6839918   1.7350484  27.7802218
  19.7803506   0.1277749  27.9209360  20.2197142  -0.4805151  28.3664133
  19.6308169  -0.2514878  27.1494825  19.8224972  -0.0183780  27.8728528
  16.2030884  -1.0047059  25.1745333  15.6188099  -0.4997027  25.5811197
  15.8000979  -1.2304672  24.4341925  16.0570188  -0.9638811  25.1250358
  21.0464798   1.3586435  23.0836185  21.4615947   1.0271458  22.3920681
  20.2156728   1.1255337  22.9556322  20.9852807   1.2757691  22.9627033
  16.7146207   1.1038966  30.4078305  17.3520154   0.8650713  30.9530099
  17.1401278   1.3076125  29.6731466  16.8722373   1.0989976  30.3795463
  12.8573435   1.9269251  29.1166535  12.0311553   2.1730988  28.9900814
  12.9185427   1.8481332  29.9828593  12.7447602   1.9514200  29.2255480
  17.6372264   4.5446131  26.8185565  17.9270563   4.1535113  26.0944792
  18.3675745   4.7262836  27.2590840  17.7879149   4.5139945  26.7768372
  15.5778180   6.5213514  29.8845715  15.3578475   6.2310869  30.6772382
  15.3572702   5.8628469  29.3563627  15.5125774   6.3813222  29.9234624
  17.7446136   7.8942904  28.6676407  18.3970194   7.3619346  28.8967433
  17.0471744   7.5411556  29.0544281  17.7376854   7.7632427  28.7588575
  14.6927401   0.2482081  28.0743782  15.4473369   0.6295120  28.2879244
  14.0998013   0.6993225  28.5290478  14.7164114   0.3710909  28.1726660
  22.2092632   3.1586102  27.4344466  21.9679308   2.4253963  27.0271531
  22.3893965   3.7072959  26.7810799  22.2000256   3.1308493  27.2774689
  19.7595660   3.8167065  28.6421849  20.5245551   3.5476708  28.3204514
  19.6573750   3.3317075  29.3591912  19.8577156   3.7056629  28.7001677
  22.2814321   0.8479248  20.6221799  23.0487306   0.9079373  20.2127650
  21.8345630   0.2759690  20.1378117  22.3287748   0.7715824  20.4899509
  25.1808851   2.5099036  25.1384709  25.2628688   3.3166023  24.8146160
  25.6658593   2.5294996  25.8625482  25.2646009   2.6319699  25.1971607
  18.9853393   2.4511159  25.3916151  19.0546214   1.5925697  25.5309151
  19.7641849   2.6683040  25.0635175  19.1106243   2.3564023  25.3633308
  23.3760881   4.8748860  29.6052644  22.9840673   4.5715575  28.8875510
  23.5313953   5.7117950  29.4157598  23.3414471   4.9532697  29.4709141
  23.5400556   1.4398849  29.5458674  23.1815210   1.6113492  30.3222707
  23.0539266   1.9012055  28.9886673  23.4159253   1.5337820  29.5783944
  24.1451186   4.2784353  33.0382678  23.9470875   4.7675167  32.3438890
  23.5238897   4.4825594  33.6166812  24.0238751   4.3800891  33.0205902
  22.6757623   1.0834841  25.4722253  23.3991821   1.5492954  25.3286826
  22.2358214   1.1508451  24.7219850  22.7173315   1.1618678  25.3407034
  22.9361472   5.1455546  25.6320314  22.2190782   4.9716408  25.1667551
  23.5868210   4.9108118  25.0995800  22.9263323   5.0851339  25.4849532
  18.2174634   6.3817305  32.0610462  17.8035033   5.7191435  31.6714303
  18.9022008   6.5295164  31.5406156  18.2573006   6.3057963  31.9266959
  21.5839928   5.5407390  32.8134078  21.1856211   5.6509660  32.0454899
  20.9691148   5.7489456  33.3960638  21.4338818   5.5880958  32.7865378
  22.1353623   2.2396433  32.0327620  22.6064802   2.9536696  32.2017605
  22.4713802   1.6395183  32.5687489  22.2548738   2.2567898  32.1359996
  32.0099231   9.7805943  33.0460460  31.1537127   9.9414441  33.0969577
  32.0566885   8.9098007  33.0665521  31.8898343   9.6756745  33.0566526
  26.3940371  19.3168661  28.8097692  25.6423271  18.9384199  28.5813737
  26.8426383  19.3487094  28.0616502  26.3490038  19.2654268  28.6655194
  31.8465331  19.7394030  24.2383239  31.5116699  20.4170952  23.8027461
  32.3592201  19.3499341  23.6500111  31.8730912  19.7818608  24.0870030
  31.3869622  21.6908299  30.1794351  31.7709001  22.2595198  29.6399126
  31.3228763  20.9657809  29.7000167  31.4343049  21.6683762  30.0288213
  27.9725127  19.3287053  31.0760464  28.0735490  18.5187407  31.3857592
  27.3766872  19.2343999  30.4460143  27.8997666  19.1952081  31.0286703
  36.6316121  13.2682594  26.5625840  36.5155647  14.0190280  26.9917978
  37.4272008  13.0106547  26.8121927  36.7320710  13.3417441  26.6629931
  27.8125867  24.2464642  32.4775320  28.4563322  24.6877806  32.8671479
  28.1382122  23.4418068  32.3905579  27.9557695  24.1929837  32.5220798
  21.1690171  15.3507339  30.7012798  20.9340356  14.5174992  30.5945067
  21.3075812  15.6312005  29.8873999  21.1545834  15.2690843  30.5655153
  23.4680259   7.5193070  33.5997106  22.8485291   6.9285717  33.4307121
  23.3664122   8.1104505  32.9661429  23.3617934   7.5197153  33.4802095
  28.5146446  17.2576617  27.8495182  28.8362288  17.7981824  27.2456490
  29.1618543  16.6873388  27.9817472  28.6572502  17.2535792  27.7802218
  30.5648155   9.2592612  27.9329569  31.2628319   9.4380739  28.4251032
  30.8800487   8.7362951  27.3099958  30.7143492   9.2086384  27.9131579
  23.1949392  11.0645352  35.8440675  23.0708089  11.6507797  36.4790494
  23.8467676  10.5705547  36.1452950  23.2723041  11.0784156  35.9826604
  30.7536090  15.6463057  27.9209360  31.1929725  15.0380157  28.3664133
  30.6040753  15.2670430  27.1494825  30.7957556  15.5001528  27.8728528
  28.2207733  14.2407069  35.1228186  28.8656735  13.7479512  34.8039134
  28.4609510  14.3831855  35.9494264  28.3518318  14.1884511  35.1977719
  30.7593824  17.0861975  34.7735078  31.0417067  16.2913380  34.5521834
  31.4879985  17.5642562  34.7940139  30.9083388  17.0396571  34.7438094
  28.7375018   4.6285009  32.0150844  28.4078348   5.0796152  31.3454542
  28.0620020   4.5501172  32.5623850  28.5885454   4.6836144  31.9974067
  34.3545426  13.9990238  24.8740130  34.2696722  14.8551205  25.0189698
  34.8429810  13.7234562  25.5422289  34.4134324  14.0847560  24.9942211
  35.2863860  10.6175032  26.3737865  34.7575331  10.8334666  27.0335171
  35.8088880  11.3111171  26.2938834  35.2852313  10.7518169  26.4593464
  27.1763467  14.5138249  25.1745333  26.5920683  15.0188280  25.5811197
  26.7733563  14.2880636  24.4341925  27.0302771  14.5546497  25.1250358
  22.7307496  20.2293010  31.9769004  22.2475074  20.9543500  31.9528588
  23.5430814  20.5269140  32.0879162  22.7798244  20.3795364  31.9896283
  28.8021650  19.0225191  34.5818819  28.2848592  18.6632606  33.9780127
  29.4996041  18.4987365  34.5924885  28.8287231  18.8922879  34.4949077
  31.6340682  10.7603901  23.6514253  31.8736686  10.9681885  22.8389596
  31.9556523   9.9561410  23.7603198  31.7177840  10.6718002  23.5474806
  26.9430972   2.6897297  27.4973791  27.6976940   3.0575614  27.2590841
  26.7658507   3.0636851  28.2652971  27.0285451   2.7995485  27.5758680
  25.5851693  20.7449186  32.1289284  26.2872273  20.2301175  32.1862041
  25.5049176  21.0723337  32.9336159  25.6775454  20.7163412  32.2562076
  25.2988037   5.0967616  24.1951904  25.1163610   5.3139497  23.3692897
  26.1613650   5.2106629  24.2510519  25.3992626   5.1457514  24.0806391
  24.9102469  16.9355538  31.6374892  25.7491368  17.1678471  31.6848654
  24.9414238  16.0659850  31.5681928  25.0384186  16.8412485  31.6339537
  25.5355172  17.3556413  35.9388198  26.0753397  17.2127544  36.6091570
  24.8525118  17.7553164  36.3072224  25.5147326  17.3936084  36.0922619
  34.9596057  13.0347414  31.1333222  35.7153572  13.4678928  31.1722131
  35.0658381  12.3852184  31.7067858  35.0866227  13.0024898  31.2231248
  37.9976228  16.8620691  31.8835625  37.5611460  16.8657434  32.6394596
  37.6639143  17.5426190  31.4515202  37.8838848  16.9633147  31.9316458
  20.9392317  13.5756704  36.0922619  20.6730732  12.7595821  36.2513609
  20.9530881  13.6209860  35.2218135  20.9017039  13.4613609  35.9876101
  24.8450064   8.3741789  22.7074377  24.1308241   8.0879968  23.1196810
  25.3294033   8.7138414  23.3480765  24.8109427   8.3823438  22.8630012
  32.0197382  16.8771742  23.0836185  32.4348530  16.5456766  22.3920681
  31.1889311  16.6440645  22.9556322  31.9585390  16.7942998  22.9627033
  21.3485731  14.3615484  33.3734363  21.1661304  14.3362370  32.5206656
  22.0835399  14.8314421  33.4123272  21.4299794  14.4276846  33.2532282
  37.4185405  14.5966993  30.5167251  37.6540994  14.7412192  29.6894102
  37.5674968  15.3609402  30.9098765  37.4751208  14.7306048  30.4530855
  34.4607751  11.2833562  29.0360435  34.5554605  12.0222856  29.4900060
  33.8366594  10.8551038  29.4694999  34.3816781  11.3294883  29.1668582
  21.3156641  11.2408984  33.5233430  21.8930143  11.1045435  34.1625675
  20.6170703  10.7844768  33.7779014  21.2977662  11.1531250  33.6555720
  34.7130772  13.1282302  22.2697387  34.6310934  13.1984489  23.1352374
  35.3510492  13.6912046  22.0781128  34.7950609  13.2221273  22.3687336
  28.0723943  12.8943040  31.7371913  27.8143187  12.0614775  31.7103213
  28.1272426  13.1200653  30.8964414  28.0423721  12.8040811  31.6092050
  27.0458655  10.4480802  32.2236808  26.4708246  10.6072971  32.8600769
  26.6694331   9.8116211  31.7605259  26.9061468  10.3778615  32.2491366
  16.7915474  10.0920877  30.2381249  16.8775726   9.7152745  31.0194779
  17.4191272   9.7181323  29.7601207  16.8972025   9.9806359  30.2826726
  31.8170882  13.1502756  25.2805993  32.6311521  13.4417649  25.1688765
  31.7530023  12.4962619  24.7064286  31.9273621  13.0967951  25.1794831
  27.6878790  16.6224274  30.4078305  28.3252737  16.3836021  30.9530099
  28.1133862  16.8261433  29.6731466  27.8454957  16.6175284  30.3795463
  22.3791433  18.8612610  34.2912609  22.4195578  19.1327461  33.4632389
  22.9385957  19.3854518  34.7070397  22.4674779  18.9788365  34.2304497
  28.3281605  11.8426563  24.7453195  28.7126758  11.6234270  25.4969740
  28.0793226  12.6689509  24.8754271  28.3483678  11.9324710  24.8754271
  30.0700262  17.0996696  32.0872092  30.1439271  16.9371868  32.9413942
  30.8869769  17.2886886  31.8432573  30.2016621  17.1033439  32.1770117
  23.8306019  17.4454559  29.1166535  23.0044137  17.6916296  28.9900814
  23.8918010  17.3666640  29.9828593  23.7180186  17.4699508  29.2255480
  26.0482043   3.5123500  30.0761975  25.1804468   3.5846100  30.1419585
  26.3357247   4.3145579  30.2649950  25.9621791   3.6417647  30.1136742
  28.6104848  20.0631439  26.8185565  28.9003146  19.6720421  26.0944792
  29.3408329  20.2448144  27.2590840  28.7611732  20.0325253  26.7768372
  29.1999593  14.8649185  37.9038696  28.7011287  15.5764953  37.9823584
  30.0099817  15.1849852  37.8656858  29.2455700  15.0176034  37.9095264
  26.5510764  22.0398822  29.8845715  26.3311059  21.7496176  30.6772382
  26.3305286  21.3813777  29.3563627  26.4858358  21.8998530  29.9234624
  25.4627711  14.1272138  32.1501417  25.1740959  13.5009610  32.6847144
  26.3311059  14.0692426  32.2166097  25.5487963  14.0259682  32.2392371
  28.7178719  23.4128212  28.6676407  29.3702777  22.8804654  28.8967433
  28.0204328  23.0596864  29.0544281  28.7109437  23.2817735  28.7588575
  25.6659984  15.7667389  28.0743782  26.4205952  16.1480428  28.2879244
  25.0730597  16.2178533  28.5290478  25.6896698  15.8896217  28.1726660
  36.7118638  15.7332626  28.0107387  37.2776670  16.3925836  27.9265929
  36.0646541  16.0782324  28.4823789  36.6997394  15.8814567  28.0680143
  26.9858211  16.9375951  33.4483897  26.4638964  17.0776242  34.1335762
  27.3732231  16.1786615  33.6386014  26.9661912  16.8461474  33.5784973
  23.9749395   6.9881759  27.5178852  23.6874191   6.6183030  26.7810799
  24.6619863   7.4576615  27.2562557  24.0338292   7.0028729  27.3693927
  33.1825216  18.6771410  27.4344466  32.9411892  17.9439271  27.0271531
  33.3626549  19.2258267  26.7810799  33.1732840  18.6493801  27.2774689
  28.4124536  13.9679970  28.8465388  28.2167319  14.5754704  28.2525691
  28.6358882  13.2747914  28.3657062  28.4159177  13.9557495  28.6881469
  26.8103066  10.8534708  28.9646256  27.5325718  11.0175866  28.5050062
  26.3311059  11.5744372  28.8585596  26.8466797  10.9832937  28.8811870
  24.4610683  13.2592780  38.0700396  24.9731780  13.5377033  37.4209156
  24.1747026  13.9982074  38.4363209  24.4945546  13.4095134  38.0290274
  21.5477589   7.7662972  28.3664133  21.6493726   8.5689133  28.6945108
  22.3433476   7.5650308  28.0687213  21.6805495   7.8548871  28.3699488
  22.3641322   7.8810150  36.1085254  22.2226813   7.0294091  36.2329762
  22.6481885   7.9238811  35.2847460  22.3849168   7.7609900  36.0052878
  32.5179914   9.7177240  30.2529743  32.2714628   9.6372991  31.0866531
  32.8465037   8.9330708  30.0592270  32.5301157   9.5903506  30.3477266
  36.4127963  16.4260600  34.0416524  36.2742322  17.1241645  34.5465266
  35.6327961  16.2709256  33.6852706  36.2771190  16.5060766  34.0642798
  27.5504696  20.6436731  36.5313752  27.6994260  20.0839647  35.8787157
  28.3304698  20.7228732  36.9146271  27.6878790  20.5722296  36.4910702
  37.9081336  15.7838853  24.8033023  37.5288144  14.9975991  24.7962312
  37.2447581  16.3325710  24.6604667  37.7539810  15.7483677  24.7813820
  30.7328244  19.3352372  28.6421849  31.4978135  19.0662016  28.3204514
  30.6306334  18.8502383  29.3591912  30.8309739  19.2241937  28.7001677
  28.7681013   7.5376782  35.1815085  27.9777088   7.3568242  35.5032421
  29.1641636   6.7603734  35.1645379  28.7097890   7.3964243  35.2267633
  33.2546904  16.3664556  20.6221799  34.0219889  16.4264681  20.2127650
  32.8078213  15.7944998  20.1378117  33.3020331  16.2901132  20.4899509
  34.1524700  15.1719212  32.9074531  33.4769702  14.9404444  33.4087918
  34.1617076  14.5640395  32.2816636  34.0543204  15.0478137  32.8890683
  36.1541434  18.0284344  25.1384709  36.2361272  18.8351331  24.8146160
  36.6391177  18.0480304  25.8625482  36.2378592  18.1505007  25.1971607
  29.9637938  12.7069180  33.8054787  29.5400187  12.9073679  33.0693805
  29.7882793  11.8598028  33.9179087  29.8748818  12.6117962  33.7128477
  25.2520383  13.2021232  29.2382759  25.4085002  13.1368035  30.0938751
  25.5920976  13.9769784  29.0261439  25.3253617  13.3070430  29.3337353
  31.7899527  12.5779115  28.1076123  32.3315073  12.0749496  28.5714743
  32.1046086  12.5244310  27.2965608  31.9163924  12.4958536  28.0559935
  29.9585977  17.9696467  25.3916151  30.0278797  17.1111005  25.5309151
  30.7374432  18.1868348  25.0635175  30.0838827  17.8749331  25.3633308
  34.3493465  20.3934168  29.6052644  33.9573256  20.0900883  28.8875510
  34.5046537  21.2303258  29.4157598  34.3147054  20.4718005  29.4709141
  21.8254644  10.3856182  29.5543526  22.2053609  10.8040727  28.8903794
  21.2510009  10.9669638  29.8612370  21.7965969  10.5334041  29.5020267
  34.5133139  16.9584157  29.5458674  34.1547794  17.1298800  30.3222707
  34.0271850  17.4197363  28.9886673  34.3891836  17.0523128  29.5783944
  29.3021505  12.6383322  22.0858909  29.5914030  13.4148205  22.3602483
  29.3893304  12.1272054  22.7873408  29.3575761  12.6775241  22.2301407
  25.4685446  11.9516587  34.1859021  24.6273452  11.8520461  34.3937915
  25.6775454  12.7212067  34.5373342  25.3750138  12.0508630  34.2686336
  22.9461013   9.5736124  32.0143772  22.5517710   9.6479136  31.2393881
  22.3901129   9.9594070  32.5652133  22.8063825   9.6417899  31.9811431
  29.2802111   9.8797986  33.4356618  28.9765248   9.3253974  34.0367026
  28.5781531  10.0590196  32.9484653  29.1318320   9.8242769  33.4526324
  28.3368208   7.1898506  28.0001320  28.6127942   6.4717419  27.5878888
  28.9366877   7.7883426  27.7922426  28.4661472   7.1718877  27.9082081
  27.3420462  17.0947707  38.1428716  27.2340816  17.1049769  39.0090774
  27.5516243  17.9202487  37.9533670  27.3570573  17.2188782  38.2432808
  31.8378728   4.8612023  26.2747915  32.2922475   5.0322584  26.9995760
  32.3118774   4.2480134  25.8745691  31.9747048   4.7962909  26.3221677
  25.3594254  14.3460349  35.6050654  24.7682187  14.9869847  35.5753669
  26.1215277  14.7697967  35.5781953  25.3842514  14.5036188  35.5965801
  25.7554876   5.5062347  36.2718671  26.2156358   5.5801276  37.0093795
  25.8010983   6.3043601  35.9218493  25.8305432   5.6356494  36.3291428
  35.1183770  19.7969661  33.0382678  34.9203458  20.2860475  32.3438890
  34.4971481  20.0010902  33.6166812  34.9971334  19.8986199  33.0205902
  29.1791748  11.5654558  27.3792923  29.9233793  11.9528834  27.6175872
  29.3252444  10.7211983  27.5433410  29.3102333  11.4985031  27.4386892
  34.0953124   8.0316586  26.3412596  33.5676142   8.1145330  25.6518305
  34.5548832   8.7734457  26.3377240  34.0854974   8.1537248  26.2387291
  25.9044440   7.9593987  35.3080806  25.2797510   7.9712379  34.7006759
  25.5690035   8.4354162  35.9572046  25.7629932   8.0312504  35.3137374
  26.0886189   6.3019105  21.3653491  25.7398993   6.9538830  21.8285040
  25.6082635   6.2876218  20.6377362  25.9656433   6.3962159  21.3264582
  22.6170116  16.0194447  36.7484570  22.0870040  15.3286886  36.7979545
  22.8895209  16.0104632  35.9197279  22.5794838  15.9161579  36.6331986
  33.6490206  16.6020149  25.4722253  34.3724405  17.0678262  25.3286826
  33.2090797  16.6693759  24.7219850  33.6905898  16.6803986  25.3407034
  32.0572658  14.5321961  34.4567240  31.6300266  13.9071680  34.0232676
  32.0497603  14.2496883  35.2826248  31.9931800  14.3974742  34.5147068
  25.1735185   9.5687134  37.5255674  25.3328672   8.8130459  37.9307396
  24.9928079  10.1178074  38.1796412  25.1700544   9.5380948  37.6818380
  17.8965958  12.6922211  34.1052918  17.7909407  12.6469055  33.2405002
  17.1466178  13.0375992  34.3867203  17.7701561  12.7363119  34.0190248
  26.6659690   4.1361534  34.0515519  26.7058062   4.6370741  34.7650226
  25.8409355   4.2271928  33.7821442  26.5499216   4.2243351  34.1166057
  28.0874054  10.6522044  36.3489418  27.2565983  10.8195862  36.1424666
  28.0325571  10.2757995  37.1338303  27.9563469  10.6211775  36.4337946
  26.4610097   8.9277636  26.8779535  26.6013059   9.4250100  27.5808177
  26.9592630   8.2263930  27.0193749  26.5551178   8.8979614  27.0031114
  26.4910320   9.7944747  24.2072112  27.1255399  10.3905172  24.1421574
  26.5735931   9.4948204  25.0217982  26.5966871   9.8385655  24.3175199
  28.0689303   5.7258722  24.1817554  28.3905144   5.2461805  23.5276817
  28.3316246   6.5358368  23.9908366  28.1555328   5.7748620  24.0573046
  31.2986276  16.7477596  37.7016370  30.7911367  17.3013443  38.1457001
  31.0012922  16.8085886  36.8835145  31.1791160  16.8383908  37.6464827
  22.9963308  11.9912587  27.4761658  23.5055537  12.5877095  27.8572964
  23.4697580  11.7238561  26.7938078  23.1406683  12.0398403  27.4316181
  33.9094056  20.6640854  25.6320314  33.1923366  20.4901716  25.1667551
  34.5600793  20.4293426  25.0995800  33.8995906  20.6036647  25.4849532
  36.4942027   9.5405443  29.3761619  35.8233217  10.0835145  29.2474684
  37.1881777  10.0100298  29.1343314  36.4970895   9.6903714  29.3217147
  30.5428761  21.6802155  34.6073377  30.3194415  20.9220984  34.9757404
  30.0538604  21.7100176  33.8853817  30.4372210  21.5724379  34.5550118
  25.3553839   8.6268846  30.3434839  24.6365829   9.0432979  30.6107702
  25.7266202   9.1923085  29.7926477  25.3045771   8.7718127  30.3017646
  29.1907218  21.9002613  32.0610462  28.7767616  21.2376743  31.6714303
  29.8754592  22.0480472  31.5406156  29.2305589  21.8243271  31.9266959
  32.5572512  21.0592698  32.8134078  32.1588795  21.1694968  32.0454899
  31.9423731  21.2674764  33.3960638  32.4071401  21.1066266  32.7865378
  31.1300414   7.6666846  25.6808218  30.5365253   7.9883842  25.1292785
  31.1675692   6.8207941  25.4729324  31.0474803   7.5891174  25.5690989
  34.0058230   7.6246350  29.1109968  33.7771923   7.6479052  28.2688327
  34.2656307   6.8003817  29.2304979  34.0104418   7.5062430  29.0035166
  27.0602993   6.1622897  30.4064164  27.5360359   6.5239976  29.7714345
  26.5591593   6.8179364  30.6864307  27.0568352   6.3117085  30.3540905
  20.0345238  10.8265264  36.6225920  19.4871958  10.1565910  36.7406788
  20.8237616  10.4595112  36.6869387  20.0697422  10.6730251  36.6494621
  29.1029646   8.3064096  23.7737548  29.4828611   8.3243726  22.9888663
  28.3622242   8.7518085  23.6528395  29.0498484   8.3745871  23.6401116
  18.7932208  10.0386072  33.7771943  18.6153969   9.5862681  34.5026859
  18.5051230  10.8412233  33.9610421  18.7245161  10.0908630  33.9115446
  34.4555789  11.2943789  33.0149334  34.9509454  10.5766784  32.9753354
  33.6455564  10.9914587  32.9003820  34.4099682  11.1441436  32.9923059
  29.9014400  15.1441603  25.1646338  29.0925723  14.8208276  25.1179647
  30.4089309  14.4374825  25.0974587  29.8564067  14.9922919  25.1476632
  20.5304677  12.5713796  30.8893702  19.6650197  12.5599486  30.7776473
  20.6303493  12.3844019  31.7364842  20.4178844  12.5419857  30.9982647
  26.1561687  22.3411694  34.4623808  26.4708246  23.1548083  34.4701590
  26.5655101  21.9561913  35.1305967  26.2629785  22.4040397  34.5627899
  33.1086207  17.7581741  32.0327620  33.5797385  18.4722004  32.2017605
  33.4446386  17.1580491  32.5687489  33.2281322  17.7753205  32.1359996
  29.0948817   4.5325625  26.4565179  29.9164511   4.7023938  26.2146874
  28.6318468   4.6872886  25.7331477  29.1479979   4.5807358  26.3136824
  23.4974707  16.2884803  34.1102416  24.1019565  16.2480637  33.4816237
  23.2902020  17.1355955  34.1406472  23.5563605  16.4072805  34.0218533
  33.3118480  18.5550748  35.3264654  34.1316853  18.4113714  35.5880949
  33.0312557  19.1796947  35.8681091  33.3915223  18.6261100  35.4452593
  18.7325990  15.2719420  33.9801339  18.6350268  14.4615692  34.2891396
  19.5154859  15.2511214  33.5947607  18.8342126  15.1486511  33.9688202
  32.1422755  30.8692647  30.7012798  31.9072939  30.0360300  30.5945067
  32.2808396  31.1497313  29.8873999  32.1278417  30.7876151  30.5655153
  34.4412842  23.0378378  33.5997106  33.8217874  22.4471025  33.4307121
  34.3396706  23.6289813  32.9661429  34.3350518  23.0382460  33.4802095
  38.1496051  30.0323557  25.1745333  37.5653266  30.5373588  25.5811197
  37.7466146  29.8065944  24.4341925  38.0035355  30.0731805  25.1250358
  37.9163556  18.2082605  27.4973791  38.6709524  18.5760922  27.2590841
  37.7391090  18.5822159  28.2652971  38.0018034  18.3180793  27.5758680
  36.2720620  20.6152924  24.1951904  36.0896194  20.8324805  23.3692897
  37.1346233  20.7291937  24.2510519  36.3725210  20.6642822  24.0806391
  35.8182647  23.8927096  22.7074377  35.1040825  23.6065276  23.1196810
  36.3026616  24.2323722  23.3480765  35.7842011  23.9008746  22.8630012
  27.7648058  25.6106185  30.2381249  27.8508309  25.2338053  31.0194779
  28.3923855  25.2366631  29.7601207  27.8704609  25.4991667  30.2826726
  37.0214626  19.0308808  30.0761975  36.1537052  19.1031408  30.1419585
  37.3089831  19.8330887  30.2649950  36.9354374  19.1602955  30.1136742
  36.6392568  31.2852697  28.0743782  37.3938536  31.6665736  28.2879244
  36.0463180  31.7363841  28.5290478  36.6629281  31.4081525  28.1726660
  34.9481978  22.5067067  27.5178852  34.6606774  22.1368338  26.7810799
  35.6352447  22.9761923  27.2562557  35.0070876  22.5214037  27.3693927
  37.7835650  26.3720016  28.9646256  38.5058302  26.5361174  28.5050062
  37.3043643  27.0929680  28.8585596  37.8199381  26.5018245  28.8811870
  32.5210173  23.2848280  28.3664133  32.6226309  24.0874441  28.6945108
  33.3166060  23.0835616  28.0687213  32.6538079  23.3734179  28.3699488
  36.2252966  28.7206540  29.2382759  36.3817585  28.6553343  30.0938751
  36.5653559  29.4955092  29.0261439  36.2986201  28.8255738  29.3337353
  32.7987228  25.9041490  29.5543526  33.1786193  26.3226035  28.8903794
  32.2242592  26.4854946  29.8612370  32.7698553  26.0519349  29.5020267
  33.9193596  25.0921432  32.0143772  33.5250294  25.1664444  31.2393881
  33.3633713  25.4779378  32.5652133  33.7796409  25.1603206  31.9811431
  37.0618772  21.8204413  21.3653491  36.7131577  22.4724138  21.8285040
  36.5815218  21.8061526  20.6377362  36.9389016  21.9147467  21.3264582
  37.6392274  19.6546842  34.0515519  37.6790645  20.1556049  34.7650226
  36.8141939  19.7457236  33.7821442  37.5231800  19.7428658  34.1166057
  37.4342681  24.4462944  26.8779535  37.5745642  24.9435408  27.5808177
  37.9325214  23.7449238  27.0193749  37.5283762  24.4164922  27.0031114
  37.4642903  25.3130055  24.2072112  38.0987983  25.9090480  24.1421574
  37.5468514  25.0133512  25.0217982  37.5699454  25.3570963  24.3175199
  33.9695891  27.5097895  27.4761658  34.4788121  28.1062403  27.8572964
  34.4430164  27.2423869  26.7938078  34.1139267  27.5583711  27.4316181
  36.3286423  24.1454154  30.3434839  35.6098412  24.5618286  30.6107702
  36.6998785  24.7108393  29.7926477  36.2778355  24.2903435  30.3017646
  38.0335577  21.6808205  30.4064164  38.5092943  22.0425284  29.7714345
  37.5324176  22.3364672  30.6864307  38.0300936  21.8302393  30.3540905
  29.7664791  25.5571380  33.7771943  29.5886552  25.1047989  34.5026859
  29.4783813  26.3597541  33.9610421  29.6977744  25.6093938  33.9115446
  31.5037261  28.0899104  30.8893702  30.6382780  28.0784794  30.7776473
  31.6036077  27.9029327  31.7364842  31.3911428  28.0605165  30.9982647
  37.0623779  11.7732100  15.7437739  36.3106678  11.3947638  15.5153784
  37.5109790  11.8050533  14.9956549  37.0173445  11.7217707  15.5995241
  31.8373579   7.8070779  17.6352845  31.6023763   6.9738431  17.5285114
  31.9759220   8.0875444  16.8214046  31.8229241   7.7254282  17.4995200
  37.8446875   6.9701688  12.1085380  37.2604090   7.4751720  12.5151243
  37.4416970   6.7444075  11.3681971  37.6986179   7.0109936  12.0590405
  33.3990904  12.6856449  18.9109051  32.9158482  13.4106939  18.8868635
  34.2114222  12.9832579  19.0219209  33.4481651  12.8358803  18.9236330
  36.2535101  13.2012625  19.0629331  36.9555680  12.6864614  19.1202087
  36.1732584  13.5286777  19.8676206  36.3458861  13.1726851  19.1902123
  35.5785876   9.3918977  18.5714939  36.4174776   9.6241910  18.6188701
  35.6097645   8.5223289  18.5021974  35.7067594   9.2975924  18.5679584
  36.2038579   9.8119852  22.8728244  36.7436804   9.6690983  23.5431617
  35.5208526  10.2116603  23.2412271  36.1830733   9.8499523  23.0262666
  31.6075724   6.0320143  23.0262666  31.3414140   5.2159260  23.1853656
  31.6214289   6.0773299  22.1558182  31.5700447   5.9177048  22.9216148
  32.0169138   6.8178923  20.3074410  31.8344711   6.7925809  19.4546702
  32.7518807   7.2877860  20.3463319  32.0983202   6.8840285  20.1872329
  33.0474840  11.3176049  21.2252656  33.0878986  11.5890900  20.3972436
  33.6069364  11.8417957  21.6410444  33.1358186  11.4351804  21.1644544
  34.4989427   9.9017998  16.0506582  33.6727544  10.1479735  15.9240861
  34.5601418   9.8230079  16.9168640  34.3863593   9.9262947  16.1595526
  37.2194171  14.4962261  16.8185762  36.9994467  14.2059616  17.6112429
  36.9988693  13.8377216  16.2903674  37.1541765  14.3561969  16.8574670
  36.1311118   6.5835577  19.0841463  35.8424367   5.9573049  19.6187191
  36.9994466   6.5255865  19.1506144  36.2171370   6.4823122  19.1732418
  36.3343392   8.2230828  15.0083828  37.0889360   8.6043867  15.2219291
  35.7414004   8.6741972  15.4630525  36.3580105   8.3459656  15.1066707
  37.6541618   9.3939390  20.3823944  37.1322372   9.5339681  21.0675808
  38.0415639   8.6350054  20.5726061  37.6345319   9.3024914  20.5125020
  35.1294091   5.7156219  25.0040443  35.6415188   5.9940472  24.3549203
  34.8430433   6.4545513  25.3703256  35.1628954   5.8658573  24.9630321
  35.9203790   5.6584671  16.1722806  36.0768409   5.5931474  17.0278798
  36.2604383   6.4333223  15.9601486  35.9937025   5.7633869  16.2677400
  38.0103869   9.5511146  25.0768763  37.9024224   9.5613208  25.9430821
  38.2199651  10.3765926  24.8873717  38.0253980   9.6752221  25.1772855
  36.0277661   6.8023788  22.5390701  35.4365594   7.4433287  22.5093716
  36.7898685   7.2261406  22.5122000  36.0525922   6.9599627  22.5305848
  33.2853523   8.4757886  23.6824617  32.7553448   7.7850325  23.7319592
  33.5578616   8.4668071  22.8537325  33.2478245   8.3725018  23.5672033
  28.5649365   5.1485650  21.0392965  28.4592814   5.1032494  20.1745049
  27.8149585   5.4939431  21.3207250  28.4384968   5.1926558  20.9530295
  31.1988085   5.0277235  17.8233749  30.3333604   5.0162925  17.7116520
  31.2986901   4.8407458  18.6704888  31.0862252   4.9983296  17.9322694
  36.8245095  14.7975134  21.3963855  37.1391654  15.6111522  21.4041636
  37.2338508  14.4125352  22.0646014  36.9313193  14.8603836  21.4967946
  34.1658115   8.7448242  21.0442463  34.7702972   8.7044076  20.4156284
  33.9585428   9.5919394  21.0746519  34.2247012   8.8636245  20.9558580
  29.4009397   7.7282860  20.9141386  29.3033675   6.9179131  21.2231443
  30.1838267   7.7074653  20.5287654  29.5025534   7.6049950  20.9028249
   6.2767329  10.4196947  28.0172890   6.2461333  11.2741584  28.1891160
   6.8748678  10.1192240  28.5759034   6.3604487  10.5013444  28.1247693
   4.0983903  12.9949249  26.2891200   3.9823429  13.7456935  26.7183338
   4.8939790  12.7373202  26.5387287   4.1988493  13.0684096  26.3895292
   1.8213209  13.7256893  24.6005490   1.7364504  14.5817860  24.7455059
   2.3097592  13.4501217  25.2687649   1.8802106  13.8114215  24.7207572
   2.7531642  10.3441688  26.1003225   2.2243114  10.5601321  26.7600531
   3.2756662  11.0377826  26.0204195   2.7520095  10.4784824  26.1858824
   8.2079695  15.9187992  31.4736270   7.3777398  16.1298636  31.6369686
   8.1588947  15.0925047  31.1978553   8.0786431  15.8277598  31.4573635
   2.4263839  12.7614069  30.8598582   3.1821354  13.1945583  30.8987491
   2.5326164  12.1118839  31.4333218   2.5534010  12.7291553  30.9496608
   5.4644010  16.5887346  31.6100985   5.0279242  16.5924089  32.3659957
   5.1306926  17.2692845  31.1780563   5.3506630  16.6899802  31.6581818
   8.5988357  13.3068266  30.5020623   9.2604791  12.7458935  30.4016531
   7.9579769  12.8120297  30.8273314   8.6017224  13.1504675  30.5352963
   4.8853187  14.3233649  30.2432611   5.1208776  14.4678848  29.4159462
   5.0342751  15.0876057  30.6364125   4.9418991  14.4572703  30.1796215
   6.7143644  13.1635315  28.0802215   7.0451861  13.6962955  27.4742310
   7.2876732  13.2174202  28.7364166   6.8477323  13.2504883  28.0879997
   1.9275533  11.0100217  28.7625795   2.0222388  11.7489511  29.2165421
   1.3034377  10.5817693  29.1960360   1.8484563  11.0561538  28.8933943
   2.1798554  12.8548957  21.9962747   2.0978717  12.9251144  22.8617734
   2.8178275  13.4178701  21.8046488   2.2618392  12.9487928  22.0952697
   7.8222996   8.4045811  29.5842377   7.5659560   7.5925753  29.3940260
   8.6652309   8.4123379  29.3572564   7.9089021   8.2857809  29.5227194
  12.2286368  11.9832857  34.8097568  12.1610868  12.0028816  33.9400155
  12.2142030  12.8263184  35.0353239  12.2165124  12.1106592  34.7150045
  10.0144985  10.7577243  33.0844163  10.5652906  10.1245312  33.3241255
   9.9989100  11.2892636  33.7759667  10.0930181  10.7426191  33.2223021
   4.1786420  15.4599281  27.7372747   4.7444453  16.1192491  27.6531290
   3.5314324  15.8048979  28.2089149   4.1665177  15.6081222  27.7945503
   6.1121880  12.1233148  31.3569544   6.0255855  12.2788574  32.2104322
   5.6572360  12.7671224  30.9828949   6.0325137  12.2408903  31.4276650
   3.8795745  16.1527255  33.7681884   3.7410105  16.8508301  34.2730627
   3.0995743  15.9975911  33.4118066   3.7438972  16.2327421  33.7908158
   5.3749118  15.5105509  24.5298383   4.9955927  14.7242647  24.5227673
   4.7115364  16.0592366  24.3870028   5.2207593  15.4750333  24.5079180
   3.6209217  17.7551000  24.8650069   3.7029054  18.5617986  24.5411520
   4.1058959  17.7746959  25.5890843   3.7046375  17.8771662  24.9236968
   1.8161247  20.1200823  29.3318004   1.4241039  19.8167539  28.6140871
   1.9714319  20.9569913  29.1422958   1.7814837  20.1984660  29.1974501
   1.9800922  16.6850812  29.2724035   1.6215577  16.8565455  30.0488067
   1.4939633  17.1464018  28.7152033   1.8559619  16.7789783  29.3049304
   2.5851552  19.5236316  32.7648039   2.3871241  20.0127131  32.0704250
   1.9639263  19.7277558  33.3432172   2.4639117  19.6252854  32.7471262
   1.5620906   7.7583241  26.0677956   1.0343925   7.8411985  25.3783665
   2.0216614   8.5001112  26.0642601   1.5522757   7.8803903  25.9652651
   1.1157989  16.3286804  25.1987613   1.8392188  16.7944917  25.0552186
   0.6758580  16.3960414  24.4485210   1.1573681  16.4070641  25.0672395
   3.9609810   9.2672098  29.1026979   3.2900999   9.8101800  28.9740045
   4.6549560   9.7366953  28.8608674   3.9638677   9.4170369  29.0482507
   7.7582137  15.3611320  25.9242529   8.1415743  16.1102676  26.1540626
   6.9626250  15.6077140  25.6654519   7.6975919  15.5081014  25.9200103
  17.2499913  25.9382255  28.0172890  17.2193917  26.7926892  28.1891160
  17.8481261  25.6377548  28.5759034  17.3337070  26.0198752  28.1247693
  10.4499597  25.0257906  32.7725821   9.5937493  25.1866404  32.8234938
  10.4967251  24.1549970  32.7930882  10.3298709  24.9208708  32.7831887
  10.2865697  34.9845993  23.9648599   9.9517065  35.6622915  23.5292822
  10.7992567  34.5951305  23.3765471  10.3131278  35.0270572  23.8135391
  13.2951418  27.0849950  35.4157472  13.8407378  27.7635036  35.4751442
  13.2368295  26.9437411  34.5559054  13.3667333  27.1641952  35.2969533
   6.4125493  34.5739016  30.8025825   6.5135856  33.7639370  31.1122953
   5.8167239  34.4795962  30.1725503   6.3398032  34.4404044  30.7552063
  15.0716487  28.5134557  26.2891200  14.9556013  29.2642243  26.7183338
  15.8672374  28.2558510  26.5387287  15.1721077  28.5869404  26.3895292
   1.9080625  22.7645033  33.3262466   1.2885657  22.1737680  33.1572481
   1.8064489  23.3556468  32.6926789   1.8018301  22.7649116  33.2067456
   6.9546813  32.5028580  27.5760543   7.2762654  33.0433787  26.9721851
   7.6018909  31.9325351  27.7082832   7.0972868  32.4987755  27.5067578
   9.0048521  24.5044575  27.6594929   9.7028685  24.6832702  28.1516393
   9.3200853  23.9814914  27.0365319   9.1543858  24.4538347  27.6396939
   9.1936456  30.8915020  27.6474721   9.6330092  30.2832120  28.0929494
   9.0441119  30.5122393  26.8760186   9.2357922  30.7453491  27.5993888
   9.1994190  32.3313938  34.5000439   9.4817433  31.5365343  34.2787195
   9.9280351  32.8094525  34.5205500   9.3483754  32.2848535  34.4703454
   7.1775384  19.8736972  31.7416204   6.8478714  20.3248115  31.0719903
   6.5020386  19.7953135  32.2889210   7.0285821  19.9288107  31.7239427
  12.7945793  29.2442201  24.6005490  12.7097088  30.1003168  24.7455059
  13.2830176  28.9686525  25.2687649  12.8534690  29.3299523  24.7207572
  14.3851792  15.8622494  29.9865815  14.0705233  16.5525973  30.4186237
  13.8678734  15.8067277  29.2851315  14.2616262  15.9557383  29.9462764
  13.7264226  25.8626995  26.1003225  13.1975697  26.0786629  26.7600531
  14.2489246  26.5563134  26.0204195  13.7252679  25.9970132  26.1858824
  19.1812279  31.4373300  31.4736270  18.3509982  31.6483944  31.6369686
  19.1321531  30.6110354  31.1978553  19.0519014  31.3462906  31.4573635
   5.6163834  29.7590212  24.9010693   5.0321049  30.2640244  25.3076557
   5.2133929  29.5332599  24.1607285   5.4703137  29.7998461  24.8515718
  10.0741048  26.0055864  23.3779614  10.3137052  26.2133848  22.5654957
  10.3956889  25.2013373  23.4868558  10.1578206  25.9169966  23.2740167
   5.3831338  17.9349260  27.2239152   6.1377306  18.3027577  26.9856202
   5.2058873  18.3088814  27.9918331   5.4685817  18.0447448  27.3024040
  18.6766237  24.0843701  35.2686691  17.8394658  24.1545888  35.5034285
  18.6454468  24.0868195  34.3960993  18.5484519  24.0953928  35.1746239
   3.7388403  20.3419579  23.9217265   3.5563976  20.5591460  23.0958257
   4.6014016  20.4558592  23.9775879   3.8392992  20.3909477  23.8071752
   9.4188122  17.3445990  26.9566288  10.1474283  17.1661945  26.5104445
   9.5083015  18.1864069  27.1673467   9.5394784  17.4429868  26.9219806
  13.3996423  28.2799377  30.8598582  14.1553938  28.7130891  30.8987491
  13.5058747  27.6304147  31.4333218  13.5266593  28.2476861  30.9496608
  16.4376594  32.1072654  31.6100985  16.0011826  32.1109397  32.3659957
  16.1039509  32.7878153  31.1780563  16.3239214  32.2085110  31.6581818
  16.3574077  19.1486482  33.8530413  16.9999985  19.2184587  34.4392329
  16.6097098  18.4815705  33.3509955  16.4896209  19.0612831  33.8657693
   3.2850430  23.6193752  22.4339738   2.5708607  23.3331931  22.8462170
   3.7694399  23.9590377  23.0746125   3.2509793  23.6275401  22.5895373
  19.5720940  28.8253574  30.5020623  20.2337374  28.2644243  30.4016531
  18.9312352  28.3305605  30.8273314  19.5749808  28.6689983  30.5352963
  10.4597748  32.1223706  22.8101546  10.8748896  31.7908729  22.1186042
   9.6289678  31.8892608  22.6821683  10.3985757  32.0394962  22.6892393
  15.8585771  29.8418957  30.2432611  16.0941360  29.9864156  29.4159462
  16.0075335  30.6061365  30.6364125  15.9151574  29.9758011  30.1796215
  17.6876228  28.6820623  28.0802215  18.0184445  29.2148263  27.4742310
  18.2609316  28.7359510  28.7364166  17.8209907  28.7690191  28.0879997
  12.9008117  26.5285525  28.7625795  12.9954971  27.2674819  29.2165421
  12.2766960  26.1003001  29.1960360  12.8217147  26.5746846  28.8933943
  13.1531138  28.3734265  21.9962747  13.0711301  28.4436452  22.8617734
  13.7910859  28.9364009  21.8046488  13.2350975  28.4673236  22.0952697
   6.5124309  28.1395003  31.4637274   6.2543553  27.3066738  31.4368573
   6.5672792  28.3652616  30.6229774   6.4824087  28.0492774  31.3357410
  11.5925359  20.2423454  31.5641366  10.8881686  19.7532639  31.7225286
  11.6410334  20.2545928  30.6929811  11.4955411  20.1713102  31.4580706
   5.4859021  25.6932765  31.9502168   4.9108613  25.8524934  32.5866129
   5.1094698  25.0568175  31.4870619   5.3461834  25.6230578  31.9756727
   9.1532310  24.1656115  36.8094547   8.7646743  23.7410332  36.1546738
   8.4887008  24.4138264  37.3171573   8.9979238  24.1394836  36.7882415
  18.7955579  23.9231119  29.5842377  18.5392144  23.1111061  29.3940260
  19.6384893  23.9308687  29.3572564  18.8821605  23.8043117  29.5227194
  12.9758672  17.8630743  34.3218531  13.3569183  17.1808915  34.7086405
  12.1721956  17.5740346  34.1394196  12.9135133  17.7197792  34.3522587
  10.2571248  28.3954719  25.0071354  11.0711887  28.6869612  24.8954125
  10.1930389  27.7414582  24.4329647  10.3673987  28.3419914  24.9060191
   6.1279156  31.8676237  30.1343666   6.7653103  31.6287984  30.6795459
   6.5534228  32.0713396  29.3996827   6.2855323  31.8627247  30.1060823
   6.7681972  27.0878527  24.4718555   7.1527124  26.8686233  25.2235100
   6.5193592  27.9141472  24.6019632   6.7884044  27.1776673  24.6019632
  17.5017159  30.8625164  35.4829224  17.1962976  31.5953221  35.8442540
  16.7823375  30.4563094  35.2022010  17.3504501  30.9106897  35.4942361
   8.5100628  32.3448659  31.8137452   8.5839637  32.1823831  32.6679302
   9.3270135  32.5338849  31.5697934   8.6416987  32.3485402  31.9035478
  23.2018951  27.5018165  34.8097568  23.1343451  27.5214124  33.9400155
  23.1874614  28.3448492  35.0353239  23.1897708  27.6291900  34.7150045
   4.4882409  18.7575463  29.8027336   3.6204834  18.8298063  29.8684945
   4.7757613  19.5597542  29.9915311   4.4022157  18.8869610  29.8402102
  13.6115298  18.9053323  38.1338658  14.3568890  18.7163133  37.7202083
  13.1952602  19.4311561  37.5752514  13.6600272  18.9555468  37.9903231
  20.9877569  26.2762551  33.0844163  21.5385490  25.6430620  33.3241255
  20.9721684  26.8077944  33.7759667  21.0662765  26.2611499  33.2223021
  14.6905975  24.5158885  32.1948759  14.3470741  23.7949220  32.5456008
  14.7899017  24.3072736  31.3527117  14.6548018  24.3783088  32.1220439
   4.1060350  31.0119352  27.8009142   4.8606318  31.3932392  28.0144605
   3.5130963  31.4630496  28.2555839   4.1297064  31.1348180  27.8992020
  15.1519004  30.9784589  27.7372747  15.7177036  31.6377799  27.6531290
  14.5046907  31.3234287  28.2089149  15.1397760  31.1266530  27.7945503
   2.4149761  22.2333723  27.2444212   2.1274557  21.8634993  26.5076159
   3.1020229  22.7028578  26.9827917   2.4738658  22.2480692  27.0959288
  11.6225582  33.9223373  27.1609826  11.3812258  33.1891234  26.7536891
  11.8026915  34.4710230  26.5076159  11.6133206  33.8945764  27.0040049
   6.8524903  29.2131933  28.5730748   6.6567685  29.8206667  27.9791051
   7.0759248  28.5199877  28.0922422   6.8559544  29.2009458  28.4146829
   5.2503433  26.0986671  28.6911617   5.9726084  26.2627829  28.2315423
   4.7711425  26.8196336  28.5850957   5.2867163  26.2284900  28.6077231
  13.2096940  22.4350470  34.0708302  12.3708041  22.4611748  33.8346565
  13.2801307  23.0821205  34.6513648  13.0965334  22.5346595  34.1217419
  11.6566218  19.3335847  28.8035918  12.3592571  19.1343595  28.3255876
  11.3910407  18.5611789  29.1104761  11.7212851  19.1898813  28.7781359
  17.0854464  27.6418456  31.3569544  16.9988438  27.7973882  32.2104322
  16.6304944  28.2856532  30.9828949  17.0057721  27.7594211  31.4276650
  10.9580280  24.9629203  29.9795103  10.7114994  24.8824954  30.8131892
  11.2865403  24.1782671  29.7857631  10.9701524  24.8355469  30.0742626
  14.8528329  31.6712563  33.7681884  14.7142688  32.3693609  34.2730627
  14.0728327  31.5161219  33.4118066  14.7171556  31.7512729  33.7908158
  13.1906414  27.9708938  40.0204266  13.1854452  27.0988755  40.0246692
  13.8967408  28.1697107  39.5473722  13.2951418  27.8712812  39.9511301
   9.0897225  26.8976090  37.1743218   8.3420539  27.0907105  36.7691496
   9.2438750  26.0721310  36.9367339   9.0019652  26.8041202  37.0788624
  16.3481702  31.0290817  24.5298383  15.9688510  30.2427954  24.5227673
  15.6847947  31.5777674  24.3870028  16.1940176  30.9935641  24.5079180
   9.3299002  20.7926641  38.0638621   9.7871616  21.5250615  38.1911414
   9.4055330  20.3693106  38.8225877   9.4089972  20.8383879  38.1939698
  13.8026328  13.9716516  31.9332464  13.9209896  14.4292980  31.1999767
  13.6288503  13.1661778  31.6468682  13.7945499  13.9210288  31.7833398
   9.1728610  34.5804336  28.3687210   9.9378501  34.3113979  28.0469874
   9.0706700  34.0954346  29.0857273   9.2710105  34.4693900  28.4267037
   7.2081380  22.7828745  34.9080445   6.4177454  22.6020205  35.2297781
   7.6042002  22.0055698  34.8910740   7.1498256  22.6416206  34.9532994
  11.6947270  31.6116519  20.3487159  12.4620255  31.6716644  19.9393011
  11.2478579  31.0396961  19.8643478  11.7420698  31.5353095  20.2164869
  12.5925066  30.4171175  32.6339891  11.9170068  30.1856407  33.1353278
  12.6017442  29.8092358  32.0081996  12.4943570  30.2930100  32.6156044
  14.5941800  33.2736308  24.8650069  14.6761638  34.0803294  24.5411520
  15.0791543  33.2932267  25.5890843  14.6778958  33.3956970  24.9236968
   8.4038304  27.9521143  33.5320147   7.9800553  28.1525643  32.7959166
   8.2283159  27.1049991  33.6444447   8.3149184  27.8569925  33.4393837
   3.6920749  28.4473195  28.9648120   3.8485368  28.3819998  29.8204112
   4.0321342  29.2221747  28.7526799   3.7653984  28.5522393  29.0602714
  10.2299893  27.8231078  27.8341483  10.7715439  27.3201460  28.2980104
  10.5446452  27.7696273  27.0230968  10.3564290  27.7410499  27.7825295
   8.3986343  33.2148430  25.1181511   8.4679163  32.3562968  25.2574511
   9.1774798  33.4320311  24.7900536   8.5239193  33.1201294  25.0898668
  11.3789163  22.7167383  37.8863783  11.5931132  22.0778297  37.3327137
  10.7623062  23.1613207  37.4571645  11.3194492  22.6877527  37.7414215
  12.7893831  35.6386131  29.3318004  12.3973622  35.3352846  28.6140871
  12.9446903  36.4755221  29.1422958  12.7547420  35.7169968  29.1974501
  13.5428251  24.3256448  38.8247091  12.7304932  24.0182339  38.9060263
  14.0018185  23.8455448  39.3889803  13.4908635  24.2092941  38.9201685
  12.9533505  32.2036120  29.2724035  12.5948160  32.3750763  30.0488067
  12.4672216  32.6649326  28.7152033  12.8292202  32.2975091  29.3049304
  10.7703891  15.8267319  32.8751126   9.8997449  15.8006040  32.8284436
  11.0244233  15.6544511  32.0576972  10.6797451  15.7977462  32.7471263
   7.7421871  27.8835286  21.8124269   8.0314396  28.6600168  22.0867844
   7.8293670  27.3724017  22.5138769   7.7976127  27.9227204  21.9566767
   7.7953032  17.8373547  34.3324597   7.2791520  17.1453739  34.4576176
   7.2346961  18.5044324  34.2787195   7.6359545  17.8336805  34.3430663
   9.8645265  18.3766507  36.1617449   9.4777018  18.4015539  36.9430979
   9.3778203  17.8108186  35.7091966   9.7357774  18.2962258  36.2105353
  15.8395245  24.9429162  34.7857151  15.4122853  24.8555511  34.0305251
  15.2021298  25.0506938  35.3711995  15.6824852  24.9461822  34.7602593
  13.0226326  17.7969381  31.4213011  13.2275919  17.7291689  32.2670008
  12.6952750  18.6028202  31.3534188  13.0041573  17.9055322  31.5372666
   7.7202477  25.1249949  33.1621979   7.4165614  24.5705938  33.7632387
   7.0181897  25.3042159  32.6750013   7.5718686  25.0694732  33.1791685
   6.7768574  22.4350469  27.7266681   7.0528308  21.7169382  27.3144248
   7.3767243  23.0335389  27.5187787   6.9061838  22.4170840  27.6347442
  16.2760013  18.3501145  30.9015776  15.6634327  18.8371548  31.2869508
  16.3724188  17.6744636  31.4453428  16.1997911  18.3219454  31.0394635
  10.2779094  20.1063987  26.0013276  10.7322841  20.2774547  26.7261120
  10.7519140  19.4932097  25.6011051  10.4147414  20.0414872  26.0487037
   4.1955242  20.7514310  35.9984032   4.6556724  20.8253240  36.7359156
   4.2411349  21.5495564  35.6483853   4.2705798  20.8808457  36.0556788
  13.5584136  35.0421624  32.7648039  13.3603825  35.5312438  32.0704250
  12.9371847  35.2462866  33.3432172  13.4371700  35.1438162  32.7471262
   7.6192114  26.8106521  27.1058283   8.3634159  27.1980797  27.3441233
   7.7652810  25.9663946  27.2698771   7.7502699  26.7436994  27.1652253
   9.5371690  18.6056780  32.1390144   8.6907735  18.7779588  32.0131494
   9.5342822  17.8006123  32.4755973   9.4118840  18.5117809  32.1701271
  10.6069990  22.3831994  33.0052202  10.1329944  21.8573756  33.5157513
  10.9788126  21.8361467  32.4367064  10.5919879  22.2247991  32.9967350
  16.8706721  27.4434370  34.4158983  16.6304944  26.6040785  34.4201409
  17.3498728  27.5234537  35.1399756  16.9058904  27.3315770  34.5233785
  12.5353490  23.2768549  26.0677956  12.0076508  23.3597293  25.3783665
  12.9949198  24.0186420  26.0642601  12.5255340  23.3989211  25.9652651
  18.8711908  24.2235827  32.3688242  18.6321678  24.1831661  31.5309027
  19.0345809  25.0706979  32.4953963  18.8602211  24.3427912  32.2641724
  15.4757938  28.6085776  38.2993287  16.1992137  28.1558303  38.1204307
  15.2107900  28.8890442  37.5165615  15.5439211  28.5836745  38.1572002
   4.5286555  21.5471068  21.0918851   4.1799359  22.1990794  21.5550401
   4.0483001  21.5328181  20.3642722   4.4056799  21.6414122  21.0529943
  12.0890572  31.8472112  25.1987613  12.8124771  32.3130225  25.0552186
  11.6491163  31.9145722  24.4485210  12.1306264  31.9255949  25.0672395
  11.2576727  28.7069655  36.4488302  10.6433720  28.1627705  36.7436937
  11.7744012  28.1933891  35.9694118  11.2432390  28.5506064  36.4212531
  10.4973024  29.7773925  34.1832601  10.0700633  29.1523643  33.7498036
  10.4897969  29.4948846  35.0091608  10.4332166  29.6426705  34.2412428
  11.5555855  16.9800333  37.8071824  11.0596416  17.1764007  37.1163391
  12.3124917  17.3793001  37.6360626  11.5942679  17.0678067  37.6791961
   8.8258734  20.6542679  34.3975135   8.8501221  20.1202791  33.7087915
   9.0770208  20.1459988  35.0600725   8.8668653  20.5003583  34.3939779
   5.1060056  19.3813497  33.7780879   5.1458428  19.8822704  34.4915587
   4.2809721  19.4723891  33.5086802   4.9899582  19.4695314  33.8431417
   4.9010464  24.1729599  26.6044896   5.0413425  24.6702063  27.3073537
   5.3992996  23.4715893  26.7459109   4.9951545  24.1431578  26.7296475
   4.9310686  25.0396710  23.9337473   5.5655765  25.6357135  23.8686934
   5.0136297  24.7400167  24.7483343   5.0367237  25.0837618  24.0440559
  17.9093252  27.5712187  36.8023837  18.5011092  28.2109438  36.8342035
  18.3452246  26.8735224  37.0915904  18.0611683  27.5630537  36.8504669
   6.5089669  20.9710685  23.9082915   6.8305510  20.4913768  23.2542177
   6.7716613  21.7810331  23.7173726   6.5955694  21.0200583  23.7838407
  11.9048824  20.3582879  36.2706394  12.3303895  19.9055406  35.6589920
  11.2905817  19.8042950  36.5471181  11.8777469  20.2096855  36.2211419
   1.4363674  27.2364551  27.2027019   1.9455903  27.8329058  27.5838324
   1.9097946  26.9690524  26.5203438   1.5807050  27.2850366  27.1581541
  12.3494422  35.9092817  25.3585674  11.6323732  35.7353679  24.8932912
  13.0001160  35.6745390  24.8261160  12.3396272  35.8488610  25.2114892
  10.3443047  16.8297979  29.6796971   9.7011365  16.6795625  30.2482109
  10.0042454  16.5840324  28.9146075  10.1988124  16.7710101  29.6499986
  14.9342393  24.7857406  29.1026979  14.2633583  25.3287108  28.9740045
  15.6282143  25.2552261  28.8608674  14.9371261  24.9355677  29.0482507
  15.0970521  21.2413289  32.0117353  15.4498131  20.8143012  32.6863151
  14.2385322  21.1564133  32.1418429  15.0219965  21.1658030  32.1312363
   3.7954206  23.8720809  30.0700199   3.0766195  24.2884942  30.3373063
   4.1666568  24.4375048  29.5191837   3.7446137  24.0170091  30.0283006
  13.0953786  24.5048658  35.9602195  13.0751714  24.3231953  36.8136974
  13.1432987  25.3760677  35.9361778  13.0988427  24.6065196  36.0825490
   9.5700780  22.9118809  25.4073579   8.9765619  23.2335805  24.8558146
   9.6076058  22.0659904  25.1994685   9.4875169  22.8343137  25.2956350
  16.5294581  16.3631701  32.9401665  16.0225445  15.6560841  32.8722843
  17.3262014  16.0324890  33.0702742  16.5721820  16.2104853  32.9500660
  12.4458597  22.8698313  28.8375329  12.2172290  22.8931015  27.9953687
  12.7056673  22.0455780  28.9570339  12.4504785  22.7514393  28.7300526
   5.5003359  21.4074860  30.1329524   5.9760725  21.7691940  29.4979706
   4.9991959  22.0631327  30.4129667   5.4968718  21.5569049  30.0806265
  18.7314721  30.8796628  25.9242529  19.1148326  31.6287984  26.1540626
  17.9358834  31.1262448  25.6654519  18.6708503  31.0266322  25.9200103
  10.6046895  22.6457031  40.8802685  11.1618326  22.4170841  40.2481150
  10.2807960  23.4062697  40.6037897  10.6393306  22.7240868  40.7459182
   7.5430012  23.5516060  23.5002908   7.9228977  23.5695689  22.7154023
   6.8022608  23.9970048  23.3793756   7.4898850  23.6197834  23.3666477
  15.1715303  21.8598251  29.0878487  15.1709529  21.7046907  29.9462763
  14.9671483  22.7061238  29.0319873  15.1415081  21.9618872  29.2066426
  12.8956155  26.5395753  32.7414694  13.3909820  25.8218748  32.7018714
  12.0855931  26.2366550  32.6269181  12.8500048  26.3893399  32.7188420
   8.3414766  30.3893566  24.8911698   7.5326089  30.0660239  24.8445008
   8.8489675  29.6826788  24.8239947   8.2964433  30.2374882  24.8741993
  14.9607974  29.2899440  35.4291823  15.3863045  28.7673862  34.8762248
  14.5964894  29.8880277  34.9080446  14.9694576  29.3009667  35.2700832
  11.5486573  33.0033704  31.7592980  12.0197751  33.7173967  31.9282965
  11.8846752  32.4032454  32.2952850  11.6681688  33.0205169  31.8625356
  11.5388423  14.6991501  35.3132168  10.7334387  14.5889231  35.6300007
  11.4095159  14.8003957  34.4562034  11.4008556  14.6975171  35.2340209
  14.9954384  20.8636993  35.9071865  14.4117373  21.3646199  35.4949433
  15.3158678  20.3566549  35.2736188  14.9567559  20.8628828  35.7530372
   7.5349183  19.7777588  26.1830540   8.3564877  19.9475901  25.9412235
   7.0718834  19.9324849  25.4596838   7.5880345  19.8259321  26.0402184
  18.1507968  35.3922280  31.7416204  17.8211298  35.8433423  31.0719903
  17.4752970  35.3138443  32.2889210  18.0018404  35.4473415  31.7239427
  25.3584376  31.3807802  29.9865815  25.0437817  32.0711281  30.4186237
  24.8411317  31.3252585  29.2851315  25.2348846  31.4742691  29.9462764
  16.3563922  33.4534568  27.2239152  17.1109890  33.8212885  26.9856202
  16.1791456  33.8274122  27.9918331  16.4418400  33.5632756  27.3024040
  14.7120987  35.8604887  23.9217265  14.5296560  36.0776768  23.0958257
  15.5746600  35.9743900  23.9775879  14.8125576  35.9094785  23.8071752
  20.3920706  32.8631298  26.9566288  21.1206866  32.6847253  26.5104445
  20.4815599  33.7049377  27.1673467  20.5127368  32.9615176  26.9219806
  22.5657943  35.7608762  31.5641366  21.8614270  35.2717947  31.7225286
  22.6142917  35.7731236  30.6929811  22.4687994  35.6898410  31.4580706
  15.4614992  34.2760771  29.8027336  14.5937418  34.3483371  29.8684945
  15.7490197  35.0782850  29.9915311  15.3754741  34.4054918  29.8402102
  22.6298802  34.8521154  28.8035918  23.3325155  34.6528903  28.3255876
  22.3642991  34.0797097  29.1104761  22.6945434  34.7084120  28.7781359
  24.7758911  29.4901824  31.9332464  24.8942479  29.9478288  31.1999767
  24.6021087  28.6847085  31.6468682  24.7678082  29.4395596  31.7833398
  21.7436475  31.3452627  32.8751126  20.8730033  31.3191348  32.8284436
  21.9976816  31.1729819  32.0576972  21.6530035  31.3162770  32.7471263
  18.7685615  33.3558855  34.3324597  18.2524104  32.6639046  34.4576176
  18.2079544  34.0229632  34.2787195  18.6092129  33.3522113  34.3430663
  23.9958909  33.3154689  31.4213011  24.2008502  33.2476997  32.2670008
  23.6685333  34.1213510  31.3534188  23.9774157  33.4240629  31.5372666
  17.7501157  37.9535777  27.7266681  18.0260892  37.2354690  27.3144248
  18.3499827  38.5520697  27.5187787  17.8794422  37.9356148  27.6347442
  27.2492597  33.8686453  30.9015776  26.6366910  34.3556855  31.2869508
  27.3456772  33.1929944  31.4453428  27.1730494  33.8404762  31.0394635
  21.2511678  35.6249294  26.0013276  21.7055424  35.7959855  26.7261120
  21.7251724  35.0117405  25.6011051  21.3879998  35.5600180  26.0487037
  20.5104273  34.1242088  32.1390144  19.6640318  34.2964895  32.0131494
  20.5075406  33.3191431  32.4755973  20.3851423  34.0303117  32.1701271
  23.5086073  38.7953857  26.0677956  22.9809092  38.8782601  25.3783665
  23.9681781  39.5371728  26.0642601  23.4987924  38.9174519  25.9652651
  15.5019138  37.0656376  21.0918851  15.1531943  37.7176102  21.5550401
  15.0215584  37.0513489  20.3642722  15.3789382  37.1599430  21.0529943
  16.0792640  34.8998805  33.7780879  16.1191012  35.4008012  34.4915587
  15.2542305  34.9909199  33.5086802  15.9632166  34.9880622  33.8431417
  17.4822252  36.4895993  23.9082915  17.8038093  36.0099076  23.2542177
  17.7449196  37.2995639  23.7173726  17.5688278  36.5385891  23.7838407
  21.3175630  32.3483287  29.6796971  20.6743948  32.1980933  30.2482109
  20.9775037  32.1025632  28.9146075  21.1720708  32.2895409  29.6499986
  20.5433364  38.4304117  25.4073579  19.9498203  38.7521113  24.8558146
  20.5808641  37.5845212  25.1994685  20.4607753  38.3528445  25.2956350
  23.4191180  38.3883621  28.8375329  23.1904873  38.4116323  27.9953687
  23.6789256  37.5641088  28.9570339  23.4237368  38.2699701  28.7300526
  16.4735943  36.9260168  30.1329524  16.9493309  37.2877248  29.4979706
  15.9724542  37.5816635  30.4129667  16.4701302  37.0754356  30.0806265
  26.1447886  37.3783559  29.0878487  26.1442113  37.2232215  29.9462763
  25.9404066  38.2246546  29.0319873  26.1147664  37.4804179  29.2066426
  22.5121007  30.2176809  35.3132168  21.7066971  30.1074539  35.6300007
  22.3827742  30.3189265  34.4562034  22.3741140  30.2160479  35.2340209
  18.5081767  35.2962896  26.1830540  19.3297461  35.4661209  25.9412235
  18.0451417  35.4510157  25.4596838  18.5612929  35.3444629  26.0402184
  16.9450736   2.8760386  14.9512937  16.9144741   3.7305023  15.1231207
  17.5432085   2.5755679  15.5099081  17.0287894   2.9576883  15.0587739
  10.1450421   1.9636037  19.7065868   9.2888317   2.1244535  19.7574984
  10.1918075   1.0928101  19.7270929  10.0249533   1.8586839  19.7171934
   4.5291561  11.4998755  15.4703099   3.7774461  11.1214293  15.2419144
   4.9777573  11.5317189  14.7221909   4.4841228  11.4484362  15.3260601
  13.4544138   8.2322563  29.3126324  14.1610905   7.7374594  29.4413258
  13.6432073   8.6731644  28.5828982  13.5872043   8.2240913  29.2235369
   9.9816521  11.9224125  10.8988646   9.6467889  12.6001046  10.4632868
  10.4943391  11.5329436  10.3105518  10.0082102  11.9648703  10.7475438
   9.5220812  13.8738393  16.8399758   9.9060192  14.4425292  16.3004533
   9.4579953  13.1487904  16.3605574   9.5694239  13.8513857  16.6893620
  12.9902242   4.0228081  22.3497519  13.5358202   4.7013168  22.4091489
  12.9319119   3.8815542  21.4899101  13.0618157   4.1020083  22.2309580
   6.1076317  11.5117147  17.7365872   6.2086680  10.7017501  18.0462999
   5.5118062  11.4174094  17.1065550   6.0348856  11.3782175  17.6892110
  14.7667311   5.4512688  13.2231247  14.6506837   6.2020374  13.6523385
  15.5623198   5.1936641  13.4727334  14.8671900   5.5247535  13.3235339
   5.9477057  16.4294736  19.1380728   6.5914512  16.8707900  19.5276886
   6.2733312  15.6248163  19.0510986   6.0908885  16.3759931  19.1826205
   6.6497637   9.4406711  14.5100589   6.9713478   9.9811919  13.9061898
   7.2969733   8.8703483  14.6422879   6.7923692   9.4365886  14.4407625
   8.6999345   1.4422706  14.5934976   9.3979509   1.6210834  15.0856439
   9.0151677   0.9193045  13.9705366   8.8494682   1.3916478  14.5736986
   8.8887280   7.8293151  14.5814768   9.3280915   7.2210252  15.0269540
   8.7391943   7.4500524  13.8100233   8.9308746   7.6831622  14.5333935
   6.3558923   6.4237163  21.7833593   7.0007926   5.9309606  21.4644542
   6.5960700   6.5661950  22.6099671   6.4869508   6.3714605  21.8583126
   8.8945014   9.2692069  21.4340486   9.1768257   8.4743475  21.2127242
   9.6231175   9.7472656  21.4545547   9.0434578   9.2226666  21.4043501
  12.4896617   6.1820332  11.5345537  12.4047912   7.0381299  11.6795106
  12.9781000   5.9064657  12.2027696  12.5485514   6.2677654  11.6547618
  13.4215050   2.8005127  13.0343272  12.8926521   3.0164760  13.6940578
  13.9440070   3.4941265  12.9544241  13.4203503   2.9348264  13.1198871
  18.8763103   8.3751431  18.4076316  18.0460806   8.5862075  18.5709733
  18.8272355   7.5488486  18.1318600  18.7469838   8.2841037  18.3913682
   5.3114658   6.6968343  11.8350740   4.7271873   7.2018375  12.2416604
   4.9084753   6.4710730  11.0947332   5.1653961   6.7376592  11.7855765
   6.9372840  11.2055285  21.2424226   6.4199782  10.8462700  20.6385534
   7.6347231  10.6817460  21.2530292   6.9638421  11.0752973  21.1554485
  10.5936432  11.6550099  27.2040399  10.6819778  11.4676240  28.0518609
  11.0226145  11.0087529  26.8045246  10.6698535  11.5313107  27.2712150
   8.1606892  10.9381259  26.1858061   7.5977727  10.5253869  26.7097722
   8.9227915  10.8634165  26.6051204   8.1901341  10.8658660  26.3251062
   3.7202883  12.9279280  18.7894691   4.4223463  12.4131270  18.8467448
   3.6400367  13.2553432  19.5941566   3.8126644  12.8993507  18.9167484
  18.3717061   1.0221832  22.2026738  17.5345482   1.0924019  22.4374332
  18.3405292   1.0246327  21.3301040  18.2435343   1.0332059  22.1086286
   3.0453659   9.1185632  18.2980299   3.8842558   9.3508565  18.3454061
   3.0765428   8.2489944  18.2287335   3.1735376   9.0242579  18.2944944
   3.6706362   9.5386508  22.5993605   4.2104587   9.3957639  23.2696977
   2.9876308   9.9383258  22.9677631   3.6498516   9.5766179  22.7528027
  13.0947247   5.2177508  17.7938629  13.8504762   5.6509023  17.8327538
  13.2009571   4.5682278  18.3673265  13.2217417   5.1854992  17.8836655
  16.1327418   9.0450786  18.5441032  15.6962650   9.0487528  19.3000004
  15.7990333   9.7256284  18.1120610  16.0190038   9.1463241  18.5921865
  10.7056491  11.0859118  29.8684183  11.4896908  11.1989966  30.2339925
  10.5053086  10.2600255  30.0642868  10.7922517  10.9805838  29.9518569
  10.8626885  12.9969220  23.5150638  10.0642131  12.7568720  23.7724507
  11.3112896  13.0483613  24.2617686  10.8101496  12.9691612  23.6635562
  19.2671764   5.7631705  17.4360669  19.9288198   5.2022374  17.3356578
  18.6263176   5.2683736  17.7613361  19.2700632   5.6068114  17.4693010
  10.1548572   9.0601837   9.7441593  10.5699720   8.7286861   9.0526088
   9.3240501   8.8270739   9.6161729  10.0936581   8.9773093   9.6232440
  15.5536595   6.7797088  17.1772658  15.7892184   6.9242287  16.3499509
  15.7026158   7.5439496  17.5704172  15.6102398   6.9136142  17.1136262
  17.3827052   5.6198754  15.0142262  17.7135269   6.1526394  14.4082357
  17.9560140   5.6737641  15.6704213  17.5160731   5.7068323  15.0220044
  12.5958941   3.4663656  15.6965842  12.6905795   4.2052951  16.1505468
  11.9717784   3.0381132  16.1300407  12.5167971   3.5124977  15.8273990
  10.8511415   6.6449869  26.3456123  11.4250276   6.0077113  26.5004687
  10.7726218   6.6453951  25.4765781  10.9244649   6.5514980  26.2402534
  12.8481962   5.3112396   8.9302794  12.7662124   5.3814583   9.7957781
  13.4861682   5.8742140   8.7386535  12.9301799   5.4051367   9.0292744
   6.2075133   5.0773134  18.3977321   5.9494377   4.2444869  18.3708620
   6.2623616   5.3030747  17.5569821   6.1774911   4.9870905  18.2697457
   8.8483134   1.1034246  23.7434594   8.4597567   0.6788464  23.0886785
   8.1837832   1.3516396  24.2511620   8.6930062   1.0772967  23.7222462
  18.4906403   0.8609251  16.5182424  18.2342968   0.0489192  16.3280307
  19.3335717   0.8686818  16.2912611  18.5772428   0.7421248  16.4567241
   9.9522072   5.3332851  11.9411401  10.7662711   5.6247743  11.8294172
   9.8881213   4.6792713  11.3669694  10.0624811   5.2798045  11.8400238
  16.1731562   8.0158847  26.3540976  15.9370200   7.1846911  26.2353037
  16.8174791   7.9644454  26.9395821  16.2326233   7.8856535  26.4226870
   5.8229980   8.8054368  17.0683713   6.4603927   8.5666115  17.6135506
   6.2485052   9.0091527  16.3336873   5.9806147   8.8005378  17.0400870
   6.4632795   4.0256658  11.4058602   6.8477948   3.8064364  12.1575147
   6.2144416   4.8519603  11.5359678   6.4834868   4.1154804  11.5359679
  17.1967983   7.8003295  22.4169271  16.8913800   8.5331352  22.7782586
  16.4774199   7.3941225  22.1362057  17.0455325   7.8485028  22.4282408
   8.2051452   9.2826791  18.7477499   8.2790461   9.1201962  19.6019349
   9.0220959   9.4716980  18.5037981   8.3367811   9.2863533  18.8375525
  22.8969775   4.4396296  21.7437615  22.8294275   4.4592255  20.8740202
  22.8825438   5.2826623  21.9693286  22.8848532   4.5670031  21.6490092
   1.9657209   9.6284653  15.7771943   1.1395327   9.8746391  15.6506221
   2.0269200   9.5496734  16.6434001   1.8531376   9.6529602  15.8860887
   6.7456038  12.2461534  13.4790972   7.0354336  11.8550515  12.7550199
   7.4759519  12.4278239  13.9196248   6.8962922  12.2155347  13.4373779
  20.6828392   3.2140682  20.0184209  21.2336314   2.5808751  20.2581302
  20.6672508   3.7456075  20.7099714  20.7613589   3.1989630  20.1563068
   7.3350783   7.0479280  24.5644103   6.8362477   7.7595047  24.6428991
   8.1451008   7.3679946  24.5262265   7.3806890   7.2006128  24.5700671
   4.6861954  14.2228916  16.5451122   4.4662249  13.9326271  17.3377789
   4.4656476  13.5643871  16.0169034   4.6209548  14.0828624  16.5840031
   3.5978901   6.3102233  18.8106824   3.3092150   5.6839704  19.3452551
   4.4662249   6.2522520  18.8771504   3.6839153   6.2089777  18.8997778
  14.3856799   1.4537016  19.1288806  14.0421565   0.7327351  19.4796055
  14.4849841   1.2450867  18.2867164  14.3498842   1.3161219  19.0560486
   6.8529909  15.5958306  15.3281815   7.5053967  15.0634748  15.5572841
   6.1555518  15.2426958  15.7149689   6.8460627  15.4647829  15.4193982
   3.8011174   7.9497484  14.7349189   4.5557142   8.3310523  14.9484651
   3.2081787   8.4008627  15.1895885   3.8247888   8.0726311  14.8332067
  14.8469828   7.9162720  14.6712794  15.4127860   8.5755930  14.5871337
  14.1997731   8.2612418  15.1429196  14.8348584   8.0644661  14.7285550
   5.1209401   9.1206045  20.1089304   4.5990154   9.2606337  20.7941169
   5.5083421   8.3616709  20.2991422   5.1013102   9.0291569  20.2390381
  11.3176406  10.8601504  14.0949873  11.0763082  10.1269365  13.6876938
  11.4977739  11.4088361  13.4416206  11.3084030  10.8323895  13.9380096
   6.5475726   6.1510064  15.5070795   6.3518509   6.7584799  14.9131098
   6.7710072   5.4578008  15.0262469   6.5510367   6.1387590  15.3486876
   4.9454256   3.0364802  15.6251664   5.6676908   3.2005960  15.1655470
   4.4662249   3.7574467  15.5191003   4.9817987   3.1663031  15.5417278
  12.9047764  -0.6271399  21.0048349  12.0658865  -0.6010120  20.7686612
  12.9752131   0.0199336  21.5853695  12.7916158  -0.5275273  21.0557465
   2.5961873   5.4422874  24.7305803   3.1082970   5.7207128  24.0814563
   2.3098216   6.1812168  25.0968617   2.6296736   5.5925228  24.6895682
  16.7805288   4.5796587  18.2909590  16.6939262   4.7352014  19.1444369
  16.3255768   5.2234663  17.9168995  16.7008545   4.6972343  18.3616697
  10.6531104   1.9007335  16.9135150  10.4065818   1.8203086  17.7471939
  10.9816227   1.1160802  16.7197677  10.6652348   1.7733600  17.0082673
  14.5479153   8.6090694  20.7021931  14.4093512   9.3071740  21.2070673
  13.7679151   8.4539350  20.3458113  14.4122380   8.6890861  20.7248205
  12.8857238   4.9087069  26.9544313  12.8805276   4.0366886  26.9586739
  13.5918232   5.1075238  26.4813768  12.9902242   4.8090943  26.8851348
   6.6128131   4.6364053  26.3258133   6.7571507   5.2165261  25.6901243
   6.9603780   5.0140350  27.0307988   6.6855593   4.7784757  26.3357128
   8.7848049   3.8354222  24.1083265   8.0371363   4.0285236  23.7031543
   8.9389574   3.0099441  23.8707386   8.6970476   3.7419333  24.0128670
   5.6855886  12.8266825  23.1919160   5.8345450  12.2669741  22.5392564
   6.4655888  12.9058827  23.5751679   5.8229980  12.7552390  23.1516109
  16.0432526   7.9668948  11.4638430  15.6639334   7.1806086  11.4567720
  15.3798771   8.5155805  11.3210075  15.8891000   7.9313772  11.4419227
   8.2109187  12.9981468  24.4703651   8.1352858  12.3290278  25.0254439
   8.1399046  13.6999256  24.9844317   8.1889794  13.0026375  24.6280499
   8.8679434  11.5182467  15.3027257   9.6329325  11.2492110  14.9809921
   8.7657524  11.0332477  16.0197319   8.9660929  11.4072031  15.3607084
  11.3898094   8.5494651   7.2827206  12.1571079   8.6094775   6.8733058
  10.9429403   7.9775092   6.7983524  11.4371522   8.4731226   7.1504916
  12.2875890   7.3549306  19.5679938  11.6120892   7.1234539  20.0693325
  12.2968266   6.7470489  18.9422043  12.1894394   7.2308232  19.5496090
   9.4170034   2.1967135  26.3243991   9.3529175   3.0577092  26.1964128
   9.5567222   1.8799129  25.5239542   9.4285504   2.2767302  26.1872204
  14.2892624  10.2114439  11.7990116  14.3712462  11.0181425  11.4751567
  14.7742367  10.2310398  12.5230890  14.3729782  10.3335101  11.8577015
   8.0989128   4.8899275  20.4660194   7.6751377   5.0903774  19.7299212
   7.9233983   4.0428123  20.5784494   8.0100008   4.7948056  20.3733884
   7.6000821  16.4049788  22.9281651   8.0896751  15.7060577  22.7457316
   7.0285053  16.1073658  23.5157709   7.5885351  16.2576011  22.9882692
   3.3871573   5.3851326  15.8988167   3.5436192   5.3198129  16.7544159
   3.7272166   6.1599879  15.6866846   3.4604808   5.4900524  15.9942761
   9.9250717   4.7609210  14.7681530  10.4666263   4.2579591  15.2320150
  10.2397276   4.7074404  13.9571015  10.0515114   4.6788631  14.7165342
  13.7967825   8.9711857  31.8808442  14.6102690   8.6997006  32.0413575
  13.6362791   8.6719397  31.0768638  13.8937773   8.8866783  31.7853848
   8.0937167  10.1526561  12.0521558   8.1629987   9.2941100  12.1914558
   8.8725622  10.3698442  11.7240582   8.2190017  10.0579425  12.0238715
  11.0739987  -0.3454486  24.8203830  11.2881956  -0.9843572  24.2667184
  10.4573886   0.0991338  24.3911692  11.0145316  -0.3744342  24.6754261
  12.4844655  12.5764262  16.2658051  12.0924446  12.2730978  15.5480917
  12.6397727  13.4133352  16.0763005  12.4498244  12.6548099  16.1314548
  13.2379075   1.2634579  25.7587137  12.4255756   0.9560470  25.8400310
  13.6969009   0.7833579  26.3229850  13.1859459   1.1471072  25.8541732
  12.6484329   9.1414251  16.2064082  12.2898984   9.3128894  16.9828114
  12.1623040   9.6027457  15.6492080  12.5243026   9.2353222  16.2389351
  13.8089069  10.0318147  27.1531283  14.4468789   9.5378343  26.8193739
  13.1663160   9.9595548  26.5683509  13.8083295   9.9477156  27.0173638
  15.5346069   1.8807293  21.7197198  15.1073677   1.7933642  20.9645298
  14.8972122   1.9885069  22.3052042  15.3775676   1.8839953  21.6942640
  13.8643325  10.7237956  23.7936639  14.6535703  10.3727020  23.9138721
  14.0386923  11.5374344  23.5313273  14.0063607  10.7923813  23.7724507
   7.4153301   2.0628081  20.0962026   7.1116438   1.5084069  20.6972433
   6.7132721   2.2420290  19.6090060   7.2669510   2.0072863  20.1131731
   5.4771652   9.2777801  24.8034123   5.3692007   9.2879863  25.6696182
   5.6867433  10.1032582  24.6139077   5.4921763   9.4018876  24.9038215
   3.4945444   6.5290444  22.2656061   2.9033377   7.1699942  22.2359076
   4.2566467   6.9528061  22.2387361   3.5193704   6.6866282  22.2571208
  19.6135865   6.3596213  23.2633339  19.6718989   6.8082862  24.0093316
  18.9802333   6.7695026  22.8263419  19.5287160   6.4869948  23.3085888
  13.2534960  11.9799755  19.6988086  13.0554648  12.4690570  19.0044297
  12.6322671  12.1840997  20.2772219  13.1322524  12.0816293  19.6811309
   7.3142938   3.7484652  14.0398330   8.0584983   4.1358928  14.2781280
   7.4603634   2.9042077  14.2038818   7.4453523   3.6815125  14.0992300
  16.5657545   4.3812501  21.3499030  16.3255767   3.5418916  21.3541456
  17.0449552   4.4612668  22.0739803  16.6009728   4.2693901  21.4573832
  12.2304314   0.2146680  13.0018003  11.7027332   0.2975424  12.3123712
  12.6900022   0.9564551  12.9982648  12.2206164   0.3367342  12.8992698
  18.5662732   1.1613958  19.3028289  18.3272502   1.1209792  18.4649073
  18.7296633   2.0085110  19.4294010  18.5553035   1.2806043  19.1981771
  15.1708762   5.5463907  25.2333334  15.8942961   5.0936434  25.0544354
  14.9058724   5.8268573  24.4505662  15.2390035   5.5214876  25.0912049
  11.7841396   8.7850243  12.1327660  12.5075595   9.2508356  11.9892233
  11.3441987   8.8523853  11.3825257  11.8257088   8.8634080  12.0012441
  10.9527551   5.6447786  23.3828349  10.3384544   5.1005836  23.6776984
  11.4694836   5.1312022  22.9034165  10.9383214   5.4884195  23.3552577
  10.1923848   6.7152056  21.1172648   9.7651456   6.0901774  20.6838083
  10.1848793   6.4326978  21.9431655  10.1282990   6.5804836  21.1752475
   6.9840493   5.8852369  28.8141220   6.1336124   6.0224083  28.9498865
   7.1468621   5.1516147  29.2588922   6.8824357   5.7966470  28.8996820
   6.2225244   2.8352138  23.0094825   5.3917173   3.0025956  22.8030073
   6.1676761   2.4588089  23.7943710   6.0914659   2.8041870  23.0943353
  17.6044076   4.5090318  23.7363884  18.1961916   5.1487569  23.7682082
  18.0403070   3.8113355  24.0255950  17.7562507   4.5008669  23.7844716
   9.4337466   8.9307691  24.3621778   8.9262557   9.4843538  24.8062408
   9.1364112   8.9915981  23.5440552   9.3142351   9.0214002  24.3070234
  12.0445246  12.8470948  12.2925721  11.3274556  12.6731811  11.8272958
  12.6951983  12.6123521  11.7601207  12.0347096  12.7866741  12.1454939
  14.6293217   1.7235537  16.0367026  13.9584407   2.2665239  15.9080092
  15.3232967   2.1930392  15.7948721  14.6322085   1.8733808  15.9822554
   8.6779951  13.8632249  21.2678784   8.4545605  13.1051078  21.6362811
   8.1889794  13.8930270  20.5459224   8.5723400  13.7554473  21.2155525
  14.7921345  -1.8208579  18.9457399  15.1448955  -2.2478857  19.6203198
  13.9336146  -1.9057736  19.0758476  14.7170789  -1.8963839  19.0652410
  12.7904610   1.4426789  22.8942242  12.7702538   1.2610084  23.7477020
  12.8383811   2.3138808  22.8701825  12.7939251   1.5443327  23.0165536
  10.7350940   8.0313981  28.8190718  10.6946795   7.3863658  28.2335874
  11.5474258   7.9750599  29.1316130  10.8494094   7.9272948  28.7787667
   7.3258408  14.0832707  18.7215869   6.9118806  13.4206837  18.3319711
   8.0105782  14.2310566  18.2011563   7.3656779  14.0073365  18.5872366
  10.6923702  13.2422792  19.4739486  10.2939985  13.3525063  18.7060306
  10.0774921  13.4504859  20.0566045  10.5422591  13.2896360  19.4470785
  12.1409421  -0.1923555  15.7715376  11.9123114  -0.1690854  14.9293734
  12.4007497  -1.0166088  15.8910386  12.1455609  -0.3107475  15.6640573
  18.4265545   7.8174759  12.8582576  18.8099150   8.5666115  13.0880673
  17.6309658   8.0640579  12.5994565  18.3659327   7.9644453  12.8540150
  14.8666127  -1.2023618  16.0218534  14.8660353  -1.3574961  16.8802810
  14.6622307  -0.3560631  15.9659919  14.8365905  -1.1002997  16.1406473
  12.5906979   3.4773884  19.6754741  13.0860644   2.7596879  19.6358761
  11.7806754   3.1744681  19.5609228  12.5450872   3.3271530  19.6528467
   8.0365590   7.3271697  11.8251745   7.2276913   7.0038371  11.7785055
   8.5440499   6.6204919  11.7579994   7.9915257   7.1753013  11.8082040
  14.6558798   6.2277571  22.3631870  15.0813869   5.7051993  21.8102295
  14.2915717   6.8258409  21.8420492  14.6645400   6.2387798  22.2040879
   4.2912877  14.5241789  21.1229215   4.6059436  15.3378177  21.1306997
   4.7006291  14.1392007  21.7911374   4.3980975  14.5870491  21.2233307
  11.2437397   9.9411836  18.6933027  11.7148575  10.6552098  18.8623012
  11.5797576   9.3410586  19.2292896  11.3632512   9.9583300  18.7965403
  13.3314382  11.5513149  30.8725099  13.4411347  10.7621709  31.2281846
  13.6605278  11.4619085  30.0699437  13.3966787  11.4219002  30.8067490
  11.8811343   9.7329770  25.4560720  11.3332289   9.1087653  25.1880785
  12.3424372   9.9224042  24.7404799  11.8678553   9.6688820  25.3111151
   1.6325898   8.4714897  20.7707823   2.2370755   8.4310731  20.1421644
   1.4253210   9.3186049  20.8011879   1.6914795   8.5902900  20.6823940
  11.4469670  10.7380842  21.9870061  12.2668043  10.5943808  22.2486356
  11.1663747  11.3627041  22.5286499  11.5266413  10.8091194  22.1058000
  27.9183320  18.3945694  14.9512937  27.8877324  19.2490331  15.1231207
  28.5164669  18.0940987  15.5099081  28.0020478  18.4762191  15.0587739
  15.5024145  27.0184063  15.4703099  14.7507044  26.6399601  15.2419144
  15.9510156  27.0502497  14.7221909  15.4573811  26.9669670  15.3260601
  24.4276721  23.7507871  29.3126324  25.1343489  23.2559901  29.4413258
  24.6164657  24.1916952  28.5828982  24.5604627  23.7426221  29.2235369
  20.9549104  27.4409432  10.8988646  20.6200473  28.1186354  10.4632868
  21.4675975  27.0514744  10.3105518  20.9814686  27.4834011  10.7475438
  20.4953396  29.3923701  16.8399758  20.8792775  29.9610600  16.3004533
  20.4312537  28.6673211  16.3605574  20.5426823  29.3699165  16.6893620
  17.0808901  27.0302455  17.7365872  17.1819264  26.2202809  18.0462999
  16.4850646  26.9359402  17.1065550  17.0081439  26.8967483  17.6892110
  25.7399895  20.9697996  13.2231247  25.6239420  21.7205682  13.6523385
  26.5355781  20.7121949  13.4727334  25.8404484  21.0432843  13.3235339
  16.9209640  31.9480044  19.1380728  17.5647096  32.3893208  19.5276886
  17.2465896  31.1433470  19.0510986  17.0641469  31.8945239  19.1826205
  10.2773945  23.0522742  17.3618205  10.0424130  22.2190394  17.2550474
  10.4159586  23.3327407  16.5479406  10.2629608  22.9706245  17.2260560
  12.5764033  15.2208472  20.2602513  11.9569064  14.6301120  20.0912528
  12.4747896  15.8119907  19.6266836  12.4701708  15.2212555  20.1407503
  17.6230220  24.9592019  14.5100589  17.9446061  25.4997226  13.9061898
  18.2702317  24.3888791  14.6422879  17.7656275  24.9551194  14.4407625
  12.3033166  18.7660754  22.5046082  12.1791862  19.3523199  23.1395901
  12.9551450  18.2720950  22.8058357  12.3806815  18.7799558  22.6432011
  19.8619864  23.3478459  14.5814768  20.3013499  22.7395560  15.0269540
  19.7124526  22.9685832  13.8100233  19.9041329  23.2016930  14.5333935
  19.8677598  24.7877377  21.4340486  20.1500841  23.9928783  21.2127242
  20.5963758  25.2657964  21.4545547  20.0167162  24.7411974  21.4043501
  17.8458792  12.3300411  18.6756251  17.5162122  12.7811554  18.0059950
  17.1703794  12.2516574  19.2229257  17.6969228  12.3851546  18.6579474
  23.4629200  21.7005640  11.5345537  23.3780495  22.5566607  11.6795106
  23.9513583  21.4249964  12.2027696  23.5218097  21.7862962  11.6547618
  25.0535200   8.3185934  16.9205861  24.7388641   9.0089412  17.3526284
  24.5362141   8.2630716  16.2191362  24.9299670   8.4120822  16.8802811
  29.8495686  23.8936739  18.4076316  29.0193389  24.1047383  18.5709733
  29.8004939  23.0673794  18.1318600  29.7202422  23.8026345  18.3913682
  16.2847241  22.2153651  11.8350740  15.7004456  22.7203683  12.2416604
  15.8817336  21.9896038  11.0947332  16.1386545  22.2561900  11.7855765
  11.8391270  27.9308412  18.6374412  11.3558848  28.6558902  18.6133995
  12.6514588  28.2284542  18.7484569  11.8882017  28.0810766  18.6501691
  17.9105424  26.7240593  21.2424226  17.3932365  26.3648008  20.6385534
  18.6079815  26.2002768  21.2530292  17.9371005  26.5938281  21.1554485
  21.5669016  27.1735407  27.2040399  21.6552362  26.9861548  28.0518609
  21.9958728  26.5272837  26.8045246  21.6431118  27.0498415  27.2712150
  19.1339476  26.4566567  26.1858061  18.5710310  26.0439177  26.7097722
  19.8960499  26.3819473  26.6051204  19.1633924  26.3843968  26.3251062
  20.7424456  18.4619303  10.3119661  20.9820459  18.6697287   9.4995004
  21.0640297  17.6576812  10.4208605  20.8261613  18.3733405  10.2080214
  16.0514746  10.3912699  14.1579199  16.8060714  10.7591016  13.9196249
  15.8742280  10.7652254  14.9258378  16.1369224  10.5010887  14.2364087
  14.6935467  28.4464588  18.7894691  15.3956046  27.9316577  18.8467448
  14.6132950  28.7738740  19.5941566  14.7859227  28.4178815  18.9167484
  29.3449645  16.5407140  22.2026738  28.5078066  16.6109327  22.4374332
  29.3137875  16.5431634  21.3301040  29.2167927  16.5517367  22.1086286
  15.7414374  18.6840175  27.9175106  15.9134877  18.5746070  28.7660388
  16.2783731  19.3294581  27.6806299  15.8459378  18.7632177  28.0080203
  14.4071810  12.7983018  10.8557312  14.2247384  13.0154899  10.0298304
  15.2697423  12.9122031  10.9115926  14.5076400  12.8472916  10.7411799
  14.0186242  24.6370940  18.2980299  14.8575142  24.8693873  18.3454061
  14.0498012  23.7675252  18.2287335  14.1467960  24.5427887  18.2944944
  14.6438945  25.0571816  22.5993605  15.1837170  24.9142947  23.2696977
  13.9608892  25.4568566  22.9677631  14.6231099  25.0951486  22.7528027
  20.0871530   9.8009429  13.8906335  20.8157690   9.6225384  13.4444492
  20.1766423  10.6427509  14.1013513  20.2078192   9.8993307  13.8559853
  27.1060001  24.5636093  18.5441032  26.6695233  24.5672836  19.3000004
  26.7722917  25.2441592  18.1120610  26.9922621  24.6648549  18.5921865
  21.6789075  26.6044426  29.8684183  22.4629492  26.7175274  30.2339925
  21.4785670  25.7785563  30.0642868  21.7655100  26.4991146  29.9518569
  10.0476091  21.2772106  22.7528026   9.7814506  20.4611223  22.9119017
  10.0614655  21.3225262  21.8823542  10.0100813  21.1629011  22.6481508
  27.0257484  11.6049921  20.7870460  27.6683393  11.6748026  21.3732375
  27.2780505  10.9379144  20.2850002  27.1579616  11.5176270  20.7997739
  13.9533837  16.0757191   9.3679785  13.2392015  15.7895370   9.7802217
  14.4377806  16.4153817  10.0086172  13.9193201  16.0838840   9.5235419
  14.7974697  14.8150485  25.3995034  14.1046494  14.3447464  25.6455766
  15.4135024  14.5888789  25.9736741  14.7859227  14.7117616  25.5204187
  21.8359468  28.5154528  23.5150638  21.0374714  28.2754028  23.7724507
  22.2845480  28.5668921  24.2617686  21.7834080  28.4876919  23.6635562
  30.2404348  21.2817013  17.4360669  30.9020782  20.7207682  17.3356578
  29.5995760  20.7869044  17.7613361  30.2433215  21.1253422  17.4693010
  21.1281155  24.5787145   9.7441593  21.5432304  24.2472169   9.0526088
  20.2973085  24.3456047   9.6161729  21.0669164  24.4958401   9.6232440
  10.4569504  22.0630886  20.0339771  10.2745077  22.0377772  19.1812063
  11.1919173  22.5329824  20.0728679  10.5383568  22.1292248  19.9137689
  26.5269178  22.2982396  17.1772658  26.7624768  22.4427595  16.3499509
  26.6758742  23.0624804  17.5704172  26.5834982  22.4321450  17.1136262
  13.5215256  18.7815889  26.5421879  14.2455228  18.7668919  27.0286774
  13.6231392  19.4911244  26.0443848  13.6433465  18.8840592  26.5400666
  28.3559635  21.1384062  15.0142262  28.6867852  21.6711702  14.4082357
  28.9292723  21.1922949  15.6704213  28.4893314  21.2253630  15.0220044
  20.8960205  22.2614973  31.4070826  20.1033186  22.5758485  31.5923446
  21.0109132  22.4766442  30.5691611  20.7955616  22.3398810  31.3109161
  21.8243998  22.1635177  26.3456123  22.3982860  21.5262421  26.5004687
  21.7458802  22.1639259  25.4765781  21.8977233  22.0700288  26.2402534
  10.4240415  18.9424386  20.1838837  11.0013917  18.8060837  20.8231083
   9.7254476  18.4860171  20.4384422  10.4061436  18.8546653  20.3161127
  23.8214546  20.8297704   8.9302794  23.7394708  20.8999891   9.7957781
  24.4594266  21.3927448   8.7386535  23.9034383  20.9236675   9.0292744
  22.2608767  12.6986893  18.4981413  21.5565094  12.2096078  18.6565332
  22.3093741  12.7109367  17.6269858  22.1638818  12.6276541  18.3920753
  29.4638987  16.3794559  16.5182424  29.2075551  15.5674500  16.3280307
  30.3068301  16.3872126  16.2912611  29.5505012  16.2606556  16.4567241
   5.8999248  17.7936279  16.8986656   5.9859500  17.4168148  17.6800186
   6.5275045  17.4196725  16.4206614   6.0055799  17.6821761  16.9432133
  23.6442079  10.3194183  21.2558578  24.0252591   9.6372354  21.6426452
  22.8405363  10.0303785  21.0734242  23.5818541  10.1761231  21.2862634
  20.9254656  20.8518158  11.9411401  21.7395295  21.1433051  11.8294172
  20.8613797  20.1978021  11.3669694  21.0357395  20.7983353  11.8400238
  27.1464146  23.5344155  26.3540976  26.9102783  22.7032219  26.2353037
  27.7907375  23.4829762  26.9395821  27.2058817  23.4041843  26.4226870
  16.7962564  24.3239676  17.0683713  17.4336511  24.0851423  17.6135506
  17.2217636  24.5276835  16.3336873  16.9538730  24.3190686  17.0400870
  11.4875206  26.5628012  20.9518017  11.5279352  26.8342863  20.1237796
  12.0469730  27.0869920  21.3675804  11.5758552  26.6803767  20.8909905
  17.4365379  19.5441966  11.4058602  17.8210532  19.3249672  12.1575147
  17.1876999  20.3704911  11.5359678  17.4567452  19.6340112  11.5359679
  17.6033919  12.8248381  31.1221186  17.2887361  13.5947944  30.8590749
  17.2823852  12.2618637  30.5373413  17.5092839  12.8558650  30.9962536
  28.1700567  23.3188603  22.4169271  27.8646384  24.0516660  22.7782586
  27.4506782  22.9126533  22.1362057  28.0187909  23.3670336  22.4282408
  19.1784036  24.8012099  18.7477499  19.2523044  24.6387270  19.6019349
  19.9953542  24.9902288  18.5037981  19.3100395  24.8048841  18.8375525
  33.8702359  19.9581604  21.7437615  33.8026859  19.9777563  20.8740202
  33.8558021  20.8011931  21.9693286  33.8581115  20.0855339  21.6490092
  12.9389793  25.1469961  15.7771943  12.1127910  25.3931699  15.6506221
  13.0001784  25.0682042  16.6434001  12.8263960  25.1714910  15.8860887
  15.1565816  11.2138902  16.7367383  14.2888242  11.2861502  16.8024992
  15.4441021  12.0160981  16.9255358  15.0705564  11.3433049  16.7742149
  24.2798705  11.3616762  25.0678704  25.0252297  11.1726572  24.6542130
  23.8636010  11.8875000  24.5092561  24.3283679  11.4118907  24.9243278
  17.7188622  27.7646842  13.4790972  18.0086920  27.3735823  12.7550199
  18.4492103  27.9463546  13.9196248  17.8695506  27.7340655  13.4373779
  31.6560976  18.7325990  20.0184209  32.2068898  18.0994059  20.2581302
  31.6405091  19.2641383  20.7099714  31.7346172  18.7174938  20.1563068
  15.6594537  29.7414224  16.5451122  15.4394833  29.4511579  17.3377789
  15.4389059  29.0829179  16.0169034  15.5942131  29.6013932  16.5840031
  17.8262493  31.1143614  15.3281815  18.4786551  30.5820056  15.5572841
  17.1288102  30.7612266  15.7149689  17.8193211  30.9833137  15.4193982
  14.7743758  23.4682792  14.7349189  15.5289726  23.8495831  14.9484651
  14.1814370  23.9193935  15.1895885  14.7980471  23.5911619  14.8332067
  25.8202411  23.4348028  14.6712794  26.3860444  24.0941238  14.5871337
  25.1730315  23.7797726  15.1429196  25.8081168  23.5829969  14.7285550
  17.2350425  15.4245632  29.8606401  16.4250201  15.7303412  29.7496243
  17.7125112  16.1451214  29.9758985  17.1853904  15.5760233  29.8613472
  13.0833168  14.6897162  14.1784259  12.7957964  14.3198432  13.4416206
  13.7703637  15.1592017  13.9167964  13.1422066  14.7044131  14.0299335
  22.2908989  26.3786812  14.0949873  22.0495665  25.6454673  13.6876938
  22.4710322  26.9273669  13.4416206  22.2816613  26.3509203  13.9380096
  17.5208310  21.6695372  15.5070795  17.3251093  22.2770106  14.9131098
  17.7442656  20.9763316  15.0262469  17.5242951  21.6572897  15.3486876
  15.9186840  18.5550110  15.6251664  16.6409492  18.7191268  15.1655470
  15.4394833  19.2759775  15.5191003  15.9550571  18.6848339  15.5417278
  23.8780348  14.8913909  21.0048349  23.0391448  14.9175188  20.7686612
  23.9484715  15.5384644  21.5853695  23.7648741  14.9910034  21.0557465
  22.3249626  11.7899286  15.7375964  23.0275979  11.5907034  15.2595923
  22.0593815  11.0175228  16.0444808  22.3896258  11.6462252  15.7121406
  27.7537871  20.0981895  18.2909590  27.6671846  20.2537321  19.1444369
  27.2988351  20.7419971  17.9168995  27.6741128  20.2157651  18.3616697
  10.6561363  15.4678374  15.0269540  10.7577500  16.2704536  15.3550515
  11.4517250  15.2665710  14.7292621  10.7889269  15.5564273  15.0304895
  17.0878182  13.0534571  24.7906845  16.8961379  13.0689705  25.6406269
  17.9376778  13.2498245  24.7673500  17.1853904  13.0848922  24.9130140
  11.4725095  15.5825552  22.7690662  11.3310587  14.7309493  22.8935170
  11.7565659  15.6254213  21.9452868  11.4932941  15.4625302  22.6658286
  25.5211736  24.1276002  20.7021931  25.3826096  24.8257048  21.2070673
  24.7411734  23.9724658  20.3458113  25.3854963  24.2076169  20.7248205
  23.8589822  20.4272377  26.9544313  23.8537860  19.5552194  26.9586739
  24.5650815  20.6260546  26.4813768  23.9634825  20.3276251  26.8851348
  16.6588470  28.3452133  23.1919160  16.8078034  27.7855049  22.5392564
  17.4388472  28.4244135  23.5751679  16.7962563  28.2737698  23.1516109
  27.0165109  23.4854256  11.4638430  26.6371918  22.6991394  11.4567720
  26.3531355  24.0341113  11.3210075  26.8623584  23.4499080  11.4419227
  19.1841770  28.5166776  24.4703651  19.1085442  27.8475586  25.0254439
  19.1131630  29.2184564  24.9844317  19.1622377  28.5211683  24.6280499
  19.9982409  13.2490080  24.9978668  20.4555023  13.9814055  25.1251460
  20.0738738  12.8256545  25.7565924  20.0773379  13.2947318  25.1279745
  12.2415400  13.4955900  26.0868112  11.7057590  12.8836258  26.4028879
  12.3033165  14.0704036  26.7401779  12.1711033  13.4902828  26.2303539
  24.4709735   6.4279955  18.8672511  24.5893303   6.8856419  18.1339814
  24.2971911   5.6225217  18.5808729  24.4628906   6.3773728  18.7173445
  19.8412017  27.0367775  15.3027257  20.6061908  26.7677418  14.9809921
  19.7390107  26.5517785  16.0197319  19.9393513  26.9257339  15.3607084
  17.8764787  15.2392184  21.8420492  17.0860862  15.0583644  22.1637828
  18.2725410  14.4619137  21.8250787  17.8181663  15.0979645  21.8873041
  22.3630678  24.0679958   7.2827206  23.1303663  24.1280083   6.8733058
  21.9161987  23.4960400   6.7983524  22.4104105  23.9916534   7.1504916
  23.2608473  22.8734614  19.5679938  22.5853475  22.6419847  20.0693325
  23.2700850  22.2655797  18.9422043  23.1626978  22.7493539  19.5496090
  20.3902617  17.7152443  26.3243991  20.3261759  18.5762400  26.1964128
  20.5299805  17.3984436  25.5239542  20.4018087  17.7952610  26.1872204
  25.2625208  25.7299747  11.7990116  25.3445045  26.5366733  11.4751567
  25.7474950  25.7495706  12.5230890  25.3462366  25.8520409  11.8577015
  18.5733405  31.9235096  22.9281651  19.0629335  31.2245885  22.7457316
  18.0017637  31.6258966  23.5157709  18.5617935  31.7761319  22.9882692
  14.3604156  20.9036634  15.8988167  14.5168775  20.8383437  16.7544159
  14.7004749  21.6785187  15.6866846  14.4337391  21.0085832  15.9942761
  24.7700408  24.4897165  31.8808442  25.5835274  24.2182314  32.0413575
  24.6095375  24.1904705  31.0768638  24.8670357  24.4052091  31.7853848
  19.0669751  25.6711869  12.0521558  19.1362571  24.8126408  12.1914558
  19.8458206  25.8883750  11.7240582  19.1922601  25.5764733  12.0238715
  22.0472570  15.1730822  24.8203830  22.2614540  14.5341736  24.2667184
  21.4306469  15.6176646  24.3911692  21.9877899  15.1440966  24.6754261
  23.4577238  28.0949570  16.2658051  23.0657030  27.7916286  15.5480917
  23.6130310  28.9318660  16.0763005  23.4230828  28.1733407  16.1314548
  10.9338418  18.0871584  16.2148934  11.3137383  18.5056129  15.5509201
  10.3593783  18.6685040  16.5217777  10.9049743  18.2349443  16.1625675
  24.2111658  16.7819887  25.7587137  23.3988340  16.4745778  25.8400310
  24.6701593  16.3018887  26.3229850  24.1592043  16.6656380  25.8541732
  23.6216913  24.6599559  16.2064082  23.2631568  24.8314202  16.9828114
  23.1355624  25.1212765  15.6492080  23.4975610  24.7538530  16.2389351
  21.4387299   8.2830758  19.8091173  20.5680857   8.2569479  19.7624483
  21.6927640   8.1107950  18.9917019  21.3480859   8.2540901  19.6811310
  18.4105278  20.3398725   8.7464316  18.6997803  21.1163607   9.0207890
  18.4977077  19.8287456   9.4478815  18.4659535  20.3790643   8.8906814
  21.3065166  18.1879959  30.5415840  21.7764797  18.8122075  30.9283714
  21.3527046  17.5196934  31.1009054  21.3833042  18.1814639  30.6815911
  18.4636439  10.2936986  21.2664643  17.9474928   9.6017178  21.3916222
  17.9030368  10.9607763  21.2127242  18.3042953  10.2900244  21.2770709
  20.5328673  10.8329946  23.0957496  20.1460426  10.8578978  23.8771026
  20.0461610  10.2671625  22.6432013  20.4041182  10.7525697  23.1445400
  24.7821652  25.5503455  27.1531283  25.4201373  25.0563651  26.8193739
  24.1395744  25.4780856  26.5683509  24.7815879  25.4662464  27.0173638
  26.5078652  17.3992601  21.7197198  26.0806260  17.3118950  20.9645298
  25.8704705  17.5070377  22.3052042  26.3508260  17.4025261  21.6942640
  20.1985815   7.7196932  25.3867756  20.8278933   8.2557232  25.1088826
  20.3671677   7.6274291  26.2381322  20.3163609   7.7858294  25.4716284
  19.9999729  12.5068126  27.6594168  20.8273159  12.2353275  27.7152782
  20.0207576  13.3028968  28.0157986  20.1252580  12.5847881  27.7209350
  24.8375909  26.2423264  23.7936639  25.6268287  25.8912328  23.9138721
  25.0119507  27.0559652  23.5313273  24.9796191  26.3109121  23.7724507
  12.0544786  17.2751526  18.6749179  11.6601484  17.3494538  17.8999288
  11.4984903  17.6609473  19.2257541  11.9147599  17.3433301  18.6416839
  23.6909733  10.2532820  18.3553058  23.8959326  10.1855128  19.2010055
  23.3636157  11.0591641  18.2874235  23.6724981  10.3618761  18.4712713
  17.4451981  14.8913908  14.6606728  17.7211716  14.1732821  14.2484295
  18.0450651  15.4898828  14.4527834  17.5745246  14.8734279  14.5687489
  26.9443421  10.8064584  17.8355823  26.3317734  11.2934987  18.2209555
  27.0407596  10.1308075  18.3793474  26.8681318  10.7782893  17.9734681
  20.9462502  12.5627426  12.9353323  21.4006248  12.7337986  13.6601167
  21.4202548  11.9495536  12.5351098  21.0830822  12.4978311  12.9827084
  14.8638650  13.2077749  22.9324079  15.3240132  13.2816679  23.6699202
  14.9094757  14.0059003  22.5823900  14.9389205  13.3371896  22.9896835
  16.5122000  13.8744444  27.4996106  16.1207565  13.2277791  27.9351884
  16.6807862  14.4655879  28.1190361  16.4792910  13.8658712  27.6558812
  30.5868449  21.8781521  23.2633339  30.6451572  22.3268170  24.0093316
  29.9534916  22.2880334  22.8263419  30.5019744  22.0055256  23.3085888
  24.2267543  27.4985063  19.6988086  24.0287232  27.9875878  19.0044297
  23.6055254  27.7026305  20.2772219  24.1055108  27.6001601  19.6811309
  18.2875522  19.2669960  14.0398330  19.0317567  19.6544236  14.2781280
  18.4336218  18.4227385  14.2038818  18.4186107  19.2000433  14.0992300
  20.2055097  11.0620219  19.0730191  19.3591142  11.2343027  18.9471541
  20.2026230  10.2569563  19.4096020  20.0802247  10.9681248  19.1041318
  11.6526428  16.8366940  25.3075795  12.5152041  16.7362649  25.2213125
  11.3218211  16.2561649  24.7461367  11.7311624  16.7358567  25.2121201
  27.5390128  19.8997809  21.3499030  27.2988351  19.0604224  21.3541456
  28.0182135  19.9797976  22.0739803  27.5742312  19.7879209  21.4573832
  29.5395315  16.6799266  19.3028289  29.3005085  16.6395100  18.4649073
  29.7029216  17.5270418  19.4294010  29.5285619  16.7991351  19.1981771
  26.1441345  21.0649215  25.2333334  26.8675544  20.6121742  25.0544354
  25.8791308  21.3453881  24.4505662  26.2122619  21.0400184  25.0912049
  15.0128214  15.6609389  21.9686213  14.3881284  15.6727781  21.3612166
  14.6773809  16.1369564  22.6177453  14.8713706  15.7327906  21.9742782
  15.1969962  14.0034507   8.0258898  14.8482767  14.6554233   8.4890447
  14.7166408  13.9891620   7.2982769  15.0740206  14.0977561   7.9869989
  11.7253889  23.7209849  23.4089977  11.1953814  23.0302288  23.4584952
  11.9978983  23.7120034  22.5802686  11.6878612  23.6176981  23.2937393
  22.7573980  24.3035551  12.1327660  23.4808179  24.7693664  11.9892233
  22.3174571  24.3709161  11.3825257  22.7989672  24.3819388  12.0012441
  21.9260135  21.1633094  23.3828349  21.3117128  20.6191144  23.6776984
  22.4427420  20.6497330  22.9034165  21.9115797  21.0069503  23.3552577
  14.2818959  17.2702537  24.1861082  14.4412446  16.5145861  24.5912804
  14.1011853  17.8193476  24.8401819  14.2784318  17.2396351  24.3423788
  22.2239262   9.4363772  24.7411871  21.7279823   9.6327447  24.0503438
  22.9808324   9.8356441  24.5700673  22.2626087   9.5241506  24.6132008
  19.4942142  13.1106118  21.3315182  19.5184629  12.5766231  20.6427962
  19.7453615  12.6023427  21.9940772  19.5352060  12.9567022  21.3279826
   7.0049732  20.3937613  20.7658326   6.8993181  20.3484458  19.9010410
   6.2549951  20.7391394  21.0472611   6.8785334  20.4378521  20.6795655
  15.7743464  11.8376936  20.7120926  15.8141836  12.3386143  21.4255633
  14.9493129  11.9287330  20.4426849  15.6582990  11.9258753  20.7771464
  17.9573077  21.4037676  28.8141220  17.1068707  21.5409391  28.9498865
  18.1201205  20.6701455  29.2588922  17.8556940  21.3151778  28.8996820
  15.0041611  11.8446339  28.6451236  15.6294314  11.3008472  28.9180668
  14.5492090  11.3641257  28.0759026  15.0289871  11.6935821  28.6012829
  15.5693871  16.6293038  13.5384943  15.7096832  17.1265502  14.2413584
  16.0676404  15.9279332  13.6799156  15.6634952  16.5995017  13.6636522
  15.5994094  17.4960149  10.8677519  16.2339173  18.0920574  10.8026981
  15.6819704  17.1963606  11.6823390  15.7050645  17.5401057  10.9780606
  28.5776659  20.0275626  23.7363884  29.1694500  20.6672877  23.7682082
  29.0135654  19.3298663  24.0255950  28.7295091  20.0193977  23.7844716
  17.1773076  13.4274124  10.8422961  17.4988917  12.9477207  10.1882224
  17.4400020  14.2373770  10.6513773  17.2639102  13.4764022  10.7178454
  20.4070049  24.4492999  24.3621778  19.8995140  25.0028845  24.8062408
  20.1096695  24.5101289  23.5440552  20.2874934  24.5399310  24.3070234
  22.5732231  12.8146318  23.2046441  22.9987303  12.3618845  22.5929967
  21.9589224  12.2606389  23.4811228  22.5460877  12.6660294  23.1551466
  12.1047081  19.6927990  14.1367065  12.6139311  20.2892497  14.5178371
  12.5781354  19.4253963  13.4543485  12.2490457  19.7413805  14.0921588
  23.0177829  28.3656256  12.2925721  22.3007139  28.1917119  11.8272958
  23.6684567  28.1308829  11.7601207  23.0079680  28.3052049  12.1454939
  21.0126454   9.2861418  16.6137018  20.3694772   9.1359064  17.1822156
  20.6725861   9.0403763  15.8486122  20.8671532   9.2273541  16.5840033
  19.6512534  29.3817557  21.2678784  19.4278189  28.6236386  21.6362811
  19.1622378  29.4115578  20.5459224  19.5455983  29.2739781  21.2155525
  25.7653928  13.6976728  18.9457399  26.1181538  13.2706451  19.6203198
  24.9068730  13.6127572  19.0758476  25.6903373  13.6221469  19.0652410
  14.4637613  16.3284248  17.0040246  13.7449602  16.7448381  17.2713109
  14.8349975  16.8938487  16.4531884  14.4129545  16.4733530  16.9623053
  23.7637194  16.9612097  22.8942242  23.7435121  16.7795392  23.7477020
  23.8116395  17.8324116  22.8701825  23.7671835  17.0628635  23.0165536
  21.7083524  23.5499289  28.8190718  21.6679379  22.9048966  28.2335874
  22.5206842  23.4935906  29.1316130  21.8226677  23.4458256  28.7787667
  18.2990991  29.6018015  18.7215869  17.8851390  28.9392145  18.3319711
  18.9838366  29.7495874  18.2011563  18.3389363  29.5258673  18.5872366
  21.6656285  28.7608100  19.4739486  21.2672569  28.8710371  18.7060306
  21.0507505  28.9690167  20.0566045  21.5155175  28.8081668  19.4470785
  20.2384188  15.3682248  12.3413625  19.6449027  15.6899245  11.7898192
  20.2759465  14.5223343  12.1334731  20.1558577  15.2906576  12.2296397
  27.1977988   8.8195140  19.8741712  26.6908853   8.1124280  19.8062889
  27.9945422   8.4888329  20.0042788  27.2405227   8.6668292  19.8840707
  17.3961233  17.1796226  25.3740476  16.8840136  16.5717409  25.7325507
  17.2240729  17.8952818  25.8414452  17.2950870  17.1959525  25.4956699
  12.2426947  15.6233801  28.0242838  12.0729538  16.2835176  27.4791044
  11.7992897  15.8340362  28.7455327  12.1526281  15.7519783  28.0504467
  16.1686767  13.8638299  17.0669571  16.6444133  14.2255379  16.4319752
  15.6675366  14.5194766  17.3469714  16.1652126  14.0132488  17.0146312
  29.3998128  23.3360067  12.8582576  29.7831734  24.0851423  13.0880673
  28.6042241  23.5825887  12.5994565  29.3391910  23.4829761  12.8540150
  21.2730303  15.1020470  27.8142731  21.8301733  14.8734280  27.1821197
  20.9491368  15.8626136  27.5377944  21.3076713  15.1804307  27.6799228
   9.1429012  18.5280667  23.2831327   8.5955731  17.8581312  23.4012196
   9.9321390  18.1610514  23.3474795   9.1781195  18.3745653  23.3100028
  18.9913420  18.1888124  28.7794738  19.7424747  18.5039800  29.0934293
  19.1835997  17.9867294  27.9528660  19.1304834  18.2055505  28.7038134
  18.2113420  16.0079499  10.4342955  18.5912385  16.0259128   9.6494070
  17.4706016  16.4533488  10.3133803  18.1582258  16.0761273  10.3006523
  25.8398710  14.3161690  16.0218534  25.8392937  14.1610346  16.8802810
  25.6354890  15.1624677  15.9659919  25.8098488  14.4182311  16.1406473
   7.9015981  17.7401474  20.4377350   7.7237742  17.2878083  21.1632266
   7.6135003  18.5427636  20.6215828   7.8328934  17.7924032  20.5720853
  19.0098174  22.8457005  11.8251745  18.2009497  22.5223678  11.7785055
  19.5173083  22.1390227  11.7579994  18.9647841  22.6938321  11.8082040
   9.6388451  20.2729198  17.5499110   8.7733971  20.2614889  17.4381881
   9.7387267  20.0859421  18.3970249   9.5262618  20.2435259  17.6588054
  25.6291381  21.7462879  22.3631870  26.0546453  21.2237301  21.8102295
  25.2648301  22.3443717  21.8420492  25.6377984  21.7573106  22.2040879
  15.2645461  30.0427097  21.1229215  15.5792020  30.8563485  21.1306997
  15.6738874  29.6577315  21.7911374  15.3713559  30.1055799  21.2233307
  22.2169981  25.4597143  18.6933027  22.6881159  26.1737406  18.8623012
  22.5530159  24.8595894  19.2292896  22.3365096  25.4768608  18.7965403
  24.3046965  27.0698457  30.8725099  24.4143931  26.2807017  31.2281846
  24.6337862  26.9804393  30.0699437  24.3699371  26.9404310  30.8067490
  19.1339476  10.2324614  25.6491122  19.2667381   9.4355607  25.9772097
  19.5184628  10.7591017  26.2289397  19.2095804  10.1924531  25.7834625
  22.8543927  25.2515078  25.4560720  22.3064873  24.6272961  25.1880785
  23.3156956  25.4409350  24.7404799  22.8411136  25.1874128  25.3111151
  22.2071831   7.1554940  22.2472215  21.4017794   7.0452670  22.5640053
  22.0778566   7.2567396  21.3902081  22.0691964   7.1538610  22.1680255
  25.6637791  13.3200432  22.8411912  25.0800780  13.8209639  22.4289479
  25.9842085  12.8129988  22.2076235  25.6250967  13.3192267  22.6870419
  18.2032590  12.2341027  13.1170587  19.0248285  12.4039340  12.8752282
  17.7402241  12.3888288  12.3936884  18.2563753  12.2822760  12.9742231
  16.7927922  10.2283789  23.8969016  17.3372335   9.8874916  24.4873357
  16.8464858  11.0869251  24.0390300  16.8817042  10.3039048  24.0050889
  12.6058481  23.9900205  20.7707823  13.2103339  23.9496039  20.1421644
  12.3985794  24.8371357  20.8011879  12.6647378  24.1088208  20.6823940
  22.4202253  26.2566150  21.9870061  23.2400627  26.1129116  22.2486356
  22.1396331  26.8812349  22.5286499  22.4998997  26.3276502  22.1058000
   7.8409763  22.9734823  20.6406747   7.7434041  22.1631094  20.9496803
   8.6238633  22.9526616  20.2553015   7.9425900  22.8501913  20.6293610
  32.0915588  33.0006653  19.7065868  31.2353484  33.1615151  19.7574984
  32.1383242  32.1298717  19.7270929  31.9714700  32.8957455  19.7171934
  21.2506529  38.5708050  17.3618205  21.0156713  37.7375702  17.2550474
  21.3892169  38.8512715  16.5479406  21.2362191  38.4891553  17.2260560
  23.5496616  30.7393780  20.2602513  22.9301648  30.1486427  20.0912528
  23.4480480  31.3305215  19.6266836  23.4434292  30.7397863  20.1407503
  30.6464512  32.4793322  14.5934976  31.3444676  32.6581450  15.0856439
  30.9616844  31.9563661  13.9705366  30.7959849  32.4287094  14.5736986
  23.2765749  34.2846062  22.5046082  23.1524446  34.8708507  23.1395901
  23.9284034  33.7906258  22.8058357  23.3539398  34.2984866  22.6432011
  28.3024090  37.4607779  21.7833593  28.9473093  36.9680222  21.4644542
  28.5425867  37.6032565  22.6099671  28.4334675  37.4085221  21.8583126
  28.8191375  27.8485719  18.6756251  28.4894705  28.2996862  18.0059950
  28.1436377  27.7701882  19.2229257  28.6701812  27.9036854  18.6579474
  36.0267783  23.8371242  16.9205861  35.7121224  24.5274720  17.3526284
  35.5094725  23.7816024  16.2191362  35.9032254  23.9306130  16.8802811
  35.3680217  33.8375742  13.0343272  34.8391688  34.0535376  13.6940578
  35.8905237  34.5311881  12.9544241  35.3668670  33.9718879  13.1198871
  27.2579825  37.7338959  11.8350740  26.6737040  38.2388991  12.2416604
  26.8549920  37.5081346  11.0947332  27.1119129  37.7747208  11.7855765
  27.0247329  25.9098007  14.1579199  27.7793297  26.2776324  13.9196249
  26.8474864  26.2837561  14.9258378  27.1101808  26.0196195  14.2364087
  26.7146957  34.2025483  27.9175106  26.8867461  34.0931378  28.7660388
  27.2516315  34.8479889  27.6806299  26.8191961  34.2817485  28.0080203
  25.3804394  28.3168326  10.8557312  25.1979967  28.5340207  10.0298304
  26.2430007  28.4307339  10.9115926  25.4808984  28.3658224  10.7411799
  24.9918826  40.1556248  18.2980299  25.8307725  40.3879181  18.3454061
  25.0230595  39.2860560  18.2287335  25.1200544  40.0613195  18.2944944
  25.6171529  40.5757123  22.5993605  26.1569754  40.4328255  23.2696977
  24.9341475  40.9753874  22.9677631  25.5963683  40.6136794  22.7528027
  31.0604113  25.3194737  13.8906335  31.7890274  25.1410692  13.4444492
  31.1499006  26.1612817  14.1013513  31.1810775  25.4178615  13.8559853
  21.0208674  36.7957414  22.7528026  20.7547089  35.9796531  22.9119017
  21.0347238  36.8410570  21.8823542  20.9833396  36.6814319  22.6481508
  37.9990068  27.1235229  20.7870460  38.6415976  27.1933334  21.3732375
  38.2513089  26.4564452  20.2850002  38.1312200  27.0361578  20.7997739
  24.9266421  31.5942499   9.3679785  24.2124598  31.3080678   9.7802217
  25.4110390  31.9339125  10.0086172  24.8925784  31.6024148   9.5235419
  25.7707280  30.3335793  25.3995034  25.0779077  29.8632772  25.6455766
  26.3867608  30.1074097  25.9736741  25.7591810  30.2302924  25.5204187
  21.4302088  37.5816194  20.0339771  21.2477661  37.5563080  19.1812063
  22.1651757  38.0515132  20.0728679  21.5116152  37.6477556  19.9137689
  24.4947839  34.3001197  26.5421879  25.2187812  34.2854227  27.0286774
  24.5963976  35.0096552  26.0443848  24.6166048  34.4025900  26.5400666
  34.5424108  34.5034272  15.6965842  34.6370962  35.2423566  16.1505468
  33.9182951  34.0751748  16.1300407  34.4633138  34.5495593  15.8273990
  21.3972998  34.4609694  20.1838837  21.9746501  34.3246145  20.8231083
  20.6987060  34.0045479  20.4384422  21.3794019  34.3731961  20.3161127
  28.1540300  36.1143750  18.3977321  27.8959545  35.2815485  18.3708620
  28.2088783  36.3401363  17.5569821  28.1240078  36.0241521  18.2697457
  33.2341350  28.2172201  18.4981413  32.5297677  27.7281386  18.6565332
  33.2826325  28.2294675  17.6269858  33.1371402  28.1461849  18.3920753
  27.1275012  33.6681512  18.8842215  26.5524604  33.8273681  19.5206176
  26.7510689  33.0316922  18.4210666  26.9877825  33.5979325  18.9096774
  30.7948301  32.1404862  23.7434594  30.4062734  31.7159080  23.0886785
  30.1302999  32.3887011  24.2511620  30.6395229  32.1143583  23.7222462
  16.8731831  33.3121587  16.8986656  16.9592083  32.9353456  17.6800186
  17.5007629  32.9382033  16.4206614  16.9788382  33.2007069  16.9432133
  34.6174663  25.8379491  21.2558578  34.9985174  25.1557662  21.6426452
  33.8137947  25.5489093  21.0734242  34.5551124  25.6946539  21.2862634
  31.8987239  36.3703466  11.9411401  32.7127878  36.6618359  11.8294172
  31.8346381  35.7163329  11.3669694  32.0089978  36.3168661  11.8400238
  27.7695148  39.8424984  17.0683713  28.4069095  39.6036731  17.6135506
  28.1950219  40.0462143  16.3336873  27.9271314  39.8375994  17.0400870
  28.4097963  35.0627274  11.4058602  28.7943115  34.8434980  12.1575147
  28.1609583  35.8890219  11.5359678  28.4300035  35.1525420  11.5359679
  28.5766503  28.3433689  31.1221186  28.2619944  29.1133252  30.8590749
  28.2556436  27.7803945  30.5373413  28.4825422  28.3743957  30.9962536
  26.1298400  26.7324210  16.7367383  25.2620825  26.8046810  16.8024992
  26.4173604  27.5346289  16.9255358  26.0438148  26.8618357  16.7742149
  35.2531289  26.8802070  25.0678704  35.9984881  26.6911880  24.6542130
  34.8368593  27.4060308  24.5092561  35.3016263  26.9304215  24.9243278
  29.2815950  38.0849895  24.5644103  28.7827644  38.7965663  24.6428991
  30.0916175  38.4050562  24.5262265  29.3272057  38.2376744  24.5700671
  25.5444068  37.3472848  18.8106824  25.2557317  36.7210320  19.3452551
  26.4127416  37.2893136  18.8771504  25.6304320  37.2460393  18.8997778
  36.3321966  32.4907632  19.1288806  35.9886732  31.7697967  19.4796055
  36.4315008  32.2821483  18.2867164  36.2964009  32.3531835  19.0560486
  25.7476341  38.9868099  14.7349189  26.5022309  39.3681139  14.9484651
  25.1546954  39.4379243  15.1895885  25.7713055  39.1096927  14.8332067
  28.2083008  30.9430940  29.8606401  27.3982784  31.2488720  29.7496243
  28.6857695  31.6636522  29.9758985  28.1586487  31.0945541  29.8613472
  27.0674568  40.1576661  20.1089304  26.5455322  40.2976952  20.7941169
  27.4548588  39.3987325  20.2991422  27.0478269  40.0662185  20.2390381
  24.0565752  30.2082470  14.1784259  23.7690548  29.8383740  13.4416206
  24.7436220  30.6777325  13.9167964  24.1154649  30.2229439  14.0299335
  28.4940894  37.1880680  15.5070795  28.2983676  37.7955414  14.9131098
  28.7175239  36.4948624  15.0262469  28.4975535  37.1758205  15.3486876
  26.8919424  34.0735418  15.6251664  27.6142076  34.2376576  15.1655470
  26.4127416  34.7945083  15.5191003  26.9283154  34.2033647  15.5417278
  34.8512931  30.4099217  21.0048349  34.0124032  30.4360495  20.7686612
  34.9217299  31.0569952  21.5853695  34.7381325  30.5095342  21.0557465
  24.5427040  36.4793490  24.7305803  25.0548137  36.7577743  24.0814563
  24.2563383  37.2182784  25.0968617  24.5761903  36.6295844  24.6895682
  33.2982209  27.3084594  15.7375964  34.0008562  27.1092342  15.2595923
  33.0326398  26.5360536  16.0444808  33.3628842  27.1647560  15.7121406
  21.6293947  30.9863682  15.0269540  21.7310083  31.7889843  15.3550515
  22.4249833  30.7851018  14.7292621  21.7621852  31.0749581  15.0304895
  28.0610766  28.5719879  24.7906845  27.8693963  28.5875013  25.6406269
  28.9109362  28.7683553  24.7673500  28.1586488  28.6034230  24.9130140
  22.4457679  31.1010860  22.7690662  22.3043171  30.2494801  22.8935170
  22.7298242  31.1439521  21.9452868  22.4665525  30.9810610  22.6658286
  32.5996271  32.9377950  16.9135150  32.3530985  32.8573701  17.7471939
  32.9281394  32.1531418  16.7197677  32.6117515  32.8104216  17.0082673
  28.5593298  35.6734669  26.3258133  28.7036674  36.2535877  25.6901243
  28.9068947  36.0510966  27.0307988  28.6320760  35.8155373  26.3357128
  30.7313216  34.8724837  24.1083265  29.9836530  35.0655852  23.7031543
  30.8854741  34.0470057  23.8707386  30.6435643  34.7789949  24.0128670
  30.9714993  28.7675388  24.9978668  31.4287607  29.4999362  25.1251460
  31.0471322  28.3441853  25.7565924  31.0505963  28.8132626  25.1279745
  23.2147984  29.0141208  26.0868112  22.6790173  28.4021566  26.4028879
  23.2765749  29.5889344  26.7401779  23.1443617  29.0088136  26.2303539
  35.4442319  21.9465263  18.8672511  35.5625887  22.4041727  18.1339814
  35.2704494  21.1410525  18.5808729  35.4361490  21.8959035  18.7173445
  28.8497371  30.7577492  21.8420492  28.0593445  30.5768952  22.1637828
  29.2457994  29.9804445  21.8250787  28.7914247  30.6164953  21.8873041
  31.3635201  33.2337751  26.3243991  31.2994342  34.0947708  26.1964128
  31.5032389  32.9169744  25.5239542  31.3750671  33.3137918  26.1872204
  30.0454295  35.9269891  20.4660194  29.6216544  36.1274390  19.7299212
  29.8699150  35.0798738  20.5784494  29.9565175  35.8318672  20.3733884
  25.3336740  36.4221942  15.8988167  25.4901359  36.3568745  16.7544159
  25.6737333  37.1970494  15.6866846  25.4069975  36.5271140  15.9942761
  31.8715884  35.7979826  14.7681530  32.4131430  35.2950207  15.2320150
  32.1862443  35.7445020  13.9571015  31.9980282  35.7159246  14.7165342
  33.0205154  30.6916130  24.8203830  33.2347123  30.0527044  24.2667184
  32.4039053  31.1361954  24.3911692  32.9610483  30.6626274  24.6754261
  21.9071001  33.6056892  16.2148934  22.2869966  34.0241437  15.5509201
  21.3326366  34.1870348  16.5217777  21.8782326  33.7534751  16.1625675
  35.1844242  32.3005195  25.7587137  34.3720924  31.9931086  25.8400310
  35.6434176  31.8204195  26.3229850  35.1324627  32.1841688  25.8541732
  32.4119882  23.8016066  19.8091173  31.5413440  23.7754787  19.7624483
  32.6660224  23.6293258  18.9917019  32.3213443  23.7726209  19.6811310
  29.4369023  25.8122294  21.2664643  28.9207512  25.1202486  21.3916222
  28.8762952  26.4793071  21.2127242  29.2775536  25.8085552  21.2770709
  31.5061256  26.3515254  23.0957496  31.1193010  26.3764286  23.8771026
  31.0194194  25.7856933  22.6432013  31.3773765  26.2711005  23.1445400
  37.4811236  32.9177909  21.7197198  37.0538844  32.8304258  20.9645298
  36.8437289  33.0255685  22.3052042  37.3240843  32.9210569  21.6942640
  31.1718398  23.2382240  25.3867756  31.8011516  23.7742540  25.1088826
  31.3404261  23.1459599  26.2381322  31.2896193  23.3043602  25.4716284
  30.9732313  28.0253434  27.6594168  31.8005742  27.7538583  27.7152782
  30.9940159  28.8214276  28.0157986  31.0985163  28.1033189  27.7209350
  25.5501803  35.1717297  20.8464428  24.7089809  35.0721171  21.0543322
  25.7591811  35.9412777  21.1978749  25.4566495  35.2709341  20.9291743
  23.0277370  32.7936834  18.6749179  22.6334068  32.8679846  17.8999288
  22.4717487  33.1794780  19.2257541  22.8880182  32.8618609  18.6416839
  34.6642317  25.7718128  18.3553058  34.8691910  25.7040436  19.2010055
  34.3368741  26.5776949  18.2874235  34.6457565  25.8804069  18.4712713
  29.3618468  33.0998696  20.0962026  29.0581605  32.5454685  20.6972433
  28.6597888  33.2790906  19.6090060  29.2134678  33.0443479  20.1131731
  28.4184565  30.4099216  14.6606728  28.6944299  29.6918129  14.2484295
  29.0183234  31.0084136  14.4527834  28.5477829  30.3919587  14.5687489
  37.9176004  26.3249892  17.8355823  37.3050318  26.8120295  18.2209555
  38.0140179  25.6493383  18.3793474  37.8413902  26.2968201  17.9734681
  31.9195085  28.0812734  12.9353323  32.3738832  28.2523294  13.6601167
  32.3935131  27.4680844  12.5351098  32.0563405  28.0163619  12.9827084
  25.4410611  37.5661059  22.2656061  24.8498544  38.2070558  22.2359076
  26.2031634  37.9898677  22.2387361  25.4658871  37.7236898  22.2571208
  25.8371234  28.7263057  22.9324079  26.2972715  28.8001987  23.6699202
  25.8827340  29.5244311  22.5823900  25.9121789  28.8557204  22.9896835
  27.4854583  29.3929752  27.4996106  27.0940148  28.7463099  27.9351884
  27.6540446  29.9841187  28.1190361  27.4525494  29.3844020  27.6558812
  29.2608105  34.7855268  14.0398330  30.0050150  35.1729544  14.2781280
  29.4068801  33.9412693  14.2038818  29.3918690  34.7185741  14.0992300
  31.1787681  26.5805527  19.0730191  30.3323726  26.7528335  18.9471541
  31.1758813  25.7754871  19.4096020  31.0534831  26.4866556  19.1041318
  32.2485981  30.3580741  19.9392249  31.7745935  29.8322503  20.4497560
  32.6204117  29.8110214  19.3707111  32.2335870  30.1996738  19.9307396
  22.6259011  32.3552248  25.3075795  23.4884624  32.2547957  25.2213125
  22.2950794  31.7746957  24.7461367  22.7044208  32.2543875  25.2121201
  34.1769481  31.2517296  13.0018003  33.6492499  31.3346040  12.3123712
  34.6365189  31.9935167  12.9982648  34.1671331  31.3737958  12.8992698
  25.9860797  31.1794697  21.9686213  25.3613867  31.1913089  21.3612166
  25.6506392  31.6554872  22.6177453  25.8446289  31.2513214  21.9742782
  26.1702546  29.5219815   8.0258898  25.8215350  30.1739541   8.4890447
  25.6898992  29.5076928   7.2982769  26.0472790  29.6162869   7.9869989
  22.6986473  39.2395157  23.4089977  22.1686397  38.5487596  23.4584952
  22.9711566  39.2305342  22.5802686  22.6611195  39.1362289  23.2937393
  32.8992718  36.6818402  23.3828349  32.2849712  36.1376452  23.6776984
  33.4160003  36.1682638  22.9034165  32.8848381  36.5254811  23.3552577
  25.2551543  32.7887845  24.1861082  25.4145029  32.0331169  24.5912804
  25.0744436  33.3378784  24.8401819  25.2516902  32.7581658  24.3423788
  33.1971846  24.9549080  24.7411871  32.7012407  25.1512754  24.0503438
  33.9540908  25.3541749  24.5700673  33.2358670  25.0426814  24.6132008
  30.4674725  28.6291426  21.3315182  30.4917212  28.0951538  20.6427962
  30.7186199  28.1208735  21.9940772  30.5084644  28.4752330  21.3279826
  17.9782315  35.9122921  20.7658326  17.8725764  35.8669765  19.9010410
  17.2282535  36.2576702  21.0472611  17.8517918  35.9563829  20.6795655
  26.7476047  27.3562244  20.7120926  26.7874419  27.8571451  21.4255633
  25.9225712  27.4472638  20.4426849  26.6315573  27.4444061  20.7771464
  28.9305660  36.9222984  28.8141220  28.0801291  37.0594699  28.9498865
  29.0933788  36.1886763  29.2588922  28.8289524  36.8337086  28.8996820
  28.1690411  33.8722754  23.0094825  27.3382341  34.0396572  22.8030073
  28.1141928  33.4958705  23.7943710  28.0379826  33.8412486  23.0943353
  25.9774194  27.3631647  28.6451236  26.6026898  26.8193780  28.9180668
  25.5224674  26.8826565  28.0759026  26.0022455  27.2121128  28.6012829
  26.5426455  32.1478346  13.5384943  26.6829416  32.6450810  14.2413584
  27.0408988  31.4464640  13.6799156  26.6367536  32.1180325  13.6636522
  26.5726677  33.0145457  10.8677519  27.2071757  33.6105882  10.8026981
  26.6552288  32.7148914  11.6823390  26.6783228  33.0586365  10.9780606
  28.1505660  28.9459432  10.8422961  28.4721501  28.4662515  10.1882224
  28.4132604  29.7559078  10.6513773  28.2371685  28.9949330  10.7178454
  33.5464815  28.3331626  23.2046441  33.9719886  27.8804153  22.5929967
  32.9321808  27.7791697  23.4811228  33.5193460  28.1845602  23.1551466
  23.0779665  35.2113298  14.1367065  23.5871894  35.8077805  14.5178371
  23.5513937  34.9439271  13.4543485  23.2223041  35.2599113  14.0921588
  31.9859038  24.8046726  16.6137018  31.3427356  24.6544372  17.1822156
  31.6458445  24.5589071  15.8486122  31.8404115  24.7458848  16.5840033
  36.5758384  32.7606153  16.0367026  35.9049574  33.3035855  15.9080092
  37.2698135  33.2301008  15.7948721  36.5787252  32.9104424  15.9822554
  36.7386512  29.2162036  18.9457399  37.0914122  28.7891759  19.6203198
  35.8801313  29.1312880  19.0758476  36.6635956  29.1406777  19.0652410
  25.4370197  31.8469556  17.0040246  24.7182186  32.2633689  17.2713109
  25.8082559  32.4123795  16.4531884  25.3862128  31.9918838  16.9623053
  34.7369778  32.4797405  22.8942242  34.7167705  32.2980700  23.7477020
  34.7848978  33.3509424  22.8701825  34.7404419  32.5813943  23.0165536
  31.2116771  30.8867556  12.3413625  30.6181610  31.2084553  11.7898192
  31.2492049  30.0408651  12.1334731  31.1291160  30.8091884  12.2296397
  34.0874588  30.8447061  15.7715376  33.8588281  30.8679762  14.9293734
  34.3472664  30.0204528  15.8910386  34.0920776  30.7263140  15.6640573
  28.3693816  32.6981534  25.3740476  27.8572719  32.0902717  25.7325507
  28.1973312  33.4138126  25.8414452  28.2683453  32.7144833  25.4956699
  23.2159531  31.1419109  28.0242838  23.0462121  31.8020484  27.4791044
  22.7725481  31.3525670  28.7455327  23.1258864  31.2705091  28.0504467
  27.1419350  29.3823607  17.0669571  27.6176716  29.7440687  16.4319752
  26.6407950  30.0380074  17.3469714  27.1384709  29.5317796  17.0146312
  32.2462886  30.6205778  27.8142731  32.8034317  30.3919588  27.1821197
  31.9223951  31.3811444  27.5377944  32.2809297  30.6989615  27.6799228
  20.1161595  34.0465974  23.2831327  19.5688315  33.3766620  23.4012196
  20.9053973  33.6795822  23.3474795  20.1513779  33.8930961  23.3100028
  29.9646004  33.7073432  28.7794738  30.7157331  34.0225108  29.0934293
  30.1568580  33.5052602  27.9528660  30.1037418  33.7240813  28.7038134
  29.1846003  31.5264807  10.4342955  29.5644968  31.5444436   9.6494070
  28.4438599  31.9718795  10.3133803  29.1314841  31.5946581  10.3006523
  36.8131294  29.8346998  16.0218534  36.8125520  29.6795654  16.8802810
  36.6087474  30.6809985  15.9659919  36.7831072  29.9367619  16.1406473
  18.8748565  33.2586782  20.4377350  18.6970326  32.8063391  21.1632266
  18.5867587  34.0612944  20.6215828  18.8061518  33.3109340  20.5720853
  34.5372146  34.5144500  19.6754741  35.0325811  33.7967495  19.6358761
  33.7271922  34.2115297  19.5609228  34.4916039  34.3642146  19.6528467
  29.9830757  38.3642313  11.8251745  29.1742080  38.0408986  11.7785055
  30.4905666  37.6575535  11.7579994  29.9380424  38.2123629  11.8082040
  20.6121035  35.7914506  17.5499110  19.7466554  35.7800196  17.4381881
  20.7119851  35.6044729  18.3970249  20.4995202  35.7620567  17.6588054
  30.1072059  25.7509922  25.6491122  30.2399965  24.9540915  25.9772097
  30.4917212  26.2776325  26.2289397  30.1828388  25.7109839  25.7834625
  33.1804414  22.6740248  22.2472215  32.3750378  22.5637978  22.5640053
  33.0511150  22.7752704  21.3902081  33.0424547  22.6723918  22.1680255
  36.6370375  28.8385740  22.8411912  36.0533364  29.3394946  22.4289479
  36.9574669  28.3315296  22.2076235  36.5983550  28.8377575  22.6870419
  29.1765174  27.7526335  13.1170587  29.9980868  27.9224648  12.8752282
  28.7134825  27.9073596  12.3936884  29.2296336  27.8008068  12.9742231
  27.7660506  25.7469097  23.8969016  28.3104919  25.4060224  24.4873357
  27.8197442  26.6054559  24.0390300  27.8549625  25.8224356  24.0050889
  23.5791065  39.5085513  20.7707823  24.1835922  39.4681347  20.1421644
  23.3718377  40.3556665  20.8011879  23.6379962  39.6273516  20.6823940
  18.8142347  38.4920131  20.6406747  18.7166625  37.6816402  20.9496803
  19.5971217  38.4711924  20.2553015  18.9158483  38.3687221  20.6293610
  16.6160464   8.8858175   6.0720775  17.2597920   9.3271339   6.4616933
  16.9416720   8.0811602   5.9851033  16.7592293   8.8323370   6.1166252
  19.5628422   1.7255508   8.3680532  19.8451665   0.9306914   8.1467288
  20.2914582   2.2036095   8.3885594  19.7117986   1.6790105   8.3383548
  17.6056248   3.6618724   8.1764273  17.0883189   3.3026139   7.5725581
  18.3030639   3.1380899   8.1870339  17.6321829   3.5316412   8.0894531
  21.2619840   4.1113538  14.1380446  21.3503186   3.9239679  14.9858656
  21.6909552   3.4650968  13.7385293  21.3381942   3.9876546  14.2052197
  18.8290299   3.3944698  13.1198108  18.2661134   2.9817308  13.6437769
  19.5911323   3.3197604  13.5391251  18.8584748   3.3222099  13.2591108
  14.3389769   1.9949947   9.5333652  14.8787994   1.8521078  10.2037024
  13.6559716   2.3946698   9.9017678  14.3181923   2.0329618   9.6868073
  21.3739899   3.5422557  16.8024229  22.1580316   3.6553405  17.1679972
  21.1736494   2.7163695  16.9982915  21.4605924   3.4369277  16.8858615
  21.5310292   5.4532659  10.4490685  20.7325538   5.2132160  10.7064554
  21.9796304   5.5047052  11.1957733  21.4784904   5.4255051  10.5975609
  18.0034191  -0.4957281  11.4984150  17.5045884   0.2158486  11.5769038
  18.8134415  -0.1756615  11.4602312  18.0490298  -0.3430433  11.5040718
  16.3539294   5.2830264  10.1259207  16.5028857   4.7233180   9.4732611
  17.1339296   5.3622266  10.5091725  16.4913387   5.2115830  10.0856156
  18.8792594   5.4544907  11.4043697  18.8036265   4.7853718  11.9594486
  18.8082454   6.1562695  11.9184364  18.8573201   5.4589814  11.5620545
  18.2684229   8.8613227   9.8621698  18.7580159   8.1624016   9.6797363
  17.6968461   8.5637097  10.4497755  18.2568759   8.7139450   9.9222739
  24.4772476   2.4881586  14.0871329  25.1152197   1.9941782  13.7533785
  23.8346568   2.4158987  13.5023556  24.4766703   2.4040595  13.9513684
  24.5326733   3.1801395  10.7276686  25.3219111   2.8290459  10.8478768
  24.7070331   3.9937783  10.4653320  24.6747014   3.2487252  10.7064554
  16.1455059   1.7341240  11.7374170  16.0375414   1.7443302  12.6036228
  16.3550841   2.5596021  11.5479124  16.1605170   1.8582315  11.8378262
  23.9218367   4.4363194   6.6328132  23.7238056   4.9254009   5.9384344
  23.3006078   4.6404436   7.2112266  23.8005932   4.5379733   6.6151356
  20.1020873   1.3871130  11.2961824  19.5945964   1.9406977  11.7402455
  19.8047519   1.4479420  10.4780599  19.9825758   1.4777441  11.2410281
  19.3463358   6.3195688   8.2018831  19.1229013   5.5614517   8.5702858
  18.8573202   6.3493709   7.4799271  19.2406807   6.2117913   8.1495572
  17.9941815   6.5396146   5.6555916  17.5802214   5.8770276   5.2659758
  18.6789190   6.6874005   5.1351610  18.0340187   6.4636804   5.5212413
  21.3607109   5.6986231   6.4079532  20.9623393   5.8088502   5.6400353
  20.7458329   5.9068298   6.9906092  21.2105999   5.7459799   6.3810832
  14.9596285   6.9805228   8.0569262  15.2742844   7.7941616   8.0647044
  15.3689698   6.5955447   8.7251421  15.0664383   7.0433930   8.1573354
  21.9120805   2.3975275   5.6273074  22.3831983   3.1115537   5.7963059
  22.2480983   1.7974025   6.1632943  22.0315920   2.4146739   5.7305450
  23.9997789   4.0076588  17.8065146  24.1094755   3.2185149  18.1621893
  24.3288686   3.9182524  17.0039484  24.0650195   3.8782441  17.7407537
  22.5494751   2.1893209  12.3900766  22.0015697   1.5651092  12.1220832
  23.0107780   2.3787481  11.6744846  22.5361960   2.1252259  12.2451198
  22.1153077   3.1944281   8.9210108  22.9351451   3.0507247   9.1826403
  21.8347155   3.8190480   9.4626546  22.1949821   3.2654633   9.0398047
  31.7866412   9.9384784   6.6405914  30.9304308  10.0993282   6.6915031
  31.8334066   9.0676848   6.6610975  31.6665524   9.8335586   6.6511980
  26.1707552  19.4747502   2.4043146  25.4190452  19.0963040   2.1759191
  26.6193564  19.5065936   1.6561956  26.1257219  19.4233109   2.2600648
  35.0960129  16.2071310  16.2466371  35.8026896  15.7123341  16.3753305
  35.2848064  16.6480391  15.5169029  35.2288035  16.1989660  16.1575416
  31.1636803  21.8487140   3.7739805  31.5476183  22.4174039   3.2344580
  31.0995945  21.1236651   3.2945621  31.2110231  21.8262604   3.6233667
  34.6318233  11.9976828   9.2837566  35.1774193  12.6761915   9.3431536
  34.5735110  11.8564289   8.4239148  34.7034148  12.0768830   9.1649627
  27.7492308  19.4865894   4.6705918  27.8502671  18.6766248   4.9803046
  27.1534054  19.3922841   4.0405597  27.6764847  19.3530922   4.6232157
  27.5893048  24.4043483   6.0720775  28.2330503  24.8456647   6.4616933
  27.9149303  23.5996910   5.9851033  27.7324877  24.3508678   6.1166252
  20.9457353  15.5086181   4.2958252  20.7107537  14.6753833   4.1890521
  21.0842993  15.7890846   3.4819453  20.9313015  15.4269684   4.1600607
  23.2447440   7.6771911   7.1942560  22.6252472   7.0864559   7.0252575
  23.1431304   8.2683347   6.5606883  23.1385116   7.6775994   7.0747549
  28.2913628  17.4155458   1.4440636  28.6129469  17.9560666   0.8401944
  28.9385724  16.8452230   1.5762926  28.4339683  17.4114633   1.3747672
  22.9716573  11.2224193   9.4386129  22.8475270  11.8086639  10.0735948
  23.6234858  10.7284389   9.7398404  23.0490222  11.2362998   9.5772058
  30.5303271  15.8041898   1.5154814  30.9696907  15.1958999   1.9609587
  30.3807934  15.4249272   0.7440279  30.5724737  15.6580369   1.4673982
  27.9974914  14.3985910   8.7173640  28.6423917  13.9058353   8.3984588
  28.2376691  14.5410697   9.5439718  28.1285499  14.3463352   8.7923173
  30.5361005  17.2440816   8.3680532  30.8184248  16.4492222   8.1467288
  31.2647166  17.7221403   8.3885594  30.6850569  17.1975413   8.3383548
  28.5142199   4.7863850   5.6096298  28.1845529   5.2374993   4.9399996
  27.8387201   4.7080013   6.1569304  28.3652636   4.8414985   5.5919521
  26.9530649  14.6717090  -1.2309213  26.3687864  15.1767122  -0.8243349
  26.5500744  14.4459477  -1.9712621  26.8069952  14.7125339  -1.2804188
  22.5074677  20.3871852   5.5714458  22.0242256  21.1122341   5.5474042
  23.3197996  20.6847982   5.6824616  22.5565425  20.5374205   5.5841738
  28.5788831  19.1804032   8.1764273  28.0615773  18.8211447   7.5725581
  29.2763223  18.6566207   8.1870339  28.6054412  19.0501720   8.0894531
  32.2352423  19.6298846  14.1380446  32.3235769  19.4424987  14.9858656
  32.6642136  18.9836276  13.7385293  32.3114526  19.5061854  14.2052197
  29.8022883  18.9130006  13.1198108  29.2393718  18.5002616  13.6437769
  30.5643907  18.8382912  13.5391251  29.8317332  18.8407407  13.2591108
  25.3618875  20.9028027   5.7234738  26.0639454  20.3880017   5.7807495
  25.2816358  21.2302179   6.5281613  25.4542635  20.8742254   5.8507530
  26.4097781  11.1403614  14.8515153  26.5818285  11.0309509  15.7000435
  26.9467139  11.7858020  14.6146346  26.5142785  11.2195616  14.9420250
  24.6869650  17.0934379   5.2320346  25.5258549  17.3257312   5.2794108
  24.7181419  16.2238691   5.1627382  24.8151368  16.9991326   5.2284991
  25.3122353  17.5135255   9.5333652  25.8520578  17.3706386  10.2037024
  24.6292299  17.9132005   9.9017678  25.2914507  17.5514926   9.6868073
  37.7743409  17.0199533   5.4781079  37.3378641  17.0236275   6.2340050
  37.4406324  17.7005032   5.0460657  37.6606029  17.1211988   5.5261912
  32.3472483  19.0607865  16.8024229  33.1312899  19.1738713  17.1679972
  32.1469077  18.2349002  16.9982915  32.4338508  18.9554585  16.8858615
  20.7159498  13.7335545   9.6868073  20.4497913  12.9174662   9.8459064
  20.7298062  13.7788701   8.8163589  20.6784220  13.6192450   9.5821555
  25.4658104   7.2713924  12.3335081  24.7729901   6.8010903  12.5795813
  26.0818432   7.0452228  12.9076788  25.4542634   7.1681056  12.4544234
  32.5042876  20.9717967  10.4490685  31.7058122  20.7317467  10.7064554
  32.9528887  21.0232360  11.1957733  32.4517487  20.9440359  10.5975609
  21.1252912  14.5194325   6.9679818  20.9428485  14.4941211   6.1152110
  21.8602581  14.9893263   7.0068726  21.2066976  14.5855687   6.8477736
  24.1898663  11.2379328  13.4761926  24.9138636  11.2232358  13.9626821
  24.2914800  11.9474683  12.9783894  24.3116872  11.3404031  13.4740713
  31.5643613  14.7178412  18.3410873  30.7716594  15.0321924  18.5263493
  31.6792540  14.9329881  17.5031658  31.4639023  14.7962249  18.2449208
  32.4927406  14.6198616  13.2796170  33.0666267  13.9825860  13.4344734
  32.4142209  14.6202699  12.4105828  32.5660640  14.5263727  13.1742581
  21.0923822  11.3987826   7.1178884  21.6697325  11.2624276   7.7571129
  20.3937884  10.9423610   7.3724468  21.0744843  11.3110092   7.2501174
  27.8491124  13.0521881   5.3317367  27.5910368  12.2193616   5.3048667
  27.9039607  13.2779494   4.4909868  27.8190902  12.9619652   5.2037504
  26.8225836  10.6059644   5.8182262  26.2475428  10.7651812   6.4546223
  26.4461513   9.9695053   5.3550713  26.6828649  10.5357457   5.8436820
  30.4899125   9.0782993  10.6774641  30.1013558   8.6537211  10.0226832
  29.8253823   9.3265143  11.1851667  30.3346053   9.0521714  10.6562508
  16.5682655  10.2499718   3.8326703  16.6542907   9.8731587   4.6140233
  17.1958453   9.8760164   3.3546661  16.6739206  10.1385201   3.8772180
  37.8147553  15.9907594  13.2881023  37.5786191  15.1595658  13.1693084
  38.4590782  15.9393201  13.8735867  37.8742224  15.8605282  13.3566917
  27.4645972  16.7803115   4.0023760  28.1019918  16.5414863   4.5475553
  27.8901043  16.9840274   3.2676920  27.6222138  16.7754125   3.9740917
  22.1558614  19.0191451   7.8858063  22.1962759  19.2906303   7.0577843
  22.7153138  19.5433360   8.3015851  22.2441960  19.1367207   7.8249952
  28.2717327   5.2811820  18.0561233  27.9570768   6.0511383  17.7930796
  27.9507260   4.7182076  17.4713460  28.1776246   5.3122089  17.9302583
  29.8467443  17.2575538   5.6817546  29.9206452  17.0950709   6.5359396
  30.6636950  17.4465727   5.4378027  29.9783802  17.2612280   5.7715571
  23.6073200  17.6033400   2.7111989  22.7811318  17.8495138   2.5846268
  23.6685191  17.5245481   3.5774047  23.4947367  17.6278349   2.8200934
  25.8249224   3.6702341   3.6707429  24.9571649   3.7424941   3.7365039
  26.1124428   4.4724420   3.8595405  25.7388972   3.7996489   3.7082196
  28.9766774  15.0228027  11.4984150  28.4778468  15.7343794  11.5769038
  29.7866999  15.3428693  11.4602312  29.0222881  15.1754875  11.5040718
  26.3277945  22.1977663   3.4791169  26.1078240  21.9075018   4.2717836
  26.1072467  21.5392618   2.9509081  26.2625539  22.0577371   3.5180078
  25.2394892  14.2850980   5.7446871  24.9508141  13.6588451   6.2792598
  26.1078240  14.2271267   5.8111551  25.3255144  14.1838524   5.8337825
  25.4427165  15.9246231   1.6689236  26.1973133  16.3059270   1.8824698
  24.8497778  16.3757374   2.1235932  25.4663879  16.0475058   1.7672114
  27.9033832   7.8809071  16.7946448  27.0933608   8.1866851  16.6836290
  28.3808519   8.6014653  16.9099032  27.8537311   8.0323672  16.7953519
  26.7625392  17.0954792   7.0429351  26.2406145  17.2355084   7.7281216
  27.1499412  16.3365456   7.2331468  26.7429093  17.0040316   7.1730428
  28.1891718  14.1258811   2.4410842  27.9934500  14.7333546   1.8471145
  28.4126063  13.4326755   1.9602516  28.1926359  14.1136337   2.2826923
  26.5870248  11.0113549   2.5591710  27.3092899  11.1754707   2.0995516
  26.1078240  11.7323214   2.4531050  26.6233978  11.1411779   2.4757324
  34.5463755   7.3477348   7.9388395  33.7074856   7.3738627   7.7026659
  34.6168122   7.9948083   8.5193742  34.4332149   7.4473474   7.9897512
  24.2377864  13.4171621  11.6645850  24.7498961  13.6955875  11.0154610
  23.9514207  14.1560915  12.0308663  24.2712727  13.5673975  11.6235728
  27.7561590   5.5098010  11.7246892  27.5644787   5.5253144  12.5746315
  28.6060186   5.7061684  11.7013547  27.8537312   5.5412361  11.8470187
  22.1408503   8.0388991   9.7030708  21.9993994   7.1872932   9.8275216
  22.4249066   8.0817652   8.8792914  22.1616349   7.9188741   9.5998332
  36.1895144  16.5839441   7.6361978  36.0509503  17.2820487   8.1410720
  35.4095142  16.4288097   7.2798160  36.0538371  16.6639608   7.6588252
  34.5273229  12.8835816  13.8884360  34.5221267  12.0115633  13.8926786
  35.2334223  13.0823985  13.4153815  34.6318233  12.7839690  13.8191395
  28.2544122  12.6112800  13.2598180  28.3987498  13.1914008  12.6241290
  28.6019771  12.9889097  13.9648034  28.3271584  12.7533504  13.2697175
  30.4264040  11.8102969  11.0423311  29.6787354  12.0033983  10.6371589
  30.5805565  10.9848188  10.8047433  30.3386467  11.7168080  10.9468717
  27.3271877  20.8015572  10.1259207  27.4761441  20.2418488   9.4732611
  28.1071879  20.8807574  10.5091725  27.4645971  20.7301137  10.0856156
  29.8525178  20.9730215  11.4043697  29.7768849  20.3039025  11.9594486
  29.7815037  21.6748003  11.9184364  29.8305785  20.9775122  11.5620545
  30.6665817   5.7053519  11.9318715  31.1238431   6.4377494  12.0591507
  30.7422145   5.2819985  12.6905971  30.7456787   5.7510757  12.0619792
  22.9098808   5.9519339  13.0208159  22.3740997   5.3399697  13.3368926
  22.9716573   6.5267475  13.6741825  22.8394441   5.9466267  13.1643585
  30.5095425  19.4931214   2.2367303  31.2745316  19.2240858   1.9149968
  30.4073515  19.0081224   2.9537366  30.6076920  19.3820778   2.2947131
  28.5448195   7.6955623   8.7760539  27.7544269   7.5147083   9.0977875
  28.9408817   6.9182576   8.7590834  28.4865071   7.5543084   8.8213087
  33.9291881  15.3298053   6.5019985  33.2536883  15.0983286   7.0033372
  33.9384257  14.7219236   5.8762090  33.8310385  15.2056979   6.4836137
  31.0586025  10.1715882  13.2584038  30.9945166  11.0325839  13.1304175
  31.1983213   9.8547876  12.4579589  31.0701495  10.2516049  13.1212251
  29.7405119  12.8648022   7.4000241  29.3167368  13.0652521   6.6639259
  29.5649974  12.0176870   7.5124541  29.6515999  12.7696803   7.3073931
  29.2416812  24.3798535   9.8621698  29.7312743  23.6809324   9.6797363
  28.6701045  24.0822405  10.4497755  29.2301342  24.2324758   9.9222739
  25.0287564  13.3600073   2.8328213  25.1852183  13.2946876   3.6884205
  25.3688157  14.1348626   2.6206893  25.1020799  13.4649271   2.9282808
  35.4383816  16.9460604  18.8148489  36.2518681  16.6745753  18.9753621
  35.2778782  16.6468144  18.0108685  35.5353764  16.8615530  18.7193895
  32.7155978   7.6294261  11.7543877  32.9297947   6.9905175  11.2007231
  32.0989877   8.0740085  11.3251739  32.6561307   7.6004405  11.6094308
  21.6021825  10.5435024   3.1488981  21.9820790  10.9619569   2.4849248
  21.0277190  11.1248479   3.4557824  21.5733150  10.6912882   3.0965722
  34.8795066   9.2383326  12.6927184  34.0671747   8.9309217  12.7740357
  35.3385000   8.7582327  13.2569896  34.8275451   9.1219819  12.7881778
  34.2900320  17.1162998   3.1404129  33.9314975  17.2877641   3.9168161
  33.8039031  17.5776204   2.5832127  34.1659017  17.2101969   3.1729398
  31.9748573  10.6443398  17.4755886  32.4448204  11.2685514  17.8623761
  32.0210453   9.9760373  18.0349101  32.0516449  10.6378078  17.6155958
  35.4505060  18.0066894  14.0871329  36.0884780  17.5127090  13.7533785
  34.8079151  17.9344295  13.5023556  35.4499286  17.9225903  13.9513684
  30.6683137   4.9631566  14.5934214  31.4956566   4.6916714  14.6492829
  30.6890983   5.7592407  14.9498032  30.7935987   5.0411320  14.6549397
  35.5059316  18.6986703  10.7276686  36.2951695  18.3475767  10.8478768
  35.6802914  19.5123091  10.4653320  35.6479598  18.7672560  10.7064554
  25.2452627  12.1095428   7.7804475  24.4040633  12.0099303   7.9883369
  25.4542635  12.8790909   8.1318796  25.1517319  12.2087472   7.8631790
  22.7228194   9.7314965   5.6089226  22.3284892   9.8057977   4.8339335
  22.1668311  10.1172912   6.1597587  22.5831006   9.7996740   5.5756885
  29.0569292  10.0376828   7.0302073  28.7532429   9.4832816   7.6312480
  28.3548712  10.2169037   6.5430107  28.9085501   9.9821610   7.0471778
  27.1187643  17.2526548  11.7374170  27.0107998  17.2628610  12.6036228
  27.3283424  18.0781329  11.5479124  27.1337754  17.3767623  11.8378262
  25.1361435  14.5039191   9.1996108  24.5449368  15.1448689   9.1699123
  25.8982458  14.9276808   9.1727407  25.1609695  14.6615029   9.1911255
  25.5322057   5.6641188   9.8664125  25.9923539   5.7380118  10.6039249
  25.5778164   6.4622442   9.5163947  25.6072613   5.7935335   9.9236882
  27.1805407   6.3307883  14.4336153  26.7890972   5.6841230  14.8691930
  27.3491270   6.9219319  15.0530408  27.1476318   6.3222151  14.5898859
  34.8950951  19.9548502   6.6328132  34.6970640  20.4439317   5.9384344
  34.2738662  20.1589744   7.2112266  34.7738515  20.0565040   6.6151356
  31.9436805   7.2958872   6.8732296  31.4696759   6.7700634   7.3837607
  32.3154941   6.7488345   6.3047157  31.9286694   7.1374869   6.8647443
  22.3209835   9.2930379  12.2415842  23.1835448   9.1926088  12.1553172
  21.9901618   8.7125088  11.6801414  22.3995032   9.1922006  12.1461248
  38.2073536  12.3561248   8.2839076  37.9671759  11.5167663   8.2881503
  38.6865543  12.4361415   9.0079850  38.2425719  12.2442648   8.3913879
  36.8124753  13.5212655  12.1673381  37.5358952  13.0685181  11.9884401
  36.5474715  13.8017320  11.3845709  36.8806026  13.4963623  12.0252096
  25.6811621   8.1172828   8.9026260  25.0564691   8.1291220   8.2952213
  25.3457216   8.5933003   9.5517500  25.5397113   8.1891345   8.9082828
  22.3937297  16.1773288  10.3430024  21.8637221  15.4865727  10.3924999
  22.6662390  16.1683473   9.5142733  22.3562019  16.0740420  10.2277440
  32.5943542  13.6196533  10.3168396  31.9800535  13.0754583  10.6117031
  33.1110827  13.1060769   9.8374212  32.5799205  13.4632942  10.2892624
  31.8339840  14.6900803   8.0512694  31.4067448  14.0650521   7.6178130
  31.8264784  14.4075725   8.8771702  31.7698981  14.5553583   8.1092522
  24.9502367   9.7265976  11.1201128  25.1095853   8.9709300  11.5252850
  24.7695260  10.2756915  11.7741866  24.9467726   9.6959790  11.2763834
  30.1625549   5.5669557   8.2655228  30.1868036   5.0329670   7.5768008
  30.4137023   5.0586866   8.9280819  30.2035468   5.4130461   8.2619873
  17.6733139  12.8501052   7.6998372  17.5676588  12.8047897   6.8350457
  16.9233359  13.1954833   7.9812657  17.5468742  12.8941960   7.6135702
  26.4426871   4.2940376   7.6460973  26.4825243   4.7949582   8.3595680
  25.6176536   4.3850769   7.3766896  26.3266397   4.3822192   7.7111511
  28.6256484  13.8601116  15.7481267  27.7752115  13.9972830  15.8838912
  28.7884612  13.1264894  16.1928969  28.5240348  13.7715217  15.8336866
  27.8641235  10.8100885   9.9434872  27.0333164  10.9774703   9.7370120
  27.8092752  10.4336836  10.7283757  27.7330650  10.7790617  10.0283400
  25.6725018   4.3009778  15.5791282  26.2977721   3.7571911  15.8520715
  25.2175498   3.8204696  15.0099073  25.6973279   4.1499260  15.5352876
  31.0753457  16.9056438  11.2961824  30.5678548  17.4592285  11.7402455
  30.7780103  16.9664728  10.4780599  30.9558342  16.9962749  11.2410281
  33.2415639   5.2709757  10.1386487  33.6670710   4.8182284   9.5270014
  32.6272632   4.7169828  10.4151275  33.2144284   5.1223734  10.0891513
  22.7730489  12.1491429   1.0707112  23.2822718  12.7455936   1.4518418
  23.2464761  11.8817402   0.3883532  22.9173865  12.1977244   1.0261635
  30.3195942  21.8380996   8.2018831  30.0961596  21.0799825   8.5702858
  29.8305785  21.8679017   7.4799271  30.2139391  21.7303220   8.1495572
  25.1321021   8.7847687   3.9380293  24.4133010   9.2011820   4.2053156
  25.5033383   9.3501926   3.3871931  25.0812952   8.9296969   3.8963100
  34.4320601   9.4175536   9.8282288  34.4118529   9.2358831  10.6817067
  34.4799802  10.2887555   9.8041872  34.4355242   9.5192074   9.9505583
  32.3766931  16.0062728  15.7530765  32.3362786  15.3612405  15.1675921
  33.1890250  15.9499346  16.0656177  32.4910085  15.9021695  15.7127714
  28.9674399  22.0581454   5.6555916  28.5534797  21.3955584   5.2659758
  29.6521773  22.2059313   5.1351610  29.0072771  21.9822112   5.5212413
  32.3339693  21.2171539   6.4079532  31.9355976  21.3273810   5.6400353
  31.7190913  21.4253606   6.9906092  32.1838582  21.2645107   6.3810832
  28.0644640   9.6359665  12.3080523  27.5523543   9.0280848  12.6665554
  27.8924136  10.3516257  12.7754498  27.9634277   9.6522964  12.4296746
  22.9110355   8.0797240  14.9582884  22.7412945   8.7398615  14.4131091
  22.4676305   8.2903801  15.6795374  22.8209688   8.2083222  14.9844514
  26.8370174   6.3201738   4.0009618  27.3127540   6.6818818   3.3659799
  26.3358774   6.9758206   4.2809761  26.8335533   6.4695927   3.9486359
  31.9413710   7.5583909  14.7482778  32.4985141   7.3297719  14.1161244
  31.6174775   8.3189575  14.4717991  31.9760121   7.6367746  14.6139275
  19.8112419  10.9844106  10.2171374  19.2639139  10.3144751  10.3352243
  20.6004797  10.6173953  10.2814841  19.8464603  10.8309092  10.2440075
  29.6596828  10.6451563  15.7134785  30.4108155  10.9603240  16.0274339
  29.8519404  10.4430734  14.8868707  29.7988242  10.6618944  15.6378181
  18.5699389  10.1964913   7.3717397  18.3921150   9.7441522   8.0972313
  18.2818411  10.9991075   7.5555875  18.5012342  10.2487471   7.5060900
  34.2322970  11.4522631   6.6094788  34.7276635  10.7345626   6.5698808
  33.4222746  11.1493428   6.4949275  34.1866863  11.3020277   6.5868513
  20.3071859  12.7292637   4.4839156  19.4417378  12.7178328   4.3721928
  20.4070674  12.5422860   5.3310296  20.1946026  12.6998698   4.5928101
  36.2974789  14.2026318   9.2971916  36.7229860  13.6800740   8.7442341
  35.9331709  14.8007156   8.7760539  36.3061391  14.2136545   9.1380926
  25.9328869  22.4990536   8.0569262  26.2475427  23.3126924   8.0647044
  26.3422282  22.1140754   8.7251421  26.0396966  22.5619238   8.1573354
  32.8853388  17.9160583   5.6273074  33.3564566  18.6300845   5.7963059
  33.2213567  17.3159333   6.1632943  33.0048503  17.9332047   5.7305450
  34.9730373  19.5261896  17.8065146  35.0827338  18.7370456  18.1621893
  35.3021269  19.4367832  17.0039484  35.0382779  19.3967749  17.7407537
  33.5227334  17.7078517  12.3900766  32.9748280  17.0836400  12.1220832
  33.9840363  17.8972789  11.6744846  33.5094544  17.6437567  12.2451198
  27.4611330   2.6847228  10.8309062  28.0055743   2.3438355  11.4213404
  27.5148266   3.5432690  10.9730347  27.5500449   2.7602488  10.9390936
  23.2741889  16.4463644   7.7047870  23.8786746  16.4059478   7.0761691
  23.0669201  17.2934796   7.7351926  23.3330786  16.5651647   7.6163987
  33.0885661  18.7129589   8.9210108  33.9084035  18.5692555   9.1826403
  32.8079738  19.3375788   9.4626546  33.1682404  18.7839941   9.0398047
  18.5093171  15.4298262   7.5746793  18.4117449  14.6194533   7.8836850
  19.2922041  15.4090055   7.1893062  18.6109307  15.3065352   7.5633656
  34.2180024  23.1957219   7.1942560  33.5985055  22.6049867   7.0252575
  34.1163887  23.7868655   6.5606883  34.1117699  23.1961302   7.0747549
  33.9449157  26.7409501   9.4386129  33.8207854  27.3271947  10.0735948
  34.5967441  26.2469697   9.7398404  34.0222806  26.7548305   9.5772058
  37.3830365  26.6588922  14.8515153  37.5550868  26.5494817  15.7000435
  37.9199722  27.3043328  14.6146346  37.4875369  26.7380924  14.9420250
  31.6892082  29.2520853   9.6868073  31.4230497  28.4359970   9.8459064
  31.7030646  29.2974009   8.8163589  31.6516804  29.1377758   9.5821555
  36.4390688  22.7899232  12.3335081  35.7462485  22.3196211  12.5795813
  37.0551015  22.5637536  12.9076788  36.4275218  22.6866363  12.4544234
  35.1631247  26.7564636  13.4761926  35.8871219  26.7417666  13.9626821
  35.2647383  27.4659991  12.9783894  35.2849456  26.8589339  13.4740713
  32.0656406  26.9173133   7.1178884  32.6429908  26.7809584   7.7571129
  31.3670467  26.4608918   7.3724468  32.0477427  26.8295400   7.2501174
  27.5415239  25.7685026   3.8326703  27.6275491  25.3916895   4.6140233
  28.1691036  25.3945472   3.3546661  27.6471790  25.6570509   3.8772180
  36.7981807  19.1887649   3.6707429  35.9304233  19.2610249   3.7365039
  37.0857012  19.9909728   3.8595405  36.7121556  19.3181796   3.7082196
  35.2110448  28.9356929  11.6645850  35.7231545  29.2141183  11.0154610
  34.9246790  29.6746223  12.0308663  35.2445311  29.0859283  11.6235728
  33.1141086  23.5574299   9.7030708  32.9726578  22.7058240   9.8275216
  33.3981650  23.6002960   8.8792914  33.1348932  23.4374049   9.5998332
  33.8831392  21.4704647  13.0208159  33.3473581  20.8585005  13.3368926
  33.9449156  22.0452783  13.6741825  33.8127024  21.4651575  13.1643585
  36.5054641  21.1826496   9.8664125  36.9656123  21.2565426  10.6039249
  36.5510748  21.9807750   9.5163947  36.5805196  21.3120643   9.9236882
  38.1537991  21.8493191  14.4336153  37.7623556  21.2026538  14.8691930
  38.3223854  22.4404626  15.0530408  38.1208901  21.8407459  14.5898859
  33.2942419  24.8115687  12.2415842  34.1568032  24.7111396  12.1553172
  32.9634202  24.2310396  11.6801414  33.3727615  24.7107314  12.1461248
  36.6544205  23.6358136   8.9026260  36.0297275  23.6476528   8.2952213
  36.3189800  24.1118311   9.5517500  36.5129697  23.7076653   8.9082828
  33.3669880  31.6958596  10.3430024  32.8369805  31.0051035  10.3924999
  33.6394974  31.6868781   9.5142733  33.3294603  31.5925728  10.2277440
  35.9234950  25.2451284  11.1201128  36.0828437  24.4894608  11.5252850
  35.7427844  25.7942223  11.7741866  35.9200309  25.2145098  11.2763834
  28.6465723  28.3686360   7.6998372  28.5409172  28.3233205   6.8350457
  27.8965943  28.7140141   7.9812657  28.5201326  28.4127268   7.6135702
  37.4159455  19.8125684   7.6460973  37.4557827  20.3134890   8.3595680
  36.5909120  19.9036077   7.3766896  37.2998981  19.9007500   7.7111511
  36.6457602  19.8195086  15.5791282  37.2710305  19.2757219  15.8520715
  36.1908082  19.3390004  15.0099073  36.6705862  19.6684568  15.5352876
  33.8842938  23.5982548  14.9582884  33.7145529  24.2583923  14.4131091
  33.4408888  23.8089109  15.6795374  33.7942272  23.7268530  14.9844514
  30.7845003  26.5029414  10.2171374  30.2371722  25.8330059  10.3352243
  31.5737381  26.1359261  10.2814841  30.8197186  26.3494400  10.2440075
  29.5431972  25.7150221   7.3717397  29.3653733  25.2626830   8.0972313
  29.2550994  26.5176383   7.5555875  29.4744925  25.7672779   7.5060900
   1.3370141  19.6848259  21.4702975   1.2694641  19.7044218  20.6005562
   1.3225804  20.5278586  21.6958646   1.3248898  19.8121994  21.3755452
   6.3583686  33.6397657  14.6778298   6.3277691  34.4942294  14.8496567
   6.9565035  33.3392950  15.2364441   6.4420844  33.7214154  14.7853100
   3.4935566  23.5637897  16.6471222   3.1789007  24.2541375  17.0791644
   2.9762507  23.5082679  15.9456723   3.3700036  23.6572785  16.6068171
   7.7850011  31.7859103  21.9292098   6.9478432  31.8561290  22.1639693
   7.7538242  31.7883598  21.0566401   7.6568293  31.7969330  21.8351646
   5.4657850  26.8501884  20.5135821   6.1083759  26.9199989  21.0997736
   5.7180871  26.1831107  20.0115363   5.5979983  26.7628233  20.5263100
   7.9039353  31.6246522  16.2447784   7.6475918  30.8126463  16.0545667
   8.7468667  31.6324089  16.0177971   7.9905378  31.5058519  16.1832601
   2.0842445  25.5646146  20.9823938   2.4652957  24.8824317  21.3691813
   1.2805729  25.2755748  20.7999603   2.0218907  25.4213194  21.0127994
  12.3102725  35.2033567  21.4702975  12.2427225  35.2229526  20.6005562
  12.2958387  36.0463894  21.6958646  12.2981481  35.3307302  21.3755452
   2.7199071  26.6068725  24.7944065   3.4652663  26.4178535  24.3807490
   2.3036376  27.1326963  24.2357921   2.7684046  26.6570870  24.6508638
  10.0961342  33.9777953  19.7449570  10.6469264  33.3446022  19.9846662
  10.0805458  34.5093346  20.4365074  10.1746539  33.9626901  19.8828428
   3.7989748  32.2174287  18.8554166   3.4554514  31.4964622  19.2061416
   3.8982791  32.0088138  18.0132524   3.7631791  32.0798490  18.7825846
   2.3180714  30.1365872  20.7313709   1.4791814  30.1627151  20.4951972
   2.3885081  30.7836607  21.3119056   2.2049107  30.2361998  20.7822826
   2.9110101  21.6731919  18.5937872   3.0293669  22.1308382  17.8605174
   2.7372277  20.8677180  18.3074089   2.9029272  21.6225691  18.4438805
   2.6512024  32.0271850  25.4852498   1.8388706  31.7197741  25.5665671
   3.1101959  31.5470851  26.0495210   2.5992409  31.9108343  25.5807092
   4.9479018  32.6444564  21.4462559   4.5206627  32.5570913  20.6910658
   4.3105071  32.7522340  22.0317403   4.7908626  32.6477224  21.4208000
   2.1310099  25.4984783  18.0818418   2.3359693  25.4307091  18.9275415
   1.8036523  26.3043605  18.0139596   2.1125347  25.6070724  18.1978073
   5.3843787  26.0516548  17.5621184   4.7718100  26.5386950  17.9474916
   5.4807962  25.3760038  18.1058835   5.3081685  26.0234856  17.7000042
   1.6437263  30.9783951  12.7283363   1.1160282  31.0612695  12.0389072
   2.1032972  31.7201822  12.7248008   1.6339114  31.1004613  12.6258059
   7.9795681  31.9251229  19.0293649   7.7405451  31.8847063  18.1914434
   8.1429583  32.7722381  19.1559370   7.9685985  32.0443314  18.9247131
   4.0426167  32.4872808  15.7632387   3.3717357  33.0302510  15.6345452
   4.7365917  32.9567663  15.5214081   4.0455034  32.6371079  15.7087914
   4.2054294  28.9428692  18.6722760   4.5581904  28.5158415  19.3468559
   3.3469096  28.8579535  18.8023836   4.1303739  28.8673432  18.7917770
   2.2037560  32.2064060  22.6207602   2.1835487  32.0247355  23.4742381
   2.2516761  33.0776079  22.5967186   2.2072201  32.3080598  22.7430897
   5.6378354  24.0647103  19.6007072   5.1309219  23.3576243  19.5328250
   6.4345788  23.7340292  19.7308149   5.6805594  23.9120255  19.6106067
   1.5542370  30.5713716  15.4980736   1.3256063  30.5946417  14.6559094
   1.8140446  29.7471183  15.6175747   1.5588558  30.4529796  15.3905934
   4.2799076  29.5613653  15.7483894   4.2793303  29.4062310  16.6068171
   4.0755256  30.4076640  15.6925280   4.2498854  29.6634274  15.8671834
   4.1038157  28.5652395  22.5677272   3.5201146  29.0661602  22.1554840
   4.4242451  28.0581951  21.9341596   4.0651333  28.5644230  22.4135780
  13.8842685  37.1917226  18.5937872  14.0026253  37.6493690  17.8605174
  13.7104861  36.3862488  18.3074089  13.8761856  37.1410999  18.4438805
   2.5627912  15.9337965  15.9731731   3.2694679  15.4389996  16.1018665
   2.7515847  16.3747047  15.2434389   2.6955817  15.9256315  15.8840776
   7.9846876  16.0766833   5.0681724   7.1544579  16.2877477   5.2315140
   7.9356129  15.2503888   4.7924007   7.8553612  15.9856440   5.0519089
   7.4800835   8.7237234   8.8632145   6.6429256   8.7939421   9.0979740
   7.4489066   8.7261729   7.9906447   7.3519117   8.7347461   8.7691693
   5.2411192  16.7466188   5.2046440   4.8046423  16.7502930   5.9605411
   4.9074107  17.4271687   4.7726017   5.1273811  16.8478644   5.2527272
   5.2815336  15.7174249  13.0146384   5.0453973  14.8862314  12.8958444
   5.9258565  15.6659856  13.6001228   5.3410007  15.5871937  13.0832277
   6.3051757  15.5018698   9.0774678   5.9997574  16.2346754   9.4387994
   5.5857972  15.0956627   8.7967464   6.1539099  15.5500431   9.0887815
  12.0053549  12.1411698   8.4043022  11.9378049  12.1607657   7.5345609
  11.9909211  12.9842026   8.6298693  11.9932305  12.2685433   8.3095499
   9.7912166  10.9156085   6.6789617  10.3420088  10.2824154   6.9186709
   9.7756281  11.4471477   7.3705121   9.8697362  10.9005033   6.8168475
   3.6562926  16.3106096   7.3627338   3.5177286  17.0087142   7.8676081
   2.8762924  16.1554753   7.0063520   3.5206153  16.3906263   7.3853612
   1.9941012  12.6102472  13.6149720   1.9889050  11.7382288  13.6192146
   2.7002005  12.8090641  13.1419176   2.0986016  12.5106346  13.5456755
   2.9051598  16.6727259  18.5413849   3.7186464  16.4012408  18.7018982
   2.7446565  16.3734799  17.7374045   3.0021547  16.5882185  18.4459255
   2.3462848   8.9649982  12.4192545   1.5339530   8.6575872  12.5005717
   2.8052783   8.4848982  12.9835257   2.2943233   8.8486474  12.5147139
   2.9172842  17.7333550  13.8136690   3.5552563  17.2393745  13.4799146
   2.2746934  17.6610950  13.2288917   2.9167069  17.6492558  13.6779045
   2.9727099  18.4253358  10.4542047   3.7619477  18.0742423  10.5744128
   3.1470697  19.2389746  10.1918680   3.1147381  18.4939215  10.4329915
   8.7219639  14.0611616   9.9238747   8.7802762  14.5098264  10.6698723
   8.0886106  14.4710428   9.4868827   8.6370934  14.1885350   9.9691295
   2.3618733  19.6815157   6.3593493   2.1638422  20.1705972   5.6649704
   1.7406445  19.8856399   6.9377626   2.2406298  19.7831696   6.3416716
   5.6741318  12.0827903   8.0104437   5.4339541  11.2434318   8.0146863
   6.1533325  12.1628070   8.7345210   5.7093502  11.9709303   8.1179239
   4.2792535  13.2479310  11.8938741   5.0026734  12.7951836  11.7149761
   4.0142498  13.5283975  11.1111069   4.3473809  13.2230278  11.7517457
   6.7127849  12.2105721  10.3969291   7.3045690  12.8502971  10.4287489
   7.1486844  11.5128757  10.6861358   6.8646281  12.2024071  10.4450124
   3.7642571  13.9292973   9.0237277   4.1897643  13.4067395   8.4707702
   3.3999491  14.5273811   8.5025900   3.7729174  13.9403201   8.8646287
   2.4398155  19.2528551  17.5330506   2.5495121  18.4637112  17.8887254
   2.7689052  19.1634487  16.7304844   2.5050561  19.1234404  17.4672897
  17.0267094  26.0961096   1.6118344  16.9961098  26.9505733   1.7836614
  17.6248442  25.7956389   2.1704488  17.1104252  26.1777593   1.7193147
  10.2266779  25.1836747   6.3671275   9.3704674  25.3445246   6.4180392
  10.2734432  24.3128811   6.3876336  10.1065890  25.0787549   6.3777341
  13.5360495  31.4523273  15.9731731  14.2427262  30.9575304  16.1018665
  13.7248431  31.8932354  15.2434389  13.6688401  31.4441623  15.8840776
  13.0718600  27.2428791   9.0102927  13.6174560  27.9213878   9.0696896
  13.0135476  27.1016252   8.1504508  13.1434514  27.3220793   8.8914987
  14.8483668  28.6713398  -0.1163346  14.7323194  29.4221084   0.3128792
  15.6439555  28.4137352   0.1332741  14.9488258  28.7448245  -0.0159254
   1.6847806  22.9223875   6.9207920   1.0652838  22.3316522   6.7517935
   1.5831670  23.5135310   6.2872244   1.5785482  22.9227957   6.8012910
   8.7815702  24.6623416   1.2540383   9.4795867  24.8411544   1.7461847
   9.0968034  24.1393756   0.6310773   8.9311039  24.6117188   1.2342394
   1.4116939  26.4676156   9.1651489   1.2875636  27.0538602   9.8001308
   2.0635224  25.9736352   9.4663764   1.4890589  26.4814961   9.3037419
   6.4375280  29.6437873   8.4439000   7.0824283  29.1510316   8.1249949
   6.6777057  29.7862660   9.2705079   6.5685865  29.5915315   8.5188534
   8.9761372  32.4892779   8.0945893   9.2584614  31.6944185   7.8732649
   9.7047532  32.9673366   8.1150954   9.1250935  32.4427376   8.0648908
   6.9542565  20.0315813   5.3361658   6.6245895  20.4826957   4.6665357
   6.2787567  19.9531976   5.8834664   6.8053002  20.0866948   5.3184881
  14.1618973  16.0201336   3.5811269  13.8472414  16.7104814   4.0131691
  13.6445915  15.9646118   2.8796769  14.0383444  16.1136224   3.5408218
  13.5031407  26.0205837  -0.3051321  12.9742878  26.2365470   0.3545985
  14.0256427  26.7141975  -0.3850351  13.5019860  26.1548974  -0.2195722
  18.9579460  31.5952141   5.0681724  18.1277163  31.8062785   5.2315140
  18.9088712  30.7689196   4.7924007  18.8286195  31.5041748   5.0519089
  10.6752789  34.8750809  13.8645806  10.7636135  34.6876950  14.7124017
  11.1042502  34.2288239  13.4650653  10.7514892  34.7513817  13.9317558
   8.2423249  34.1581969  12.8463468   7.6794084  33.7454579  13.3703130
   9.0044273  34.0834875  13.2656612   8.2717698  34.0859370  12.9856469
  18.4533418  24.2422542   8.8632145  17.6161839  24.3124729   9.0979740
  18.4221649  24.2447037   7.9906447  18.3251701  24.2532769   8.7691693
   4.8498147  26.3855578  14.5780514   5.0218651  26.2761472  15.4265795
   5.3867505  27.0309983  14.3411706   4.9543151  26.4647579  14.6685610
  13.1763604  28.4378218   4.4544037  13.9321119  28.8709733   4.4932945
  13.2825928  27.7882988   5.0278673  13.3033775  28.4055702   4.5442062
  16.2143775  32.2651496   5.2046440  15.7779007  32.2688238   5.9605411
  15.8806691  32.9456995   4.7726017  16.1006395  32.3663951   5.2527272
  10.7872849  34.3059828  16.5289590  11.5713265  34.4190676  16.8945332
  10.5869443  33.4800966  16.7248276  10.8738874  34.2006548  16.6123976
  16.1341258  19.3065323   7.4475867  16.7767166  19.3763428   8.0337783
  16.3864279  18.6394546   6.9455409  16.2663390  19.2191672   7.4603147
   3.9058471  22.5165887  12.0600441   3.2130267  22.0462867  12.3061173
   4.5218798  22.2904191  12.6342149   3.8943000  22.4133019  12.1809594
  10.9443242  36.2169931  10.1756045  10.1458488  35.9769431  10.4329914
  11.3929254  36.2684323  10.9223093  10.8917853  36.1892322  10.3240970
  19.3488121  28.9832416   4.0966077  20.0104555  28.4223084   3.9961985
  18.7079533  28.4884446   4.4218768  19.3516989  28.8268825   4.1298417
  15.6352952  29.9997798   3.8378066  15.8708541  30.1442997   3.0104916
  15.7842516  30.7640206   4.2309579  15.6918755  30.1336852   3.7741669
   2.6299029  26.4831291  13.2027287   3.3539002  26.4684321  13.6892181
   2.7315166  27.1926646  12.7049255   2.7517239  26.5855994  13.2006073
  10.0043979  29.9630375  18.0676234   9.2116960  30.2773887  18.2528853
  10.1192906  30.1781844  17.2297018   9.9039389  30.0414212  17.9714568
  12.6775298  26.6864367   2.3571249  12.7722152  27.4253661   2.8110875
  12.0534141  26.2581842   2.7905814  12.5984328  26.7325687   2.4879397
  10.9327772  29.8650579  13.0061530  11.5066633  29.2277823  13.1610094
  10.8542575  29.8654662  12.1371188  11.0061007  29.7715691  12.9007941
  11.3692541  20.4002295   5.1586820  10.6648867  19.9111481   5.3170740
  11.4177515  20.4124769   4.2875265  11.2722592  20.3291943   5.0526160
   5.2626202  25.8511607   5.5447623   4.6875794  26.0103775   6.1811583
   4.8861879  25.2147016   5.0816073   5.1229015  25.7809420   5.5702181
   8.9299491  24.3234956  10.4040001   8.5413924  23.8989174   9.7492192
   8.2654189  24.5717106  10.9117028   8.7746419  24.2973677  10.3827869
  18.5722760  24.0809961   3.1787831  18.3159325  23.2689902   2.9885714
  19.4152074  24.0887528   2.9518018  18.6588786  23.9621958   3.1172648
  12.7525853  18.0209585   7.9163985  13.1336364  17.3387756   8.3031859
  11.9489137  17.7319187   7.7339650  12.6902314  17.8776633   7.9468041
  16.2547920  31.2359557  13.0146384  16.0186557  30.4047622  12.8958444
  16.8991148  31.1845164  13.6001228  16.3142590  31.1057245  13.0832277
   6.7117693  20.5263783  17.7826594   6.3971134  21.2963346  17.5196156
   6.3907626  19.9634039  17.1978821   6.6176612  20.5574052  17.6567944
  17.2784340  31.0204006   9.0774678  16.9730157  31.7532062   9.4387994
  16.5590556  30.6141935   8.7967464  17.1271682  31.0685739   9.0887815
  22.9786132  27.6597006   8.4043022  22.9110633  27.6792965   7.5345609
  22.9641795  28.5027333   8.6298693  22.9664889  27.7870741   8.3095499
   4.2649590  18.9154305   3.3972790   3.3972015  18.9876904   3.4630399
   4.5524794  19.7176383   3.5860765   4.1789338  19.0448452   3.4347557
  13.3882479  19.0632164  11.7284112  14.1336071  18.8741974  11.3147537
  12.9719783  19.5890402  11.1697968  13.4367453  19.1134309  11.5848685
  20.7644750  26.4341392   6.6789617  21.3152671  25.8009461   6.9186709
  20.7488865  26.9656785   7.3705121  20.8429946  26.4190341   6.8168475
   7.4167141  30.2679990  11.2249510   6.9178834  30.9795757  11.3034399
   8.2267365  30.5880656  11.1867673   7.4623247  30.4206838  11.2306079
  14.4673156  24.6737726   5.7894213  14.1237922  23.9528061   6.1401463
  14.5666198  24.4651577   4.9472571  14.4315199  24.5361929   5.7165893
   6.3434198  23.1261034  16.5211808   5.5333974  23.4318814  16.4101651
   6.8208885  23.8466616  16.6364392   6.2937677  23.2775635  16.5218879
  12.9864121  22.5929311   7.6653756  12.1475222  22.6190590   7.4292019
  13.0568489  23.2400046   8.2459102  12.8732515  22.6925437   7.7162873
   2.6778230  28.6623584  11.3911211   3.1899327  28.9407838  10.7419971
   2.3914573  29.4012879  11.7574024   2.7113094  28.8125938  11.3501089
  11.4333400  19.4914688   2.3981372  12.1359752  19.2922436   1.9201330
  11.1677588  18.7190630   2.7050215  11.4980032  19.3477654   2.3726813
  16.8621645  27.7997298   4.9514998  16.7755620  27.9552724   5.8049776
  16.4072125  28.4435373   4.5774403  16.7824902  27.9173053   5.0222104
   6.1961956  20.7549973  11.4512252   6.0045153  20.7705107  12.3011676
   7.0460552  20.9513647  11.4278907   6.2937678  20.7864324  11.5735547
  10.7347461  25.1208045   3.5740557  10.4882175  25.0403796   4.4077346
  11.0632584  24.3361513   3.3803085  10.7468705  24.9934310   3.6688080
  14.6295510  31.8291404   7.3627338  14.4909869  32.5272450   7.8676081
  13.8495508  31.6740061   7.0063520  14.4938737  31.9091571   7.3853612
  12.9673595  28.1287779  13.6149720  12.9621634  27.2567596  13.6192146
  13.6734589  28.3275949  13.1419176  13.0718599  28.0291654  13.5456755
   6.6944488  27.8564763  12.9863540   6.8387864  28.4365971  12.3506650
   7.0420137  28.2341060  13.6913395   6.7671950  27.9985467  12.9962535
   8.8664406  27.0554932  10.7688672   8.1187720  27.2485946  10.3636950
   9.0205931  26.2300151  10.5312793   8.7786833  26.9620043  10.6734078
   9.1066183  20.9505482  11.6584076   9.5638797  21.6829457  11.7856868
   9.1822512  20.5271948  12.4171331   9.1857153  20.9962721  11.7885152
   1.3499174  21.1971302  12.7473519   0.8141364  20.5851660  13.0634286
   1.4116939  21.7719438  13.4007186   1.2794807  21.1918230  12.8908946
  13.5793509  14.1295358   5.5277918  13.6977077  14.5871821   4.7945221
  13.4055684  13.3240619   5.2414136  13.5712680  14.0789130   5.3778852
   6.9848561  22.9407586   8.5025900   6.1944636  22.7599046   8.8243235
   7.3809184  22.1634539   8.4856194   6.9265437  22.7995047   8.5478448
  12.3692247  30.5750017   6.2285345  11.6937249  30.3435249   6.7298732
  12.3784623  29.9671199   5.6027450  12.2710752  30.4508942   6.2101498
   9.4986391  25.4167845  12.9849398   9.4345532  26.2777802  12.8569535
   9.6383579  25.0999839  12.1844950   9.5101861  25.4968012  12.8477611
   8.1805485  28.1099985   7.1265601   7.7567734  28.3104484   6.3904620
   8.0050340  27.2628833   7.2389901   8.0916366  28.0148766   7.0339291
  13.8784182  32.1912567  18.5413849  14.6919047  31.9197716  18.7018982
  13.7179148  31.8920107  17.7374045  13.9754130  32.1067493  18.4459255
  11.1556344  22.8746224  11.4809238  11.3698313  22.2357139  10.9272592
  10.5390243  23.3192048  11.0517099  11.0961673  22.8456368  11.3359669
  13.3195432  24.4835290  12.4192545  12.5072114  24.1761180  12.5005717
  13.7785366  24.0034290  12.9835257  13.2675817  24.3671782  12.5147139
  10.5471073  15.9846160   6.4696580   9.6764630  15.9584881   6.4229890
  10.8011414  15.8123352   5.6522426  10.4564633  15.9556304   6.3416717
  10.4148939  25.8895361  17.2021247  10.8848571  26.5137477  17.5889121
  10.4610820  25.2212336  17.7614462  10.4916815  25.8830041  17.3421318
   7.5720213  17.9952388   7.9270051   7.0558702  17.3032580   8.0521630
   7.0114142  18.6623165   7.8732649   7.4126726  17.9915646   7.9376117
   9.6412447  18.5345348   9.7562903   9.2544200  18.5594380  10.5376433
   9.1545384  17.9687027   9.3037420   9.5124955  18.4541099   9.8050807
  13.8905426  33.2518857  13.8136690  14.5285146  32.7579053  13.4799146
  13.2479517  33.1796258  13.2288917  13.8899652  33.1677866  13.6779045
  15.6162426  25.1008003   8.3802605  15.1890034  25.0134352   7.6250705
  14.9788479  25.2085779   8.9657450  15.4592033  25.1040663   8.3548047
   9.3069588  15.4212334  12.0473163   9.9362706  15.9572634  11.7694234
   9.4755451  15.3289693  12.8986729   9.4247383  15.4873696  12.1321691
   9.1083503  20.2083529  14.3199575   9.9356932  19.9368678  14.3758189
   9.1291349  21.0044370  14.6763393   9.2336353  20.2863283  14.3814758
  13.9459683  33.9438666  10.4542047  14.7352061  33.5927730  10.5744128
  14.1203280  34.7575054  10.1918680  14.0879964  34.0124523  10.4329915
   3.6852993  27.3547391   7.5069835   2.8441000  27.2551266   7.7148729
   3.8943001  28.1242872   7.8584156   3.5917686  27.4539435   7.5897150
  12.7993507  17.9548222   5.0158465  13.0043100  17.8870530   5.8615462
  12.4719931  18.7607044   4.9479642  12.7808755  18.0634163   5.1318120
   7.4969658  25.2828791   6.7567433   7.1932795  24.7284779   7.3577841
   6.7949079  25.4621001   6.2695467   7.3485868  25.2273573   6.7737139
   6.5535755  22.5929310   1.3212135   6.8295489  21.8748223   0.9089702
   7.1534424  23.1914230   1.1133241   6.6829020  22.5749681   1.2292896
   5.5588009  32.4978511  11.4639531   5.4508364  32.5080573  12.3301589
   5.7683790  33.3233292  11.2744485   5.5738120  32.6219586  11.5643622
  16.0527194  18.5079987   4.4961230  15.4401508  18.9950389   4.8814962
  16.1491369  17.8323478   5.0398882  15.9765092  18.4798295   4.6340089
   3.5761801  29.7491154   8.9261468   2.9849734  30.3900652   8.8964483
   4.3382824  30.1728771   8.8992768   3.6010061  29.9066992   8.9176616
   3.9722424  20.9093152   9.5929486   4.4323905  20.9832081  10.3304610
   4.0178530  21.7074406   9.2429307   4.0472979  21.0387299   9.6502242
   5.6205773  21.5759846  14.1601513   5.2291338  20.9293193  14.5957291
   5.7891636  22.1671282  14.7795768   5.5876684  21.5674114  14.3164219
  19.6952222  29.5796923   9.9238747  19.7535346  30.0283572  10.6698723
  19.0618690  29.9895736   9.4868827  19.6103517  29.7070658   9.9691295
  13.3351317  35.2000465   6.3593493  13.1371006  35.6891280   5.6649704
  12.7139028  35.4041707   6.9377626  13.2138881  35.3017004   6.3416716
   9.3138871  18.7635621   5.7335598   8.4674916  18.9358429   5.6076948
   9.3110003  17.9584965   6.0701427   9.1886021  18.6696650   5.7646725
  10.3837171  22.5410835   6.5997656   9.9097126  22.0152598   7.1102967
  10.7555307  21.9940308   6.0312518  10.3687060  22.3826832   6.5912804
  16.6473902  27.6013211   8.0104437  16.4072125  26.7619626   8.0146863
  17.1265909  27.6813378   8.7345210  16.6826085  27.4894611   8.1179239
  12.3120671  23.4347390  -0.3376590  11.7843690  23.5176134  -1.0270881
  12.7716379  24.1765262  -0.3411945  12.3022521  23.5568052  -0.4401895
  18.6479089  24.3814668   5.9633696  18.4088859  24.3410502   5.1254481
  18.8112990  25.2285820   6.0899417  18.6369392  24.5006753   5.8587178
  15.2525119  28.7664618  11.8938741  15.9759318  28.3137144  11.7149761
  14.9875081  29.0469283  11.1111069  15.3206392  28.7415586  11.7517457
   4.1211987  23.3624791   8.6291620   3.4965058  23.3743183   8.0217573
   3.7857582  23.8384966   9.2782861   3.9797479  23.4343308   8.6348189
  11.0343908  28.8648496  10.0433756  10.4200902  28.3206546  10.3382392
  11.5511193  28.3512732   9.5639572  11.0199571  28.7084905  10.0157985
  10.2740206  29.9352766   7.7778055   9.8467814  29.3102485   7.3443490
  10.2665150  29.6527688   8.6037062  10.2099347  29.8005547   7.8357882
   3.3902733  24.9717939  10.8466489   3.5496219  24.2161263  11.2518211
   3.2095626  25.5208879  11.5007227   3.3868092  24.9411753  11.0029195
  11.3323036  17.1379175  11.4017278  10.8363597  17.3342849  10.7108845
  12.0892098  17.5371843  11.2306080  11.3709860  17.2256908  11.2737415
   8.6025915  20.8121520   7.9920589   8.6268403  20.2781633   7.3033369
   8.8537389  20.3038829   8.6546179   8.6435834  20.6582424   7.9885234
   4.8827238  19.5392339   7.3726333   4.9225609  20.0401545   8.0861041
   4.0576902  19.6302732   7.1032256   4.7666764  19.6274155   7.4376871
   7.0656850  29.1053079  15.4746628   6.2152481  29.2424793  15.6104273
   7.2284978  28.3716857  15.9194329   6.9640714  29.0167180  15.5602227
   6.3041601  26.0552849   9.6700232   5.4733531  26.2226666   9.4635480
   6.2493118  25.6788799  10.4549118   6.1731016  26.0242580   9.7548760
   4.1125384  19.5461741  15.3056643   4.7378088  19.0023874  15.5786075
   3.6575864  19.0656659  14.7364433   4.1373645  19.3951223  15.2618237
  17.6860433  27.7291028  10.3969291  18.2778273  28.3688279  10.4287489
  18.1219427  27.0314065  10.6861358  17.8378864  27.7209379  10.4450124
   9.5153823  32.1508401  11.0227185   9.0078914  32.7044248  11.4667815
   9.2180469  32.2116691  10.2045959   9.3958708  32.2414712  10.9675642
  11.6816005  20.5161720   9.8651848  12.1071077  20.0634247   9.2535374
  11.0672998  19.9621791  10.1416635  11.6544650  20.3675697   9.8156873
  10.1210228  16.9876820   3.2742425   9.4778546  16.8374467   3.8427563
   9.7809635  16.7419166   2.5091529   9.9755305  16.9288943   3.2445440
  14.7109574  24.9436247   2.6972433  14.0400764  25.4865949   2.5685499
  15.4049325  25.4131102   2.4554128  14.7138442  25.0934518   2.6427961
  14.8737702  21.3992131   5.6062807  15.2265312  20.9721854   6.2808605
  14.0152503  21.3142974   5.7363883  14.7987146  21.3236871   5.7257817
  12.8720968  24.6627499   9.5547649  12.8518895  24.4810794  10.4082428
  12.9200168  25.5339518   9.5307233  12.8755609  24.7644038   9.6770944
  10.8167297  31.2514691  15.4796125  10.7763152  30.6064368  14.8941281
  11.6290616  31.1951309  15.7921537  10.9310451  31.1473658  15.4393075
  16.3061762  16.5210543   6.5347119  15.7992627  15.8139682   6.4668297
  17.1029196  16.1903731   6.6648196  16.3489001  16.3683694   6.5446114
  12.2225778  23.0277155   2.4320783  11.9939471  23.0509856   1.5899141
  12.4823854  22.2034622   2.5515793  12.2271966  22.9093235   2.3245981
   6.5045006  24.8811628  12.0345883   5.9923909  24.2732811  12.3930914
   6.3324502  25.5968220  12.5019859   6.4034643  24.8974927  12.1562107
   1.3510721  23.3249203  14.6848245   1.1813311  23.9850578  14.1396452
   0.9076671  23.5355764  15.4060734   1.2610054  23.4535185  14.7109874
   5.2770540  21.5653701   3.7274979   5.7527907  21.9270781   3.0925160
   4.7759140  22.2210169   4.0075121   5.2735899  21.7147890   3.6751719
  10.3814077  22.8035873  14.4748139  10.9385507  22.5749682  13.8426604
  10.0575142  23.5641538  14.1983351  10.4160487  22.8819709  14.3404636
   8.0997194  25.8903526  15.4400146   8.8508521  26.2055203  15.7539700
   8.2919770  25.6882697  14.6134068   8.2388608  25.9070908  15.3643541
  14.9482484  22.0177092   2.6823941  14.9476710  21.8625749   3.5408218
  14.7438664  22.8640079   2.6265327  14.9182262  22.1197713   2.8011881
  12.6723336  26.6974594   6.3360148  13.1677001  25.9797589   6.2964168
  11.8623112  26.3945392   6.2214635  12.6267229  26.5472240   6.3133874
  14.7375155  29.4478281   9.0237277  15.1630226  28.9252703   8.4707702
  14.3732075  30.0459119   8.5025900  14.7461757  29.4588508   8.8646287
  11.3253754  33.1612546   5.3538434  11.7964932  33.8752808   5.5228419
  11.6613933  32.5611296   5.8898304  11.4448869  33.1784010   5.4570810
  13.4130739  34.7713859  17.5330506  13.5227704  33.9822420  17.8887254
  13.7421635  34.6819795  16.7304844  13.4783145  34.6419712  17.4672897
   8.2423249  17.9340016  12.3096529   8.3751155  17.1371010  12.6377505
   8.6268402  18.4606419  12.8894805   8.3179578  17.8939933  12.4440032
  11.9627701  32.9530480  12.1166127  11.4148647  32.3288363  11.8486192
  12.4240729  33.1424752  11.4010206  11.9494910  32.8889530  11.9716558
  11.3155604  14.8570342   8.9077622  10.5101568  14.7468072   9.2245461
  11.1862340  14.9582798   8.0507488  11.1775737  14.8554012   8.8285663
  14.7721565  21.0215834   9.5017319  14.1884554  21.5225041   9.0894887
  15.0925859  20.5145390   8.8681643  14.7334740  21.0207669   9.3475826
   5.9011696  17.9299191  10.5574423   6.4456109  17.5890318  11.1478765
   5.9548632  18.7884653  10.6995707   5.9900815  18.0054451  10.6656296
  11.5286027  33.9581553   8.6475468  12.3484401  33.8144519   8.9091763
  11.2480105  34.5827751   9.1891906  11.6082770  34.0291905   8.7663408
  23.7258436  33.5394893   7.9163985  24.1068948  32.8573064   8.3031859
  22.9221721  33.2504495   7.7339650  23.6634898  33.3961941   7.9468041
  17.6850277  36.0449091  17.7826594  17.3703718  36.8148654  17.5196156
  17.3640209  35.4819347  17.1978821  17.5909196  36.0759360  17.6567944
  24.3615062  34.5817472  11.7284112  25.1068654  34.3927282  11.3147537
  23.9452367  35.1075710  11.1697968  24.4100037  34.6319617  11.5848685
  17.1694539  36.2735281  11.4512252  16.9777736  36.2890415  12.3011676
  18.0193135  36.4698955  11.4278907  17.2670261  36.3049632  11.5735547
  20.0798766  36.4690790  11.6584076  20.5371381  37.2014765  11.7856868
  20.1555095  36.0457256  12.4171331  20.1589736  36.5148028  11.7885152
  24.5526092  29.6480666   5.5277918  24.6709660  30.1057129   4.7945221
  24.3788268  28.8425927   5.2414136  24.5445263  29.5974438   5.3778852
  17.9581144  38.4592894   8.5025900  17.1677219  38.2784354   8.8243235
  18.3541767  37.6819847   8.4856194  17.8998021  38.3180355   8.5478448
  22.1288927  38.3931532  11.4809238  22.3430897  37.7542446  10.9272592
  21.5122827  38.8377356  11.0517099  22.0694257  38.3641676  11.3359669
  24.2928015  40.0020597  12.4192545  23.4804697  39.6946488  12.5005717
  24.7517950  39.5219598  12.9835257  24.2408400  39.8857090  12.5147139
  21.5203656  31.5031468   6.4696580  20.6497214  31.4770189   6.4229890
  21.7743997  31.3308660   5.6522426  21.4297216  31.4741612   6.3416717
  18.5452797  33.5137696   7.9270051  18.0291285  32.8217888   8.0521630
  17.9846726  34.1808473   7.8732649  18.3859310  33.5100954   7.9376117
  20.6145030  34.0530656   9.7562903  20.2276783  34.0779688  10.5376433
  20.1277967  33.4872335   9.3037420  20.4857539  33.9726407   9.8050807
  20.2802172  30.9397642  12.0473163  20.9095290  31.4757942  11.7694234
  20.4488035  30.8475001  12.8986729  20.3979966  31.0059004  12.1321691
  20.0816087  35.7268837  14.3199575  20.9089516  35.4553985  14.3758189
  20.1023933  36.5229678  14.6763393  20.2068937  35.8048591  14.3814758
  14.9455007  36.4278459   9.5929486  15.4056489  36.5017389  10.3304610
  14.9911114  37.2259713   9.2429307  15.0205563  36.5572607   9.6502242
  16.5938357  37.0945154  14.1601513  16.2023922  36.4478501  14.5957291
  16.7624220  37.6856590  14.7795768  16.5609267  37.0859422  14.3164219
  20.2871454  34.2820929   5.7335598  19.4407500  34.4543737   5.6076948
  20.2842587  33.4770273   6.0701427  20.1618604  34.1881958   5.7646725
  22.3055619  32.6564482  11.4017278  21.8096181  32.8528157  10.7108845
  23.0624681  33.0557151  11.2306080  22.3442444  32.7442216  11.2737415
  19.5758499  36.3306828   7.9920589  19.6000986  35.7966941   7.3033369
  19.8269973  35.8224137   8.6546179  19.6168418  36.1767732   7.9885234
  15.8559821  35.0577647   7.3726333  15.8958193  35.5586853   8.0861041
  15.0309486  35.1488040   7.1032256  15.7399347  35.1459463   7.4376871
  15.0857968  35.0647049  15.3056643  15.7110671  34.5209182  15.5786075
  14.6308448  34.5841967  14.7364433  15.1106228  34.9136531  15.2618237
  22.6548589  36.0347028   9.8651848  23.0803660  35.5819555   9.2535374
  22.0405582  35.4807099  10.1416635  22.6277234  35.8861005   9.8156873
  21.3546660  38.3221180  14.4748139  21.9118090  38.0934990  13.8426604
  21.0307725  39.0826846  14.1983351  21.3893070  38.4005017  14.3404636
  19.2155833  33.4525324  12.3096529  19.3483738  32.6556318  12.6377505
  19.6000986  33.9791727  12.8894805  19.2912162  33.4125241  12.4440032
  22.2888188  30.3755650   8.9077622  21.4834152  30.2653380   9.2245461
  22.1594923  30.4768106   8.0507488  22.1508321  30.3739320   8.8285663
  25.7454149  36.5401142   9.5017319  25.1617137  37.0410349   9.0894887
  26.0658443  36.0330698   8.8681643  25.7067324  36.5392977   9.3475826
  16.8744280  33.4484499  10.5574423  17.4188693  33.1075626  11.1478765
  16.9281215  34.3069961  10.6995707  16.9633399  33.5239759  10.6656296
  13.1081563  11.7091990   4.4670553  13.2178528  10.9200551   4.8227300
  13.4372459  11.6197926   3.6644891  13.1733969  11.5797843   4.4012944
  24.2043903  23.9086712   2.9071778  24.9110670  23.4138743   3.0358712
  24.3931838  24.3495794   2.1774436  24.3371808  23.9005062   2.8180823
  15.5181555  18.8419017   1.5120561  15.6902058  18.7324911   2.3605842
  16.0550912  19.4873422   1.2751753  15.6226559  18.9211018   1.6025657
  21.4556256  26.7623268   3.4629637  22.2396673  26.8754115   3.8285379
  21.2552851  25.9364405   3.6588322  21.5422282  26.6569987   3.5464023
  13.2982437  18.9394730   0.1367333  14.0222409  18.9247761   0.6232228
  13.3998574  19.6490085  -0.3610698  13.4200646  19.0419433   0.1346120
  20.6727386  22.4193815   5.0016280  19.8800367  22.7337326   5.1868900
  20.7876314  22.6345283   4.1637065  20.5722797  22.4977651   4.9054615
  21.6011179  22.3214018  -0.0598423  22.1750041  21.6841263   0.0950141
  21.5225983  22.3218101  -0.9288765  21.6744414  22.2279130  -0.1652012
  17.3801101  12.9827222   4.7166640  17.0654542  13.7526785   4.4536203
  17.0591033  12.4197478   4.1318867  17.2860020  13.0137491   4.5907990
  18.0850548  22.7243429  -1.8410443  17.5862242  23.4359197  -1.7625555
  18.8950772  23.0444095  -1.8792281  18.1306655  22.8770277  -1.8353874
  17.0117606  15.5824473   3.4551855  16.2017382  15.8882253   3.3441698
  17.4892293  16.3030056   3.5704439  16.9621085  15.7339074   3.4558926
  13.3461638  21.1187024  -1.6748742  13.8582735  21.3971277  -2.3239983
  13.0597981  21.8576318  -1.3085929  13.3796501  21.2689377  -1.7158864
  23.6357003  20.5851219   0.5489767  23.6305041  19.7131035   0.5532193
  24.3417997  20.7839388   0.0759223  23.7402007  20.4855093   0.4796802
  17.3627896  20.3128202  -0.0796413  17.5071272  20.8929411  -0.7153303
  17.7103545  20.6904499   0.6253442  17.4355357  20.4548906  -0.0697418
  19.5347813  19.5118371  -2.2971281  18.7871127  19.7049385  -2.7023003
  19.6889339  18.6863590  -2.5347160  19.4470241  19.4183482  -2.3925876
  20.1669799  17.8731285  -0.0810555  20.1028940  18.7341241  -0.2090418
  20.3066986  17.5563278  -0.8815003  20.1785269  17.9531451  -0.2182342
  24.5467589  24.6476006   5.4753896  25.3602455  24.3761155   5.6359029
  24.3862556  24.3483546   4.6714092  24.6437538  24.5630932   5.3799302
  23.9878839  16.9398729  -0.6467409  23.1755521  16.6324619  -0.5654236
  24.4468774  16.4597729  -0.0824696  23.9359224  16.8235221  -0.5512814
  21.0832347  18.3458800   4.1361294  21.5531978  18.9700916   4.5229168
  21.1294227  17.6775776   4.6954508  21.1600223  18.3393480   4.2761365
  19.7766911  12.6646968   1.2539622  20.6040340  12.3932117   1.3098236
  19.7974757  13.4607809   1.6103440  19.9019761  12.7426722   1.3154805
  16.2889181  14.0323285   1.0941560  15.8974746  13.3856633   1.5297338
  16.4575044  14.6234721   1.7135815  16.2560091  14.0237553   1.2504266
  17.7340258  21.5616518   2.4086675  16.8835888  21.6988232   2.5444319
  17.8968386  20.8280296   2.8534376  17.6324121  21.4730619   2.4942274
  21.4850705  23.7078130   2.4136172  21.4446560  23.0627807   1.8281328
  22.2974023  23.6514748   2.7261584  21.5993859  23.6037097   2.3733121
  17.1728414  17.3375067  -1.0314070  16.6607317  16.7296250  -0.6729039
  17.0007910  18.0531660  -0.5640094  17.0718051  17.3538366  -0.9097846
  21.0497484  15.2599312   1.4088185  21.6068914  15.0313121   0.7766651
  20.7258549  16.0204977   1.1323398  21.0843894  15.3383148   1.2744683
  18.7680601  18.3466965   2.3740193  19.5191928  18.6618642   2.6879747
  18.9603178  18.1446136   1.5474114  18.9072015  18.3634347   2.2983588
  24.0814146  27.2277298   4.4670553  24.1911112  26.4385859   4.8227300
  24.4105043  27.1383234   3.6644891  24.1466552  27.0983151   4.4012944
  38.9422404  38.9422404  38.9422404 109.4712190 109.4712190 109.4712190
