%VERSION  VERSION_STAMP = V0001.000  DATE = 07/13/26  12:29:41                  
%FLAG TITLE                                                                     
%FORMAT(20a4)                                                                   
ACE                                                                             
%FLAG POINTERS                                                                  
%FORMAT(10I8)                                                                   
    6386      10    4780    1605      47      25      85      66       0       0
   11307    1591    1605      25      66      14      21      14      11       0
       0       0       0       0       0       0       0       2      10       0
    1586
%FLAG ATOM_NAME                                                                 
%FORMAT(20a4)                                                                   
H1  CH3 H2  H3  C   O   N   H   CA  HA  CB  HB1 HB2 HB3 C   O   N   H   CA  HA  
CB  HB1 HB2 HB3 C   O   N   H   CA  HA  CB  HB1 HB2 HB3 C   O   N   H   C   H1  
H2  H3  O   H1  H2  EPW O   H1  H2  EPW O   H1  H2  EPW O   H1  H2  EPW O   H1  
H2  EPW O   H1  H2  EPW O   H1  H2  EPW O   H1  H2  EPW O   H1  H2  EPW O   H1  
H2  EPW O   H1  H2  EPW O   H1  H2  EPW O   H1  H2  EPW O   H1  H2  EPW O   H1  
H2  EPW O   H1  H2  EPW O   H1  H2  EPW O   H1  H2  EPW O   H1  H2  EPW O   H1  
H2  EPW O   H1  H2  EPW O   H1  H2  EPW O   H1  H2  EPW O   H1  H2  EPW O   H1  
H2  EPW O   H1  H2  EPW O   H1  H2  EPW O   H1  H2  EPW O   H1  H2  EPW O   H1  
H2  EPW O   H1  H2  EPW O   H1  H2  EPW O   H1  H2  EPW O   H1  H2  EPW O   H1  
H2  EPW O   H1  H2  EPW O   H1  H2  EPW O   H1  H2  EPW O   H1  H2  EPW O   H1  
H2  EPW O   H1  H2  EPW O   H1  H2  EPW O   H1  H2  EPW O   H1  H2  EPW O   H1  
H2  EPW O   H1  H2  EPW O   H1  H2  EPW O   H1  H2  EPW O   H1  H2  EPW O   H1  
H2  EPW O   H1  H2  EPW O   H1  H2  EPW O   H1  H2  EPW O   H1  H2  EPW O   H1  
H2  EPW O   H1  H2  EPW O   H1  H2  EPW O   H1  H2  EPW O   H1  H2  EPW O   H1  
H2  EPW O   H1  H2  EPW O   H1  H2  EPW O   H1  H2  EPW O   H1  H2  EPW O   H1  
H2  EPW O   H1  H2  EPW O   H1  H2  EPW O   H1  H2  EPW O   H1  H2  EPW O   H1  
H2  EPW O   H1  H2  EPW O   H1  H2  EPW O   H1  H2  EPW O   H1  H2  EPW O   H1  
H2  EPW O   H1  H2  EPW O   H1  H2  EPW O   H1  H2  EPW O   H1  H2  EPW O   H1  
H2  EPW O   H1  H2  EPW O   H1  H2  EPW O   H1  H2  EPW O   H1  H2  EPW O   H1  
H2  EPW O   H1  H2  EPW O   H1  H2  EPW O   H1  H2  EPW O   H1  H2  EPW O   H1  
H2  EPW O   H1  H2  EPW O   H1  H2  EPW O   H1  H2  EPW O   H1  H2  EPW O   H1  
H2  EPW O   H1  H2  EPW O   H1  H2  EPW O   H1  H2  EPW O   H1  H2  EPW O   H1  
H2  EPW O   H1  H2  EPW O   H1  H2  EPW O   H1  H2  EPW O   H1  H2  EPW O   H1  
H2  EPW O   H1  H2  EPW O   H1  H2  EPW O   H1  H2  EPW O   H1  H2  EPW O   H1  
H2  EPW O   H1  H2  EPW O   H1  H2  EPW O   H1  H2  EPW O   H1  H2  EPW O   H1  
H2  EPW O   H1  H2  EPW O   H1  H2  EPW O   H1  H2  EPW O   H1  H2  EPW O   H1  
H2  EPW O   H1  H2  EPW O   H1  H2  EPW O   H1  H2  EPW O   H1  H2  EPW O   H1  
H2  EPW O   H1  H2  EPW O   H1  H2  EPW O   H1  H2  EPW O   H1  H2  EPW O   H1  
H2  EPW O   H1  H2  EPW O   H1  H2  EPW O   H1  H2  EPW O   H1  H2  EPW O   H1  
H2  EPW O   H1  H2  EPW O   H1  H2  EPW O   H1  H2  EPW O   H1  H2  EPW O   H1  
H2  EPW O   H1  H2  EPW O   H1  H2  EPW O   H1  H2  EPW O   H1  H2  EPW O   H1  
H2  EPW O   H1  H2  EPW O   H1  H2  EPW O   H1  H2  EPW O   H1  H2  EPW O   H1  
H2  EPW O   H1  H2  EPW O   H1  H2  EPW O   H1  H2  EPW O   H1  H2  EPW O   H1  
H2  EPW O   H1  H2  EPW O   H1  H2  EPW O   H1  H2  EPW O   H1  H2  EPW O   H1  
H2  EPW O   H1  H2  EPW O   H1  H2  EPW O   H1  H2  EPW O   H1  H2  EPW O   H1  
H2  EPW O   H1  H2  EPW O   H1  H2  EPW O   H1  H2  EPW O   H1  H2  EPW O   H1  
H2  EPW O   H1  H2  EPW O   H1  H2  EPW O   H1  H2  EPW O   H1  H2  EPW O   H1  
H2  EPW O   H1  H2  EPW O   H1  H2  EPW O   H1  H2  EPW O   H1  H2  EPW O   H1  
H2  EPW O   H1  H2  EPW O   H1  H2  EPW O   H1  H2  EPW O   H1  H2  EPW O   H1  
H2  EPW O   H1  H2  EPW O   H1  H2  EPW O   H1  H2  EPW O   H1  H2  EPW O   H1  
H2  EPW O   H1  H2  EPW O   H1  H2  EPW O   H1  H2  EPW O   H1  H2  EPW O   H1  
H2  EPW O   H1  H2  EPW O   H1  H2  EPW O   H1  H2  EPW O   H1  H2  EPW O   H1  
H2  EPW O   H1  H2  EPW O   H1  H2  EPW O   H1  H2  EPW O   H1  H2  EPW O   H1  
H2  EPW O   H1  H2  EPW O   H1  H2  EPW O   H1  H2  EPW O   H1  H2  EPW O   H1  
H2  EPW O   H1  H2  EPW O   H1  H2  EPW O   H1  H2  EPW O   H1  H2  EPW O   H1  
H2  EPW O   H1  H2  EPW O   H1  H2  EPW O   H1  H2  EPW O   H1  H2  EPW O   H1  
H2  EPW O   H1  H2  EPW O   H1  H2  EPW O   H1  H2  EPW O   H1  H2  EPW O   H1  
H2  EPW O   H1  H2  EPW O   H1  H2  EPW O   H1  H2  EPW O   H1  H2  EPW O   H1  
H2  EPW O   H1  H2  EPW O   H1  H2  EPW O   H1  H2  EPW O   H1  H2  EPW O   H1  
H2  EPW O   H1  H2  EPW O   H1  H2  EPW O   H1  H2  EPW O   H1  H2  EPW O   H1  
H2  EPW O   H1  H2  EPW O   H1  H2  EPW O   H1  H2  EPW O   H1  H2  EPW O   H1  
H2  EPW O   H1  H2  EPW O   H1  H2  EPW O   H1  H2  EPW O   H1  H2  EPW O   H1  
H2  EPW O   H1  H2  EPW O   H1  H2  EPW O   H1  H2  EPW O   H1  H2  EPW O   H1  
H2  EPW O   H1  H2  EPW O   H1  H2  EPW O   H1  H2  EPW O   H1  H2  EPW O   H1  
H2  EPW O   H1  H2  EPW O   H1  H2  EPW O   H1  H2  EPW O   H1  H2  EPW O   H1  
H2  EPW O   H1  H2  EPW O   H1  H2  EPW O   H1  H2  EPW O   H1  H2  EPW O   H1  
H2  EPW O   H1  H2  EPW O   H1  H2  EPW O   H1  H2  EPW O   H1  H2  EPW O   H1  
H2  EPW O   H1  H2  EPW O   H1  H2  EPW O   H1  H2  EPW O   H1  H2  EPW O   H1  
H2  EPW O   H1  H2  EPW O   H1  H2  EPW O   H1  H2  EPW O   H1  H2  EPW O   H1  
H2  EPW O   H1  H2  EPW O   H1  H2  EPW O   H1  H2  EPW O   H1  H2  EPW O   H1  
H2  EPW O   H1  H2  EPW O   H1  H2  EPW O   H1  H2  EPW O   H1  H2  EPW O   H1  
H2  EPW O   H1  H2  EPW O   H1  H2  EPW O   H1  H2  EPW O   H1  H2  EPW O   H1  
H2  EPW O   H1  H2  EPW O   H1  H2  EPW O   H1  H2  EPW O   H1  H2  EPW O   H1  
H2  EPW O   H1  H2  EPW O   H1  H2  EPW O   H1  H2  EPW O   H1  H2  EPW O   H1  
H2  EPW O   H1  H2  EPW O   H1  H2  EPW O   H1  H2  EPW O   H1  H2  EPW O   H1  
H2  EPW O   H1  H2  EPW O   H1  H2  EPW O   H1  H2  EPW O   H1  H2  EPW O   H1  
H2  EPW O   H1  H2  EPW O   H1  H2  EPW O   H1  H2  EPW O   H1  H2  EPW O   H1  
H2  EPW O   H1  H2  EPW O   H1  H2  EPW O   H1  H2  EPW O   H1  H2  EPW O   H1  
H2  EPW O   H1  H2  EPW O   H1  H2  EPW O   H1  H2  EPW O   H1  H2  EPW O   H1  
H2  EPW O   H1  H2  EPW O   H1  H2  EPW O   H1  H2  EPW O   H1  H2  EPW O   H1  
H2  EPW O   H1  H2  EPW O   H1  H2  EPW O   H1  H2  EPW O   H1  H2  EPW O   H1  
H2  EPW O   H1  H2  EPW O   H1  H2  EPW O   H1  H2  EPW O   H1  H2  EPW O   H1  
H2  EPW O   H1  H2  EPW O   H1  H2  EPW O   H1  H2  EPW O   H1  H2  EPW O   H1  
H2  EPW O   H1  H2  EPW O   H1  H2  EPW O   H1  H2  EPW O   H1  H2  EPW O   H1  
H2  EPW O   H1  H2  EPW O   H1  H2  EPW O   H1  H2  EPW O   H1  H2  EPW O   H1  
H2  EPW O   H1  H2  EPW O   H1  H2  EPW O   H1  H2  EPW O   H1  H2  EPW O   H1  
H2  EPW O   H1  H2  EPW O   H1  H2  EPW O   H1  H2  EPW O   H1  H2  EPW O   H1  
H2  EPW O   H1  H2  EPW O   H1  H2  EPW O   H1  H2  EPW O   H1  H2  EPW O   H1  
H2  EPW O   H1  H2  EPW O   H1  H2  EPW O   H1  H2  EPW O   H1  H2  EPW O   H1  
H2  EPW O   H1  H2  EPW O   H1  H2  EPW O   H1  H2  EPW O   H1  H2  EPW O   H1  
H2  EPW O   H1  H2  EPW O   H1  H2  EPW O   H1  H2  EPW O   H1  H2  EPW O   H1  
H2  EPW O   H1  H2  EPW O   H1  H2  EPW O   H1  H2  EPW O   H1  H2  EPW O   H1  
H2  EPW O   H1  H2  EPW O   H1  H2  EPW O   H1  H2  EPW O   H1  H2  EPW O   H1  
H2  EPW O   H1  H2  EPW O   H1  H2  EPW O   H1  H2  EPW O   H1  H2  EPW O   H1  
H2  EPW O   H1  H2  EPW O   H1  H2  EPW O   H1  H2  EPW O   H1  H2  EPW O   H1  
H2  EPW O   H1  H2  EPW O   H1  H2  EPW O   H1  H2  EPW O   H1  H2  EPW O   H1  
H2  EPW O   H1  H2  EPW O   H1  H2  EPW O   H1  H2  EPW O   H1  H2  EPW O   H1  
H2  EPW O   H1  H2  EPW O   H1  H2  EPW O   H1  H2  EPW O   H1  H2  EPW O   H1  
H2  EPW O   H1  H2  EPW O   H1  H2  EPW O   H1  H2  EPW O   H1  H2  EPW O   H1  
H2  EPW O   H1  H2  EPW O   H1  H2  EPW O   H1  H2  EPW O   H1  H2  EPW O   H1  
H2  EPW O   H1  H2  EPW O   H1  H2  EPW O   H1  H2  EPW O   H1  H2  EPW O   H1  
H2  EPW O   H1  H2  EPW O   H1  H2  EPW O   H1  H2  EPW O   H1  H2  EPW O   H1  
H2  EPW O   H1  H2  EPW O   H1  H2  EPW O   H1  H2  EPW O   H1  H2  EPW O   H1  
H2  EPW O   H1  H2  EPW O   H1  H2  EPW O   H1  H2  EPW O   H1  H2  EPW O   H1  
H2  EPW O   H1  H2  EPW O   H1  H2  EPW O   H1  H2  EPW O   H1  H2  EPW O   H1  
H2  EPW O   H1  H2  EPW O   H1  H2  EPW O   H1  H2  EPW O   H1  H2  EPW O   H1  
H2  EPW O   H1  H2  EPW O   H1  H2  EPW O   H1  H2  EPW O   H1  H2  EPW O   H1  
H2  EPW O   H1  H2  EPW O   H1  H2  EPW O   H1  H2  EPW O   H1  H2  EPW O   H1  
H2  EPW O   H1  H2  EPW O   H1  H2  EPW O   H1  H2  EPW O   H1  H2  EPW O   H1  
H2  EPW O   H1  H2  EPW O   H1  H2  EPW O   H1  H2  EPW O   H1  H2  EPW O   H1  
H2  EPW O   H1  H2  EPW O   H1  H2  EPW O   H1  H2  EPW O   H1  H2  EPW O   H1  
H2  EPW O   H1  H2  EPW O   H1  H2  EPW O   H1  H2  EPW O   H1  H2  EPW O   H1  
H2  EPW O   H1  H2  EPW O   H1  H2  EPW O   H1  H2  EPW O   H1  H2  EPW O   H1  
H2  EPW O   H1  H2  EPW O   H1  H2  EPW O   H1  H2  EPW O   H1  H2  EPW O   H1  
H2  EPW O   H1  H2  EPW O   H1  H2  EPW O   H1  H2  EPW O   H1  H2  EPW O   H1  
H2  EPW O   H1  H2  EPW O   H1  H2  EPW O   H1  H2  EPW O   H1  H2  EPW O   H1  
H2  EPW O   H1  H2  EPW O   H1  H2  EPW O   H1  H2  EPW O   H1  H2  EPW O   H1  
H2  EPW O   H1  H2  EPW O   H1  H2  EPW O   H1  H2  EPW O   H1  H2  EPW O   H1  
H2  EPW O   H1  H2  EPW O   H1  H2  EPW O   H1  H2  EPW O   H1  H2  EPW O   H1  
H2  EPW O   H1  H2  EPW O   H1  H2  EPW O   H1  H2  EPW O   H1  H2  EPW O   H1  
H2  EPW O   H1  H2  EPW O   H1  H2  EPW O   H1  H2  EPW O   H1  H2  EPW O   H1  
H2  EPW O   H1  H2  EPW O   H1  H2  EPW O   H1  H2  EPW O   H1  H2  EPW O   H1  
H2  EPW O   H1  H2  EPW O   H1  H2  EPW O   H1  H2  EPW O   H1  H2  EPW O   H1  
H2  EPW O   H1  H2  EPW O   H1  H2  EPW O   H1  H2  EPW O   H1  H2  EPW O   H1  
H2  EPW O   H1  H2  EPW O   H1  H2  EPW O   H1  H2  EPW O   H1  H2  EPW O   H1  
H2  EPW O   H1  H2  EPW O   H1  H2  EPW O   H1  H2  EPW O   H1  H2  EPW O   H1  
H2  EPW O   H1  H2  EPW O   H1  H2  EPW O   H1  H2  EPW O   H1  H2  EPW O   H1  
H2  EPW O   H1  H2  EPW O   H1  H2  EPW O   H1  H2  EPW O   H1  H2  EPW O   H1  
H2  EPW O   H1  H2  EPW O   H1  H2  EPW O   H1  H2  EPW O   H1  H2  EPW O   H1  
H2  EPW O   H1  H2  EPW O   H1  H2  EPW O   H1  H2  EPW O   H1  H2  EPW O   H1  
H2  EPW O   H1  H2  EPW O   H1  H2  EPW O   H1  H2  EPW O   H1  H2  EPW O   H1  
H2  EPW O   H1  H2  EPW O   H1  H2  EPW O   H1  H2  EPW O   H1  H2  EPW O   H1  
H2  EPW O   H1  H2  EPW O   H1  H2  EPW O   H1  H2  EPW O   H1  H2  EPW O   H1  
H2  EPW O   H1  H2  EPW O   H1  H2  EPW O   H1  H2  EPW O   H1  H2  EPW O   H1  
H2  EPW O   H1  H2  EPW O   H1  H2  EPW O   H1  H2  EPW O   H1  H2  EPW O   H1  
H2  EPW O   H1  H2  EPW O   H1  H2  EPW O   H1  H2  EPW O   H1  H2  EPW O   H1  
H2  EPW O   H1  H2  EPW O   H1  H2  EPW O   H1  H2  EPW O   H1  H2  EPW O   H1  
H2  EPW O   H1  H2  EPW O   H1  H2  EPW O   H1  H2  EPW O   H1  H2  EPW O   H1  
H2  EPW O   H1  H2  EPW O   H1  H2  EPW O   H1  H2  EPW O   H1  H2  EPW O   H1  
H2  EPW O   H1  H2  EPW O   H1  H2  EPW O   H1  H2  EPW O   H1  H2  EPW O   H1  
H2  EPW O   H1  H2  EPW O   H1  H2  EPW O   H1  H2  EPW O   H1  H2  EPW O   H1  
H2  EPW O   H1  H2  EPW O   H1  H2  EPW O   H1  H2  EPW O   H1  H2  EPW O   H1  
H2  EPW O   H1  H2  EPW O   H1  H2  EPW O   H1  H2  EPW O   H1  H2  EPW O   H1  
H2  EPW O   H1  H2  EPW O   H1  H2  EPW O   H1  H2  EPW O   H1  H2  EPW O   H1  
H2  EPW O   H1  H2  EPW O   H1  H2  EPW O   H1  H2  EPW O   H1  H2  EPW O   H1  
H2  EPW O   H1  H2  EPW O   H1  H2  EPW O   H1  H2  EPW O   H1  H2  EPW O   H1  
H2  EPW O   H1  H2  EPW O   H1  H2  EPW O   H1  H2  EPW O   H1  H2  EPW O   H1  
H2  EPW O   H1  H2  EPW O   H1  H2  EPW O   H1  H2  EPW O   H1  H2  EPW O   H1  
H2  EPW O   H1  H2  EPW O   H1  H2  EPW O   H1  H2  EPW O   H1  H2  EPW O   H1  
H2  EPW O   H1  H2  EPW O   H1  H2  EPW O   H1  H2  EPW O   H1  H2  EPW O   H1  
H2  EPW O   H1  H2  EPW O   H1  H2  EPW O   H1  H2  EPW O   H1  H2  EPW O   H1  
H2  EPW O   H1  H2  EPW O   H1  H2  EPW O   H1  H2  EPW O   H1  H2  EPW O   H1  
H2  EPW O   H1  H2  EPW O   H1  H2  EPW O   H1  H2  EPW O   H1  H2  EPW O   H1  
H2  EPW O   H1  H2  EPW O   H1  H2  EPW O   H1  H2  EPW O   H1  H2  EPW O   H1  
H2  EPW O   H1  H2  EPW O   H1  H2  EPW O   H1  H2  EPW O   H1  H2  EPW O   H1  
H2  EPW O   H1  H2  EPW O   H1  H2  EPW O   H1  H2  EPW O   H1  H2  EPW O   H1  
H2  EPW O   H1  H2  EPW O   H1  H2  EPW O   H1  H2  EPW O   H1  H2  EPW O   H1  
H2  EPW O   H1  H2  EPW O   H1  H2  EPW O   H1  H2  EPW O   H1  H2  EPW O   H1  
H2  EPW O   H1  H2  EPW O   H1  H2  EPW O   H1  H2  EPW O   H1  H2  EPW O   H1  
H2  EPW O   H1  H2  EPW O   H1  H2  EPW O   H1  H2  EPW O   H1  H2  EPW O   H1  
H2  EPW O   H1  H2  EPW O   H1  H2  EPW O   H1  H2  EPW O   H1  H2  EPW O   H1  
H2  EPW O   H1  H2  EPW O   H1  H2  EPW O   H1  H2  EPW O   H1  H2  EPW O   H1  
H2  EPW O   H1  H2  EPW O   H1  H2  EPW O   H1  H2  EPW O   H1  H2  EPW O   H1  
H2  EPW O   H1  H2  EPW O   H1  H2  EPW O   H1  H2  EPW O   H1  H2  EPW O   H1  
H2  EPW O   H1  H2  EPW O   H1  H2  EPW O   H1  H2  EPW O   H1  H2  EPW O   H1  
H2  EPW O   H1  H2  EPW O   H1  H2  EPW O   H1  H2  EPW O   H1  H2  EPW O   H1  
H2  EPW O   H1  H2  EPW O   H1  H2  EPW O   H1  H2  EPW O   H1  H2  EPW O   H1  
H2  EPW O   H1  H2  EPW O   H1  H2  EPW O   H1  H2  EPW O   H1  H2  EPW O   H1  
H2  EPW O   H1  H2  EPW O   H1  H2  EPW O   H1  H2  EPW O   H1  H2  EPW O   H1  
H2  EPW O   H1  H2  EPW O   H1  H2  EPW O   H1  H2  EPW O   H1  H2  EPW O   H1  
H2  EPW O   H1  H2  EPW O   H1  H2  EPW O   H1  H2  EPW O   H1  H2  EPW O   H1  
H2  EPW O   H1  H2  EPW O   H1  H2  EPW O   H1  H2  EPW O   H1  H2  EPW O   H1  
H2  EPW O   H1  H2  EPW O   H1  H2  EPW O   H1  H2  EPW O   H1  H2  EPW O   H1  
H2  EPW O   H1  H2  EPW O   H1  H2  EPW O   H1  H2  EPW O   H1  H2  EPW O   H1  
H2  EPW O   H1  H2  EPW O   H1  H2  EPW O   H1  H2  EPW O   H1  H2  EPW O   H1  
H2  EPW O   H1  H2  EPW O   H1  H2  EPW O   H1  H2  EPW O   H1  H2  EPW O   H1  
H2  EPW O   H1  H2  EPW O   H1  H2  EPW O   H1  H2  EPW O   H1  H2  EPW O   H1  
H2  EPW O   H1  H2  EPW O   H1  H2  EPW O   H1  H2  EPW O   H1  H2  EPW O   H1  
H2  EPW O   H1  H2  EPW O   H1  H2  EPW O   H1  H2  EPW O   H1  H2  EPW O   H1  
H2  EPW O   H1  H2  EPW O   H1  H2  EPW O   H1  H2  EPW O   H1  H2  EPW O   H1  
H2  EPW O   H1  H2  EPW O   H1  H2  EPW O   H1  H2  EPW O   H1  H2  EPW O   H1  
H2  EPW O   H1  H2  EPW O   H1  H2  EPW O   H1  H2  EPW O   H1  H2  EPW O   H1  
H2  EPW O   H1  H2  EPW O   H1  H2  EPW O   H1  H2  EPW O   H1  H2  EPW O   H1  
H2  EPW O   H1  H2  EPW O   H1  H2  EPW O   H1  H2  EPW O   H1  H2  EPW O   H1  
H2  EPW O   H1  H2  EPW O   H1  H2  EPW O   H1  H2  EPW O   H1  H2  EPW O   H1  
H2  EPW O   H1  H2  EPW O   H1  H2  EPW O   H1  H2  EPW O   H1  H2  EPW O   H1  
H2  EPW O   H1  H2  EPW O   H1  H2  EPW O   H1  H2  EPW O   H1  H2  EPW O   H1  
H2  EPW O   H1  H2  EPW O   H1  H2  EPW O   H1  H2  EPW O   H1  H2  EPW O   H1  
H2  EPW O   H1  H2  EPW O   H1  H2  EPW O   H1  H2  EPW O   H1  H2  EPW O   H1  
H2  EPW O   H1  H2  EPW O   H1  H2  EPW O   H1  H2  EPW O   H1  H2  EPW O   H1  
H2  EPW O   H1  H2  EPW O   H1  H2  EPW O   H1  H2  EPW O   H1  H2  EPW O   H1  
H2  EPW O   H1  H2  EPW O   H1  H2  EPW O   H1  H2  EPW O   H1  H2  EPW O   H1  
H2  EPW O   H1  H2  EPW O   H1  H2  EPW O   H1  H2  EPW O   H1  H2  EPW O   H1  
H2  EPW O   H1  H2  EPW O   H1  H2  EPW O   H1  H2  EPW O   H1  H2  EPW O   H1  
H2  EPW O   H1  H2  EPW O   H1  H2  EPW O   H1  H2  EPW O   H1  H2  EPW O   H1  
H2  EPW O   H1  H2  EPW O   H1  H2  EPW O   H1  H2  EPW O   H1  H2  EPW O   H1  
H2  EPW O   H1  H2  EPW O   H1  H2  EPW O   H1  H2  EPW O   H1  H2  EPW O   H1  
H2  EPW O   H1  H2  EPW O   H1  H2  EPW O   H1  H2  EPW O   H1  H2  EPW O   H1  
H2  EPW O   H1  H2  EPW O   H1  H2  EPW O   H1  H2  EPW O   H1  H2  EPW O   H1  
H2  EPW O   H1  H2  EPW O   H1  H2  EPW O   H1  H2  EPW O   H1  H2  EPW O   H1  
H2  EPW O   H1  H2  EPW O   H1  H2  EPW O   H1  H2  EPW O   H1  H2  EPW O   H1  
H2  EPW O   H1  H2  EPW O   H1  H2  EPW O   H1  H2  EPW O   H1  H2  EPW O   H1  
H2  EPW O   H1  H2  EPW O   H1  H2  EPW O   H1  H2  EPW O   H1  H2  EPW O   H1  
H2  EPW O   H1  H2  EPW O   H1  H2  EPW O   H1  H2  EPW O   H1  H2  EPW O   H1  
H2  EPW O   H1  H2  EPW O   H1  H2  EPW O   H1  H2  EPW O   H1  H2  EPW O   H1  
H2  EPW O   H1  H2  EPW O   H1  H2  EPW O   H1  H2  EPW O   H1  H2  EPW O   H1  
H2  EPW O   H1  H2  EPW O   H1  H2  EPW O   H1  H2  EPW O   H1  H2  EPW O   H1  
H2  EPW O   H1  H2  EPW O   H1  H2  EPW O   H1  H2  EPW O   H1  H2  EPW O   H1  
H2  EPW O   H1  H2  EPW O   H1  H2  EPW O   H1  H2  EPW O   H1  H2  EPW O   H1  
H2  EPW O   H1  H2  EPW O   H1  H2  EPW O   H1  H2  EPW O   H1  H2  EPW O   H1  
H2  EPW O   H1  H2  EPW O   H1  H2  EPW O   H1  H2  EPW O   H1  H2  EPW O   H1  
H2  EPW O   H1  H2  EPW O   H1  H2  EPW O   H1  H2  EPW O   H1  H2  EPW O   H1  
H2  EPW O   H1  H2  EPW O   H1  H2  EPW O   H1  H2  EPW O   H1  H2  EPW O   H1  
H2  EPW O   H1  H2  EPW O   H1  H2  EPW O   H1  H2  EPW O   H1  H2  EPW O   H1  
H2  EPW O   H1  H2  EPW O   H1  H2  EPW O   H1  H2  EPW O   H1  H2  EPW O   H1  
H2  EPW O   H1  H2  EPW O   H1  H2  EPW O   H1  H2  EPW O   H1  H2  EPW O   H1  
H2  EPW O   H1  H2  EPW O   H1  H2  EPW O   H1  H2  EPW O   H1  H2  EPW O   H1  
H2  EPW O   H1  H2  EPW O   H1  H2  EPW O   H1  H2  EPW O   H1  H2  EPW O   H1  
H2  EPW O   H1  H2  EPW O   H1  H2  EPW O   H1  H2  EPW O   H1  H2  EPW O   H1  
H2  EPW O   H1  H2  EPW O   H1  H2  EPW O   H1  H2  EPW O   H1  H2  EPW O   H1  
H2  EPW O   H1  H2  EPW O   H1  H2  EPW O   H1  H2  EPW O   H1  H2  EPW O   H1  
H2  EPW O   H1  H2  EPW O   H1  H2  EPW O   H1  H2  EPW O   H1  H2  EPW O   H1  
H2  EPW O   H1  H2  EPW O   H1  H2  EPW O   H1  H2  EPW O   H1  H2  EPW O   H1  
H2  EPW O   H1  H2  EPW O   H1  H2  EPW O   H1  H2  EPW O   H1  H2  EPW O   H1  
H2  EPW O   H1  H2  EPW O   H1  H2  EPW O   H1  H2  EPW O   H1  H2  EPW O   H1  
H2  EPW O   H1  H2  EPW O   H1  H2  EPW O   H1  H2  EPW O   H1  H2  EPW O   H1  
H2  EPW O   H1  H2  EPW O   H1  H2  EPW O   H1  H2  EPW O   H1  H2  EPW O   H1  
H2  EPW O   H1  H2  EPW O   H1  H2  EPW O   H1  H2  EPW O   H1  H2  EPW O   H1  
H2  EPW O   H1  H2  EPW O   H1  H2  EPW O   H1  H2  EPW O   H1  H2  EPW O   H1  
H2  EPW O   H1  H2  EPW O   H1  H2  EPW O   H1  H2  EPW O   H1  H2  EPW O   H1  
H2  EPW O   H1  H2  EPW O   H1  H2  EPW O   H1  H2  EPW O   H1  H2  EPW O   H1  
H2  EPW O   H1  H2  EPW O   H1  H2  EPW O   H1  H2  EPW O   H1  H2  EPW O   H1  
H2  EPW O   H1  H2  EPW O   H1  H2  EPW O   H1  H2  EPW O   H1  H2  EPW O   H1  
H2  EPW O   H1  H2  EPW O   H1  H2  EPW O   H1  H2  EPW O   H1  H2  EPW O   H1  
H2  EPW O   H1  H2  EPW O   H1  H2  EPW O   H1  H2  EPW O   H1  H2  EPW O   H1  
H2  EPW O   H1  H2  EPW O   H1  H2  EPW O   H1  H2  EPW O   H1  H2  EPW O   H1  
H2  EPW O   H1  H2  EPW O   H1  H2  EPW O   H1  H2  EPW O   H1  H2  EPW O   H1  
H2  EPW O   H1  H2  EPW O   H1  H2  EPW O   H1  H2  EPW O   H1  H2  EPW O   H1  
H2  EPW O   H1  H2  EPW O   H1  H2  EPW O   H1  H2  EPW O   H1  H2  EPW O   H1  
H2  EPW O   H1  H2  EPW O   H1  H2  EPW O   H1  H2  EPW O   H1  H2  EPW O   H1  
H2  EPW O   H1  H2  EPW O   H1  H2  EPW O   H1  H2  EPW O   H1  H2  EPW O   H1  
H2  EPW O   H1  H2  EPW O   H1  H2  EPW O   H1  H2  EPW O   H1  H2  EPW O   H1  
H2  EPW O   H1  H2  EPW O   H1  H2  EPW O   H1  H2  EPW O   H1  H2  EPW O   H1  
H2  EPW O   H1  H2  EPW O   H1  H2  EPW O   H1  H2  EPW O   H1  H2  EPW O   H1  
H2  EPW O   H1  H2  EPW O   H1  H2  EPW O   H1  H2  EPW O   H1  H2  EPW O   H1  
H2  EPW O   H1  H2  EPW O   H1  H2  EPW O   H1  H2  EPW O   H1  H2  EPW O   H1  
H2  EPW O   H1  H2  EPW O   H1  H2  EPW O   H1  H2  EPW O   H1  H2  EPW O   H1  
H2  EPW O   H1  H2  EPW O   H1  H2  EPW O   H1  H2  EPW O   H1  H2  EPW O   H1  
H2  EPW O   H1  H2  EPW O   H1  H2  EPW O   H1  H2  EPW O   H1  H2  EPW O   H1  
H2  EPW O   H1  H2  EPW O   H1  H2  EPW O   H1  H2  EPW O   H1  H2  EPW O   H1  
H2  EPW O   H1  H2  EPW O   H1  H2  EPW O   H1  H2  EPW O   H1  H2  EPW O   H1  
H2  EPW O   H1  H2  EPW O   H1  H2  EPW O   H1  H2  EPW O   H1  H2  EPW O   H1  
H2  EPW O   H1  H2  EPW O   H1  H2  EPW O   H1  H2  EPW O   H1  H2  EPW O   H1  
H2  EPW O   H1  H2  EPW O   H1  H2  EPW O   H1  H2  EPW O   H1  H2  EPW O   H1  
H2  EPW O   H1  H2  EPW O   H1  H2  EPW O   H1  H2  EPW O   H1  H2  EPW O   H1  
H2  EPW O   H1  H2  EPW O   H1  H2  EPW O   H1  H2  EPW O   H1  H2  EPW O   H1  
H2  EPW O   H1  H2  EPW O   H1  H2  EPW O   H1  H2  EPW O   H1  H2  EPW O   H1  
H2  EPW O   H1  H2  EPW O   H1  H2  EPW O   H1  H2  EPW O   H1  H2  EPW O   H1  
H2  EPW O   H1  H2  EPW O   H1  H2  EPW O   H1  H2  EPW O   H1  H2  EPW O   H1  
H2  EPW O   H1  H2  EPW O   H1  H2  EPW O   H1  H2  EPW O   H1  H2  EPW O   H1  
H2  EPW O   H1  H2  EPW O   H1  H2  EPW O   H1  H2  EPW O   H1  H2  EPW O   H1  
H2  EPW O   H1  H2  EPW O   H1  H2  EPW O   H1  H2  EPW O   H1  H2  EPW O   H1  
H2  EPW O   H1  H2  EPW O   H1  H2  EPW O   H1  H2  EPW O   H1  H2  EPW O   H1  
H2  EPW O   H1  H2  EPW O   H1  H2  EPW O   H1  H2  EPW O   H1  H2  EPW O   H1  
H2  EPW O   H1  H2  EPW O   H1  H2  EPW O   H1  H2  EPW O   H1  H2  EPW O   H1  
H2  EPW O   H1  H2  EPW O   H1  H2  EPW O   H1  H2  EPW O   H1  H2  EPW O   H1  
H2  EPW O   H1  H2  EPW O   H1  H2  EPW O   H1  H2  EPW O   H1  H2  EPW O   H1  
H2  EPW O   H1  H2  EPW O   H1  H2  EPW O   H1  H2  EPW O   H1  H2  EPW O   H1  
H2  EPW O   H1  H2  EPW O   H1  H2  EPW O   H1  H2  EPW O   H1  H2  EPW O   H1  
H2  EPW O   H1  H2  EPW O   H1  H2  EPW O   H1  H2  EPW O   H1  H2  EPW O   H1  
H2  EPW O   H1  H2  EPW O   H1  H2  EPW O   H1  H2  EPW O   H1  H2  EPW O   H1  
H2  EPW O   H1  H2  EPW O   H1  H2  EPW O   H1  H2  EPW O   H1  H2  EPW O   H1  
H2  EPW O   H1  H2  EPW O   H1  H2  EPW O   H1  H2  EPW O   H1  H2  EPW O   H1  
H2  EPW O   H1  H2  EPW O   H1  H2  EPW O   H1  H2  EPW O   H1  H2  EPW O   H1  
H2  EPW O   H1  H2  EPW O   H1  H2  EPW O   H1  H2  EPW O   H1  H2  EPW O   H1  
H2  EPW O   H1  H2  EPW O   H1  H2  EPW O   H1  H2  EPW O   H1  H2  EPW O   H1  
H2  EPW O   H1  H2  EPW O   H1  H2  EPW O   H1  H2  EPW O   H1  H2  EPW O   H1  
H2  EPW O   H1  H2  EPW O   H1  H2  EPW O   H1  H2  EPW O   H1  H2  EPW O   H1  
H2  EPW O   H1  H2  EPW O   H1  H2  EPW O   H1  H2  EPW O   H1  H2  EPW O   H1  
H2  EPW O   H1  H2  EPW O   H1  H2  EPW O   H1  H2  EPW O   H1  H2  EPW O   H1  
H2  EPW O   H1  H2  EPW O   H1  H2  EPW O   H1  H2  EPW O   H1  H2  EPW O   H1  
H2  EPW O   H1  H2  EPW O   H1  H2  EPW O   H1  H2  EPW O   H1  H2  EPW O   H1  
H2  EPW O   H1  H2  EPW O   H1  H2  EPW O   H1  H2  EPW O   H1  H2  EPW O   H1  
H2  EPW O   H1  H2  EPW O   H1  H2  EPW O   H1  H2  EPW O   H1  H2  EPW O   H1  
H2  EPW O   H1  H2  EPW O   H1  H2  EPW O   H1  H2  EPW O   H1  H2  EPW O   H1  
H2  EPW O   H1  H2  EPW O   H1  H2  EPW O   H1  H2  EPW O   H1  H2  EPW O   H1  
H2  EPW O   H1  H2  EPW O   H1  H2  EPW O   H1  H2  EPW O   H1  H2  EPW O   H1  
H2  EPW O   H1  H2  EPW O   H1  H2  EPW O   H1  H2  EPW O   H1  H2  EPW O   H1  
H2  EPW O   H1  H2  EPW O   H1  H2  EPW O   H1  H2  EPW O   H1  H2  EPW O   H1  
H2  EPW O   H1  H2  EPW O   H1  H2  EPW O   H1  H2  EPW O   H1  H2  EPW O   H1  
H2  EPW O   H1  H2  EPW O   H1  H2  EPW O   H1  H2  EPW O   H1  H2  EPW O   H1  
H2  EPW O   H1  H2  EPW O   H1  H2  EPW O   H1  H2  EPW O   H1  H2  EPW O   H1  
H2  EPW O   H1  H2  EPW O   H1  H2  EPW O   H1  H2  EPW O   H1  H2  EPW O   H1  
H2  EPW O   H1  H2  EPW O   H1  H2  EPW O   H1  H2  EPW O   H1  H2  EPW O   H1  
H2  EPW O   H1  H2  EPW O   H1  H2  EPW O   H1  H2  EPW O   H1  H2  EPW O   H1  
H2  EPW O   H1  H2  EPW O   H1  H2  EPW O   H1  H2  EPW O   H1  H2  EPW O   H1  
H2  EPW O   H1  H2  EPW O   H1  H2  EPW O   H1  H2  EPW O   H1  H2  EPW O   H1  
H2  EPW O   H1  H2  EPW O   H1  H2  EPW O   H1  H2  EPW O   H1  H2  EPW O   H1  
H2  EPW O   H1  H2  EPW O   H1  H2  EPW O   H1  H2  EPW O   H1  H2  EPW O   H1  
H2  EPW O   H1  H2  EPW O   H1  H2  EPW O   H1  H2  EPW O   H1  H2  EPW O   H1  
H2  EPW O   H1  H2  EPW O   H1  H2  EPW O   H1  H2  EPW O   H1  H2  EPW O   H1  
H2  EPW O   H1  H2  EPW O   H1  H2  EPW O   H1  H2  EPW O   H1  H2  EPW O   H1  
H2  EPW O   H1  H2  EPW O   H1  H2  EPW O   H1  H2  EPW O   H1  H2  EPW O   H1  
H2  EPW O   H1  H2  EPW O   H1  H2  EPW O   H1  H2  EPW O   H1  H2  EPW O   H1  
H2  EPW O   H1  H2  EPW O   H1  H2  EPW O   H1  H2  EPW O   H1  H2  EPW O   H1  
H2  EPW O   H1  H2  EPW O   H1  H2  EPW O   H1  H2  EPW O   H1  H2  EPW O   H1  
H2  EPW O   H1  H2  EPW O   H1  H2  EPW O   H1  H2  EPW O   H1  H2  EPW O   H1  
H2  EPW O   H1  H2  EPW O   H1  H2  EPW O   H1  H2  EPW O   H1  H2  EPW O   H1  
H2  EPW O   H1  H2  EPW O   H1  H2  EPW O   H1  H2  EPW O   H1  H2  EPW O   H1  
H2  EPW O   H1  H2  EPW O   H1  H2  EPW O   H1  H2  EPW O   H1  H2  EPW O   H1  
H2  EPW O   H1  H2  EPW O   H1  H2  EPW O   H1  H2  EPW O   H1  H2  EPW O   H1  
H2  EPW O   H1  H2  EPW O   H1  H2  EPW O   H1  H2  EPW O   H1  H2  EPW O   H1  
H2  EPW O   H1  H2  EPW O   H1  H2  EPW O   H1  H2  EPW O   H1  H2  EPW O   H1  
H2  EPW O   H1  H2  EPW O   H1  H2  EPW O   H1  H2  EPW O   H1  H2  EPW O   H1  
H2  EPW O   H1  H2  EPW O   H1  H2  EPW O   H1  H2  EPW O   H1  H2  EPW O   H1  
H2  EPW O   H1  H2  EPW O   H1  H2  EPW O   H1  H2  EPW O   H1  H2  EPW O   H1  
H2  EPW O   H1  H2  EPW O   H1  H2  EPW O   H1  H2  EPW O   H1  H2  EPW O   H1  
H2  EPW O   H1  H2  EPW O   H1  H2  EPW O   H1  H2  EPW O   H1  H2  EPW O   H1  
H2  EPW O   H1  H2  EPW O   H1  H2  EPW O   H1  H2  EPW O   H1  H2  EPW O   H1  
H2  EPW O   H1  H2  EPW O   H1  H2  EPW O   H1  H2  EPW O   H1  H2  EPW O   H1  
H2  EPW O   H1  H2  EPW O   H1  H2  EPW O   H1  H2  EPW O   H1  H2  EPW O   H1  
H2  EPW O   H1  H2  EPW O   H1  H2  EPW O   H1  H2  EPW O   H1  H2  EPW O   H1  
H2  EPW O   H1  H2  EPW O   H1  H2  EPW O   H1  H2  EPW O   H1  H2  EPW O   H1  
H2  EPW O   H1  H2  EPW O   H1  H2  EPW O   H1  H2  EPW O   H1  H2  EPW O   H1  
H2  EPW O   H1  H2  EPW O   H1  H2  EPW O   H1  H2  EPW O   H1  H2  EPW O   H1  
H2  EPW O   H1  H2  EPW O   H1  H2  EPW O   H1  H2  EPW O   H1  H2  EPW O   H1  
H2  EPW O   H1  H2  EPW O   H1  H2  EPW O   H1  H2  EPW O   H1  H2  EPW O   H1  
H2  EPW O   H1  H2  EPW O   H1  H2  EPW O   H1  H2  EPW O   H1  H2  EPW O   H1  
H2  EPW O   H1  H2  EPW O   H1  H2  EPW O   H1  H2  EPW O   H1  H2  EPW O   H1  
H2  EPW O   H1  H2  EPW 
%FLAG CHARGE                                                                    
%FORMAT(5E16.8)                                                                 
  2.04636429E+00 -6.67300626E+00  2.04636429E+00  2.04636429E+00  1.08823576E+01
 -1.03484442E+01 -7.57501011E+00  4.95464337E+00  6.14091510E-01  1.49969529E+00
 -3.32556975E+00  1.09880469E+00  1.09880469E+00  1.09880469E+00  1.08841798E+01
 -1.03484442E+01 -7.57501011E+00  4.95464337E+00  6.14091510E-01  1.49969529E+00
 -3.32556975E+00  1.09880469E+00  1.09880469E+00  1.09880469E+00  1.08841798E+01
 -1.03484442E+01 -7.57501011E+00  4.95464337E+00  6.14091510E-01  1.49969529E+00
 -3.32556975E+00  1.09880469E+00  1.09880469E+00  1.09880469E+00  1.08841798E+01
 -1.03484442E+01 -7.57501011E+00  4.95464337E+00 -2.71512270E+00  1.77849648E+00
  1.77849648E+00  1.77849648E+00  0.00000000E+00  1.23755293E+01  1.23755293E+01
 -2.47510585E+01  0.00000000E+00  1.23755293E+01  1.23755293E+01 -2.47510585E+01
  0.00000000E+00  1.23755293E+01  1.23755293E+01 -2.47510585E+01  0.00000000E+00
  1.23755293E+01  1.23755293E+01 -2.47510585E+01  0.00000000E+00  1.23755293E+01
  1.23755293E+01 -2.47510585E+01  0.00000000E+00  1.23755293E+01  1.23755293E+01
 -2.47510585E+01  0.00000000E+00  1.23755293E+01  1.23755293E+01 -2.47510585E+01
  0.00000000E+00  1.23755293E+01  1.23755293E+01 -2.47510585E+01  0.00000000E+00
  1.23755293E+01  1.23755293E+01 -2.47510585E+01  0.00000000E+00  1.23755293E+01
  1.23755293E+01 -2.47510585E+01  0.00000000E+00  1.23755293E+01  1.23755293E+01
 -2.47510585E+01  0.00000000E+00  1.23755293E+01  1.23755293E+01 -2.47510585E+01
  0.00000000E+00  1.23755293E+01  1.23755293E+01 -2.47510585E+01  0.00000000E+00
  1.23755293E+01  1.23755293E+01 -2.47510585E+01  0.00000000E+00  1.23755293E+01
  1.23755293E+01 -2.47510585E+01  0.00000000E+00  1.23755293E+01  1.23755293E+01
 -2.47510585E+01  0.00000000E+00  1.23755293E+01  1.23755293E+01 -2.47510585E+01
  0.00000000E+00  1.23755293E+01  1.23755293E+01 -2.47510585E+01  0.00000000E+00
  1.23755293E+01  1.23755293E+01 -2.47510585E+01  0.00000000E+00  1.23755293E+01
  1.23755293E+01 -2.47510585E+01  0.00000000E+00  1.23755293E+01  1.23755293E+01
 -2.47510585E+01  0.00000000E+00  1.23755293E+01  1.23755293E+01 -2.47510585E+01
  0.00000000E+00  1.23755293E+01  1.23755293E+01 -2.47510585E+01  0.00000000E+00
  1.23755293E+01  1.23755293E+01 -2.47510585E+01  0.00000000E+00  1.23755293E+01
  1.23755293E+01 -2.47510585E+01  0.00000000E+00  1.23755293E+01  1.23755293E+01
 -2.47510585E+01  0.00000000E+00  1.23755293E+01  1.23755293E+01 -2.47510585E+01
  0.00000000E+00  1.23755293E+01  1.23755293E+01 -2.47510585E+01  0.00000000E+00
  1.23755293E+01  1.23755293E+01 -2.47510585E+01  0.00000000E+00  1.23755293E+01
  1.23755293E+01 -2.47510585E+01  0.00000000E+00  1.23755293E+01  1.23755293E+01
 -2.47510585E+01  0.00000000E+00  1.23755293E+01  1.23755293E+01 -2.47510585E+01
  0.00000000E+00  1.23755293E+01  1.23755293E+01 -2.47510585E+01  0.00000000E+00
  1.23755293E+01  1.23755293E+01 -2.47510585E+01  0.00000000E+00  1.23755293E+01
  1.23755293E+01 -2.47510585E+01  0.00000000E+00  1.23755293E+01  1.23755293E+01
 -2.47510585E+01  0.00000000E+00  1.23755293E+01  1.23755293E+01 -2.47510585E+01
  0.00000000E+00  1.23755293E+01  1.23755293E+01 -2.47510585E+01  0.00000000E+00
  1.23755293E+01  1.23755293E+01 -2.47510585E+01  0.00000000E+00  1.23755293E+01
  1.23755293E+01 -2.47510585E+01  0.00000000E+00  1.23755293E+01  1.23755293E+01
 -2.47510585E+01  0.00000000E+00  1.23755293E+01  1.23755293E+01 -2.47510585E+01
  0.00000000E+00  1.23755293E+01  1.23755293E+01 -2.47510585E+01  0.00000000E+00
  1.23755293E+01  1.23755293E+01 -2.47510585E+01  0.00000000E+00  1.23755293E+01
  1.23755293E+01 -2.47510585E+01  0.00000000E+00  1.23755293E+01  1.23755293E+01
 -2.47510585E+01  0.00000000E+00  1.23755293E+01  1.23755293E+01 -2.47510585E+01
  0.00000000E+00  1.23755293E+01  1.23755293E+01 -2.47510585E+01  0.00000000E+00
  1.23755293E+01  1.23755293E+01 -2.47510585E+01  0.00000000E+00  1.23755293E+01
  1.23755293E+01 -2.47510585E+01  0.00000000E+00  1.23755293E+01  1.23755293E+01
 -2.47510585E+01  0.00000000E+00  1.23755293E+01  1.23755293E+01 -2.47510585E+01
  0.00000000E+00  1.23755293E+01  1.23755293E+01 -2.47510585E+01  0.00000000E+00
  1.23755293E+01  1.23755293E+01 -2.47510585E+01  0.00000000E+00  1.23755293E+01
  1.23755293E+01 -2.47510585E+01  0.00000000E+00  1.23755293E+01  1.23755293E+01
 -2.47510585E+01  0.00000000E+00  1.23755293E+01  1.23755293E+01 -2.47510585E+01
  0.00000000E+00  1.23755293E+01  1.23755293E+01 -2.47510585E+01  0.00000000E+00
  1.23755293E+01  1.23755293E+01 -2.47510585E+01  0.00000000E+00  1.23755293E+01
  1.23755293E+01 -2.47510585E+01  0.00000000E+00  1.23755293E+01  1.23755293E+01
 -2.47510585E+01  0.00000000E+00  1.23755293E+01  1.23755293E+01 -2.47510585E+01
  0.00000000E+00  1.23755293E+01  1.23755293E+01 -2.47510585E+01  0.00000000E+00
  1.23755293E+01  1.23755293E+01 -2.47510585E+01  0.00000000E+00  1.23755293E+01
  1.23755293E+01 -2.47510585E+01  0.00000000E+00  1.23755293E+01  1.23755293E+01
 -2.47510585E+01  0.00000000E+00  1.23755293E+01  1.23755293E+01 -2.47510585E+01
  0.00000000E+00  1.23755293E+01  1.23755293E+01 -2.47510585E+01  0.00000000E+00
  1.23755293E+01  1.23755293E+01 -2.47510585E+01  0.00000000E+00  1.23755293E+01
  1.23755293E+01 -2.47510585E+01  0.00000000E+00  1.23755293E+01  1.23755293E+01
 -2.47510585E+01  0.00000000E+00  1.23755293E+01  1.23755293E+01 -2.47510585E+01
  0.00000000E+00  1.23755293E+01  1.23755293E+01 -2.47510585E+01  0.00000000E+00
  1.23755293E+01  1.23755293E+01 -2.47510585E+01  0.00000000E+00  1.23755293E+01
  1.23755293E+01 -2.47510585E+01  0.00000000E+00  1.23755293E+01  1.23755293E+01
 -2.47510585E+01  0.00000000E+00  1.23755293E+01  1.23755293E+01 -2.47510585E+01
  0.00000000E+00  1.23755293E+01  1.23755293E+01 -2.47510585E+01  0.00000000E+00
  1.23755293E+01  1.23755293E+01 -2.47510585E+01  0.00000000E+00  1.23755293E+01
  1.23755293E+01 -2.47510585E+01  0.00000000E+00  1.23755293E+01  1.23755293E+01
 -2.47510585E+01  0.00000000E+00  1.23755293E+01  1.23755293E+01 -2.47510585E+01
  0.00000000E+00  1.23755293E+01  1.23755293E+01 -2.47510585E+01  0.00000000E+00
  1.23755293E+01  1.23755293E+01 -2.47510585E+01  0.00000000E+00  1.23755293E+01
  1.23755293E+01 -2.47510585E+01  0.00000000E+00  1.23755293E+01  1.23755293E+01
 -2.47510585E+01  0.00000000E+00  1.23755293E+01  1.23755293E+01 -2.47510585E+01
  0.00000000E+00  1.23755293E+01  1.23755293E+01 -2.47510585E+01  0.00000000E+00
  1.23755293E+01  1.23755293E+01 -2.47510585E+01  0.00000000E+00  1.23755293E+01
  1.23755293E+01 -2.47510585E+01  0.00000000E+00  1.23755293E+01  1.23755293E+01
 -2.47510585E+01  0.00000000E+00  1.23755293E+01  1.23755293E+01 -2.47510585E+01
  0.00000000E+00  1.23755293E+01  1.23755293E+01 -2.47510585E+01  0.00000000E+00
  1.23755293E+01  1.23755293E+01 -2.47510585E+01  0.00000000E+00  1.23755293E+01
  1.23755293E+01 -2.47510585E+01  0.00000000E+00  1.23755293E+01  1.23755293E+01
 -2.47510585E+01  0.00000000E+00  1.23755293E+01  1.23755293E+01 -2.47510585E+01
  0.00000000E+00  1.23755293E+01  1.23755293E+01 -2.47510585E+01  0.00000000E+00
  1.23755293E+01  1.23755293E+01 -2.47510585E+01  0.00000000E+00  1.23755293E+01
  1.23755293E+01 -2.47510585E+01  0.00000000E+00  1.23755293E+01  1.23755293E+01
 -2.47510585E+01  0.00000000E+00  1.23755293E+01  1.23755293E+01 -2.47510585E+01
  0.00000000E+00  1.23755293E+01  1.23755293E+01 -2.47510585E+01  0.00000000E+00
  1.23755293E+01  1.23755293E+01 -2.47510585E+01  0.00000000E+00  1.23755293E+01
  1.23755293E+01 -2.47510585E+01  0.00000000E+00  1.23755293E+01  1.23755293E+01
 -2.47510585E+01  0.00000000E+00  1.23755293E+01  1.23755293E+01 -2.47510585E+01
  0.00000000E+00  1.23755293E+01  1.23755293E+01 -2.47510585E+01  0.00000000E+00
  1.23755293E+01  1.23755293E+01 -2.47510585E+01  0.00000000E+00  1.23755293E+01
  1.23755293E+01 -2.47510585E+01  0.00000000E+00  1.23755293E+01  1.23755293E+01
 -2.47510585E+01  0.00000000E+00  1.23755293E+01  1.23755293E+01 -2.47510585E+01
  0.00000000E+00  1.23755293E+01  1.23755293E+01 -2.47510585E+01  0.00000000E+00
  1.23755293E+01  1.23755293E+01 -2.47510585E+01  0.00000000E+00  1.23755293E+01
  1.23755293E+01 -2.47510585E+01  0.00000000E+00  1.23755293E+01  1.23755293E+01
 -2.47510585E+01  0.00000000E+00  1.23755293E+01  1.23755293E+01 -2.47510585E+01
  0.00000000E+00  1.23755293E+01  1.23755293E+01 -2.47510585E+01  0.00000000E+00
  1.23755293E+01  1.23755293E+01 -2.47510585E+01  0.00000000E+00  1.23755293E+01
  1.23755293E+01 -2.47510585E+01  0.00000000E+00  1.23755293E+01  1.23755293E+01
 -2.47510585E+01  0.00000000E+00  1.23755293E+01  1.23755293E+01 -2.47510585E+01
  0.00000000E+00  1.23755293E+01  1.23755293E+01 -2.47510585E+01  0.00000000E+00
  1.23755293E+01  1.23755293E+01 -2.47510585E+01  0.00000000E+00  1.23755293E+01
  1.23755293E+01 -2.47510585E+01  0.00000000E+00  1.23755293E+01  1.23755293E+01
 -2.47510585E+01  0.00000000E+00  1.23755293E+01  1.23755293E+01 -2.47510585E+01
  0.00000000E+00  1.23755293E+01  1.23755293E+01 -2.47510585E+01  0.00000000E+00
  1.23755293E+01  1.23755293E+01 -2.47510585E+01  0.00000000E+00  1.23755293E+01
  1.23755293E+01 -2.47510585E+01  0.00000000E+00  1.23755293E+01  1.23755293E+01
 -2.47510585E+01  0.00000000E+00  1.23755293E+01  1.23755293E+01 -2.47510585E+01
  0.00000000E+00  1.23755293E+01  1.23755293E+01 -2.47510585E+01  0.00000000E+00
  1.23755293E+01  1.23755293E+01 -2.47510585E+01  0.00000000E+00  1.23755293E+01
  1.23755293E+01 -2.47510585E+01  0.00000000E+00  1.23755293E+01  1.23755293E+01
 -2.47510585E+01  0.00000000E+00  1.23755293E+01  1.23755293E+01 -2.47510585E+01
  0.00000000E+00  1.23755293E+01  1.23755293E+01 -2.47510585E+01  0.00000000E+00
  1.23755293E+01  1.23755293E+01 -2.47510585E+01  0.00000000E+00  1.23755293E+01
  1.23755293E+01 -2.47510585E+01  0.00000000E+00  1.23755293E+01  1.23755293E+01
 -2.47510585E+01  0.00000000E+00  1.23755293E+01  1.23755293E+01 -2.47510585E+01
  0.00000000E+00  1.23755293E+01  1.23755293E+01 -2.47510585E+01  0.00000000E+00
  1.23755293E+01  1.23755293E+01 -2.47510585E+01  0.00000000E+00  1.23755293E+01
  1.23755293E+01 -2.47510585E+01  0.00000000E+00  1.23755293E+01  1.23755293E+01
 -2.47510585E+01  0.00000000E+00  1.23755293E+01  1.23755293E+01 -2.47510585E+01
  0.00000000E+00  1.23755293E+01  1.23755293E+01 -2.47510585E+01  0.00000000E+00
  1.23755293E+01  1.23755293E+01 -2.47510585E+01  0.00000000E+00  1.23755293E+01
  1.23755293E+01 -2.47510585E+01  0.00000000E+00  1.23755293E+01  1.23755293E+01
 -2.47510585E+01  0.00000000E+00  1.23755293E+01  1.23755293E+01 -2.47510585E+01
  0.00000000E+00  1.23755293E+01  1.23755293E+01 -2.47510585E+01  0.00000000E+00
  1.23755293E+01  1.23755293E+01 -2.47510585E+01  0.00000000E+00  1.23755293E+01
  1.23755293E+01 -2.47510585E+01  0.00000000E+00  1.23755293E+01  1.23755293E+01
 -2.47510585E+01  0.00000000E+00  1.23755293E+01  1.23755293E+01 -2.47510585E+01
  0.00000000E+00  1.23755293E+01  1.23755293E+01 -2.47510585E+01  0.00000000E+00
  1.23755293E+01  1.23755293E+01 -2.47510585E+01  0.00000000E+00  1.23755293E+01
  1.23755293E+01 -2.47510585E+01  0.00000000E+00  1.23755293E+01  1.23755293E+01
 -2.47510585E+01  0.00000000E+00  1.23755293E+01  1.23755293E+01 -2.47510585E+01
  0.00000000E+00  1.23755293E+01  1.23755293E+01 -2.47510585E+01  0.00000000E+00
  1.23755293E+01  1.23755293E+01 -2.47510585E+01  0.00000000E+00  1.23755293E+01
  1.23755293E+01 -2.47510585E+01  0.00000000E+00  1.23755293E+01  1.23755293E+01
 -2.47510585E+01  0.00000000E+00  1.23755293E+01  1.23755293E+01 -2.47510585E+01
  0.00000000E+00  1.23755293E+01  1.23755293E+01 -2.47510585E+01  0.00000000E+00
  1.23755293E+01  1.23755293E+01 -2.47510585E+01  0.00000000E+00  1.23755293E+01
  1.23755293E+01 -2.47510585E+01  0.00000000E+00  1.23755293E+01  1.23755293E+01
 -2.47510585E+01  0.00000000E+00  1.23755293E+01  1.23755293E+01 -2.47510585E+01
  0.00000000E+00  1.23755293E+01  1.23755293E+01 -2.47510585E+01  0.00000000E+00
  1.23755293E+01  1.23755293E+01 -2.47510585E+01  0.00000000E+00  1.23755293E+01
  1.23755293E+01 -2.47510585E+01  0.00000000E+00  1.23755293E+01  1.23755293E+01
 -2.47510585E+01  0.00000000E+00  1.23755293E+01  1.23755293E+01 -2.47510585E+01
  0.00000000E+00  1.23755293E+01  1.23755293E+01 -2.47510585E+01  0.00000000E+00
  1.23755293E+01  1.23755293E+01 -2.47510585E+01  0.00000000E+00  1.23755293E+01
  1.23755293E+01 -2.47510585E+01  0.00000000E+00  1.23755293E+01  1.23755293E+01
 -2.47510585E+01  0.00000000E+00  1.23755293E+01  1.23755293E+01 -2.47510585E+01
  0.00000000E+00  1.23755293E+01  1.23755293E+01 -2.47510585E+01  0.00000000E+00
  1.23755293E+01  1.23755293E+01 -2.47510585E+01  0.00000000E+00  1.23755293E+01
  1.23755293E+01 -2.47510585E+01  0.00000000E+00  1.23755293E+01  1.23755293E+01
 -2.47510585E+01  0.00000000E+00  1.23755293E+01  1.23755293E+01 -2.47510585E+01
  0.00000000E+00  1.23755293E+01  1.23755293E+01 -2.47510585E+01  0.00000000E+00
  1.23755293E+01  1.23755293E+01 -2.47510585E+01  0.00000000E+00  1.23755293E+01
  1.23755293E+01 -2.47510585E+01  0.00000000E+00  1.23755293E+01  1.23755293E+01
 -2.47510585E+01  0.00000000E+00  1.23755293E+01  1.23755293E+01 -2.47510585E+01
  0.00000000E+00  1.23755293E+01  1.23755293E+01 -2.47510585E+01  0.00000000E+00
  1.23755293E+01  1.23755293E+01 -2.47510585E+01  0.00000000E+00  1.23755293E+01
  1.23755293E+01 -2.47510585E+01  0.00000000E+00  1.23755293E+01  1.23755293E+01
 -2.47510585E+01  0.00000000E+00  1.23755293E+01  1.23755293E+01 -2.47510585E+01
  0.00000000E+00  1.23755293E+01  1.23755293E+01 -2.47510585E+01  0.00000000E+00
  1.23755293E+01  1.23755293E+01 -2.47510585E+01  0.00000000E+00  1.23755293E+01
  1.23755293E+01 -2.47510585E+01  0.00000000E+00  1.23755293E+01  1.23755293E+01
 -2.47510585E+01  0.00000000E+00  1.23755293E+01  1.23755293E+01 -2.47510585E+01
  0.00000000E+00  1.23755293E+01  1.23755293E+01 -2.47510585E+01  0.00000000E+00
  1.23755293E+01  1.23755293E+01 -2.47510585E+01  0.00000000E+00  1.23755293E+01
  1.23755293E+01 -2.47510585E+01  0.00000000E+00  1.23755293E+01  1.23755293E+01
 -2.47510585E+01  0.00000000E+00  1.23755293E+01  1.23755293E+01 -2.47510585E+01
  0.00000000E+00  1.23755293E+01  1.23755293E+01 -2.47510585E+01  0.00000000E+00
  1.23755293E+01  1.23755293E+01 -2.47510585E+01  0.00000000E+00  1.23755293E+01
  1.23755293E+01 -2.47510585E+01  0.00000000E+00  1.23755293E+01  1.23755293E+01
 -2.47510585E+01  0.00000000E+00  1.23755293E+01  1.23755293E+01 -2.47510585E+01
  0.00000000E+00  1.23755293E+01  1.23755293E+01 -2.47510585E+01  0.00000000E+00
  1.23755293E+01  1.23755293E+01 -2.47510585E+01  0.00000000E+00  1.23755293E+01
  1.23755293E+01 -2.47510585E+01  0.00000000E+00  1.23755293E+01  1.23755293E+01
 -2.47510585E+01  0.00000000E+00  1.23755293E+01  1.23755293E+01 -2.47510585E+01
  0.00000000E+00  1.23755293E+01  1.23755293E+01 -2.47510585E+01  0.00000000E+00
  1.23755293E+01  1.23755293E+01 -2.47510585E+01  0.00000000E+00  1.23755293E+01
  1.23755293E+01 -2.47510585E+01  0.00000000E+00  1.23755293E+01  1.23755293E+01
 -2.47510585E+01  0.00000000E+00  1.23755293E+01  1.23755293E+01 -2.47510585E+01
  0.00000000E+00  1.23755293E+01  1.23755293E+01 -2.47510585E+01  0.00000000E+00
  1.23755293E+01  1.23755293E+01 -2.47510585E+01  0.00000000E+00  1.23755293E+01
  1.23755293E+01 -2.47510585E+01  0.00000000E+00  1.23755293E+01  1.23755293E+01
 -2.47510585E+01  0.00000000E+00  1.23755293E+01  1.23755293E+01 -2.47510585E+01
  0.00000000E+00  1.23755293E+01  1.23755293E+01 -2.47510585E+01  0.00000000E+00
  1.23755293E+01  1.23755293E+01 -2.47510585E+01  0.00000000E+00  1.23755293E+01
  1.23755293E+01 -2.47510585E+01  0.00000000E+00  1.23755293E+01  1.23755293E+01
 -2.47510585E+01  0.00000000E+00  1.23755293E+01  1.23755293E+01 -2.47510585E+01
  0.00000000E+00  1.23755293E+01  1.23755293E+01 -2.47510585E+01  0.00000000E+00
  1.23755293E+01  1.23755293E+01 -2.47510585E+01  0.00000000E+00  1.23755293E+01
  1.23755293E+01 -2.47510585E+01  0.00000000E+00  1.23755293E+01  1.23755293E+01
 -2.47510585E+01  0.00000000E+00  1.23755293E+01  1.23755293E+01 -2.47510585E+01
  0.00000000E+00  1.23755293E+01  1.23755293E+01 -2.47510585E+01  0.00000000E+00
  1.23755293E+01  1.23755293E+01 -2.47510585E+01  0.00000000E+00  1.23755293E+01
  1.23755293E+01 -2.47510585E+01  0.00000000E+00  1.23755293E+01  1.23755293E+01
 -2.47510585E+01  0.00000000E+00  1.23755293E+01  1.23755293E+01 -2.47510585E+01
  0.00000000E+00  1.23755293E+01  1.23755293E+01 -2.47510585E+01  0.00000000E+00
  1.23755293E+01  1.23755293E+01 -2.47510585E+01  0.00000000E+00  1.23755293E+01
  1.23755293E+01 -2.47510585E+01  0.00000000E+00  1.23755293E+01  1.23755293E+01
 -2.47510585E+01  0.00000000E+00  1.23755293E+01  1.23755293E+01 -2.47510585E+01
  0.00000000E+00  1.23755293E+01  1.23755293E+01 -2.47510585E+01  0.00000000E+00
  1.23755293E+01  1.23755293E+01 -2.47510585E+01  0.00000000E+00  1.23755293E+01
  1.23755293E+01 -2.47510585E+01  0.00000000E+00  1.23755293E+01  1.23755293E+01
 -2.47510585E+01  0.00000000E+00  1.23755293E+01  1.23755293E+01 -2.47510585E+01
  0.00000000E+00  1.23755293E+01  1.23755293E+01 -2.47510585E+01  0.00000000E+00
  1.23755293E+01  1.23755293E+01 -2.47510585E+01  0.00000000E+00  1.23755293E+01
  1.23755293E+01 -2.47510585E+01  0.00000000E+00  1.23755293E+01  1.23755293E+01
 -2.47510585E+01  0.00000000E+00  1.23755293E+01  1.23755293E+01 -2.47510585E+01
  0.00000000E+00  1.23755293E+01  1.23755293E+01 -2.47510585E+01  0.00000000E+00
  1.23755293E+01  1.23755293E+01 -2.47510585E+01  0.00000000E+00  1.23755293E+01
  1.23755293E+01 -2.47510585E+01  0.00000000E+00  1.23755293E+01  1.23755293E+01
 -2.47510585E+01  0.00000000E+00  1.23755293E+01  1.23755293E+01 -2.47510585E+01
  0.00000000E+00  1.23755293E+01  1.23755293E+01 -2.47510585E+01  0.00000000E+00
  1.23755293E+01  1.23755293E+01 -2.47510585E+01  0.00000000E+00  1.23755293E+01
  1.23755293E+01 -2.47510585E+01  0.00000000E+00  1.23755293E+01  1.23755293E+01
 -2.47510585E+01  0.00000000E+00  1.23755293E+01  1.23755293E+01 -2.47510585E+01
  0.00000000E+00  1.23755293E+01  1.23755293E+01 -2.47510585E+01  0.00000000E+00
  1.23755293E+01  1.23755293E+01 -2.47510585E+01  0.00000000E+00  1.23755293E+01
  1.23755293E+01 -2.47510585E+01  0.00000000E+00  1.23755293E+01  1.23755293E+01
 -2.47510585E+01  0.00000000E+00  1.23755293E+01  1.23755293E+01 -2.47510585E+01
  0.00000000E+00  1.23755293E+01  1.23755293E+01 -2.47510585E+01  0.00000000E+00
  1.23755293E+01  1.23755293E+01 -2.47510585E+01  0.00000000E+00  1.23755293E+01
  1.23755293E+01 -2.47510585E+01  0.00000000E+00  1.23755293E+01  1.23755293E+01
 -2.47510585E+01  0.00000000E+00  1.23755293E+01  1.23755293E+01 -2.47510585E+01
  0.00000000E+00  1.23755293E+01  1.23755293E+01 -2.47510585E+01  0.00000000E+00
  1.23755293E+01  1.23755293E+01 -2.47510585E+01  0.00000000E+00  1.23755293E+01
  1.23755293E+01 -2.47510585E+01  0.00000000E+00  1.23755293E+01  1.23755293E+01
 -2.47510585E+01  0.00000000E+00  1.23755293E+01  1.23755293E+01 -2.47510585E+01
  0.00000000E+00  1.23755293E+01  1.23755293E+01 -2.47510585E+01  0.00000000E+00
  1.23755293E+01  1.23755293E+01 -2.47510585E+01  0.00000000E+00  1.23755293E+01
  1.23755293E+01 -2.47510585E+01  0.00000000E+00  1.23755293E+01  1.23755293E+01
 -2.47510585E+01  0.00000000E+00  1.23755293E+01  1.23755293E+01 -2.47510585E+01
  0.00000000E+00  1.23755293E+01  1.23755293E+01 -2.47510585E+01  0.00000000E+00
  1.23755293E+01  1.23755293E+01 -2.47510585E+01  0.00000000E+00  1.23755293E+01
  1.23755293E+01 -2.47510585E+01  0.00000000E+00  1.23755293E+01  1.23755293E+01
 -2.47510585E+01  0.00000000E+00  1.23755293E+01  1.23755293E+01 -2.47510585E+01
  0.00000000E+00  1.23755293E+01  1.23755293E+01 -2.47510585E+01  0.00000000E+00
  1.23755293E+01  1.23755293E+01 -2.47510585E+01  0.00000000E+00  1.23755293E+01
  1.23755293E+01 -2.47510585E+01  0.00000000E+00  1.23755293E+01  1.23755293E+01
 -2.47510585E+01  0.00000000E+00  1.23755293E+01  1.23755293E+01 -2.47510585E+01
  0.00000000E+00  1.23755293E+01  1.23755293E+01 -2.47510585E+01  0.00000000E+00
  1.23755293E+01  1.23755293E+01 -2.47510585E+01  0.00000000E+00  1.23755293E+01
  1.23755293E+01 -2.47510585E+01  0.00000000E+00  1.23755293E+01  1.23755293E+01
 -2.47510585E+01  0.00000000E+00  1.23755293E+01  1.23755293E+01 -2.47510585E+01
  0.00000000E+00  1.23755293E+01  1.23755293E+01 -2.47510585E+01  0.00000000E+00
  1.23755293E+01  1.23755293E+01 -2.47510585E+01  0.00000000E+00  1.23755293E+01
  1.23755293E+01 -2.47510585E+01  0.00000000E+00  1.23755293E+01  1.23755293E+01
 -2.47510585E+01  0.00000000E+00  1.23755293E+01  1.23755293E+01 -2.47510585E+01
  0.00000000E+00  1.23755293E+01  1.23755293E+01 -2.47510585E+01  0.00000000E+00
  1.23755293E+01  1.23755293E+01 -2.47510585E+01  0.00000000E+00  1.23755293E+01
  1.23755293E+01 -2.47510585E+01  0.00000000E+00  1.23755293E+01  1.23755293E+01
 -2.47510585E+01  0.00000000E+00  1.23755293E+01  1.23755293E+01 -2.47510585E+01
  0.00000000E+00  1.23755293E+01  1.23755293E+01 -2.47510585E+01  0.00000000E+00
  1.23755293E+01  1.23755293E+01 -2.47510585E+01  0.00000000E+00  1.23755293E+01
  1.23755293E+01 -2.47510585E+01  0.00000000E+00  1.23755293E+01  1.23755293E+01
 -2.47510585E+01  0.00000000E+00  1.23755293E+01  1.23755293E+01 -2.47510585E+01
  0.00000000E+00  1.23755293E+01  1.23755293E+01 -2.47510585E+01  0.00000000E+00
  1.23755293E+01  1.23755293E+01 -2.47510585E+01  0.00000000E+00  1.23755293E+01
  1.23755293E+01 -2.47510585E+01  0.00000000E+00  1.23755293E+01  1.23755293E+01
 -2.47510585E+01  0.00000000E+00  1.23755293E+01  1.23755293E+01 -2.47510585E+01
  0.00000000E+00  1.23755293E+01  1.23755293E+01 -2.47510585E+01  0.00000000E+00
  1.23755293E+01  1.23755293E+01 -2.47510585E+01  0.00000000E+00  1.23755293E+01
  1.23755293E+01 -2.47510585E+01  0.00000000E+00  1.23755293E+01  1.23755293E+01
 -2.47510585E+01  0.00000000E+00  1.23755293E+01  1.23755293E+01 -2.47510585E+01
  0.00000000E+00  1.23755293E+01  1.23755293E+01 -2.47510585E+01  0.00000000E+00
  1.23755293E+01  1.23755293E+01 -2.47510585E+01  0.00000000E+00  1.23755293E+01
  1.23755293E+01 -2.47510585E+01  0.00000000E+00  1.23755293E+01  1.23755293E+01
 -2.47510585E+01  0.00000000E+00  1.23755293E+01  1.23755293E+01 -2.47510585E+01
  0.00000000E+00  1.23755293E+01  1.23755293E+01 -2.47510585E+01  0.00000000E+00
  1.23755293E+01  1.23755293E+01 -2.47510585E+01  0.00000000E+00  1.23755293E+01
  1.23755293E+01 -2.47510585E+01  0.00000000E+00  1.23755293E+01  1.23755293E+01
 -2.47510585E+01  0.00000000E+00  1.23755293E+01  1.23755293E+01 -2.47510585E+01
  0.00000000E+00  1.23755293E+01  1.23755293E+01 -2.47510585E+01  0.00000000E+00
  1.23755293E+01  1.23755293E+01 -2.47510585E+01  0.00000000E+00  1.23755293E+01
  1.23755293E+01 -2.47510585E+01  0.00000000E+00  1.23755293E+01  1.23755293E+01
 -2.47510585E+01  0.00000000E+00  1.23755293E+01  1.23755293E+01 -2.47510585E+01
  0.00000000E+00  1.23755293E+01  1.23755293E+01 -2.47510585E+01  0.00000000E+00
  1.23755293E+01  1.23755293E+01 -2.47510585E+01  0.00000000E+00  1.23755293E+01
  1.23755293E+01 -2.47510585E+01  0.00000000E+00  1.23755293E+01  1.23755293E+01
 -2.47510585E+01  0.00000000E+00  1.23755293E+01  1.23755293E+01 -2.47510585E+01
  0.00000000E+00  1.23755293E+01  1.23755293E+01 -2.47510585E+01  0.00000000E+00
  1.23755293E+01  1.23755293E+01 -2.47510585E+01  0.00000000E+00  1.23755293E+01
  1.23755293E+01 -2.47510585E+01  0.00000000E+00  1.23755293E+01  1.23755293E+01
 -2.47510585E+01  0.00000000E+00  1.23755293E+01  1.23755293E+01 -2.47510585E+01
  0.00000000E+00  1.23755293E+01  1.23755293E+01 -2.47510585E+01  0.00000000E+00
  1.23755293E+01  1.23755293E+01 -2.47510585E+01  0.00000000E+00  1.23755293E+01
  1.23755293E+01 -2.47510585E+01  0.00000000E+00  1.23755293E+01  1.23755293E+01
 -2.47510585E+01  0.00000000E+00  1.23755293E+01  1.23755293E+01 -2.47510585E+01
  0.00000000E+00  1.23755293E+01  1.23755293E+01 -2.47510585E+01  0.00000000E+00
  1.23755293E+01  1.23755293E+01 -2.47510585E+01  0.00000000E+00  1.23755293E+01
  1.23755293E+01 -2.47510585E+01  0.00000000E+00  1.23755293E+01  1.23755293E+01
 -2.47510585E+01  0.00000000E+00  1.23755293E+01  1.23755293E+01 -2.47510585E+01
  0.00000000E+00  1.23755293E+01  1.23755293E+01 -2.47510585E+01  0.00000000E+00
  1.23755293E+01  1.23755293E+01 -2.47510585E+01  0.00000000E+00  1.23755293E+01
  1.23755293E+01 -2.47510585E+01  0.00000000E+00  1.23755293E+01  1.23755293E+01
 -2.47510585E+01  0.00000000E+00  1.23755293E+01  1.23755293E+01 -2.47510585E+01
  0.00000000E+00  1.23755293E+01  1.23755293E+01 -2.47510585E+01  0.00000000E+00
  1.23755293E+01  1.23755293E+01 -2.47510585E+01  0.00000000E+00  1.23755293E+01
  1.23755293E+01 -2.47510585E+01  0.00000000E+00  1.23755293E+01  1.23755293E+01
 -2.47510585E+01  0.00000000E+00  1.23755293E+01  1.23755293E+01 -2.47510585E+01
  0.00000000E+00  1.23755293E+01  1.23755293E+01 -2.47510585E+01  0.00000000E+00
  1.23755293E+01  1.23755293E+01 -2.47510585E+01  0.00000000E+00  1.23755293E+01
  1.23755293E+01 -2.47510585E+01  0.00000000E+00  1.23755293E+01  1.23755293E+01
 -2.47510585E+01  0.00000000E+00  1.23755293E+01  1.23755293E+01 -2.47510585E+01
  0.00000000E+00  1.23755293E+01  1.23755293E+01 -2.47510585E+01  0.00000000E+00
  1.23755293E+01  1.23755293E+01 -2.47510585E+01  0.00000000E+00  1.23755293E+01
  1.23755293E+01 -2.47510585E+01  0.00000000E+00  1.23755293E+01  1.23755293E+01
 -2.47510585E+01  0.00000000E+00  1.23755293E+01  1.23755293E+01 -2.47510585E+01
  0.00000000E+00  1.23755293E+01  1.23755293E+01 -2.47510585E+01  0.00000000E+00
  1.23755293E+01  1.23755293E+01 -2.47510585E+01  0.00000000E+00  1.23755293E+01
  1.23755293E+01 -2.47510585E+01  0.00000000E+00  1.23755293E+01  1.23755293E+01
 -2.47510585E+01  0.00000000E+00  1.23755293E+01  1.23755293E+01 -2.47510585E+01
  0.00000000E+00  1.23755293E+01  1.23755293E+01 -2.47510585E+01  0.00000000E+00
  1.23755293E+01  1.23755293E+01 -2.47510585E+01  0.00000000E+00  1.23755293E+01
  1.23755293E+01 -2.47510585E+01  0.00000000E+00  1.23755293E+01  1.23755293E+01
 -2.47510585E+01  0.00000000E+00  1.23755293E+01  1.23755293E+01 -2.47510585E+01
  0.00000000E+00  1.23755293E+01  1.23755293E+01 -2.47510585E+01  0.00000000E+00
  1.23755293E+01  1.23755293E+01 -2.47510585E+01  0.00000000E+00  1.23755293E+01
  1.23755293E+01 -2.47510585E+01  0.00000000E+00  1.23755293E+01  1.23755293E+01
 -2.47510585E+01  0.00000000E+00  1.23755293E+01  1.23755293E+01 -2.47510585E+01
  0.00000000E+00  1.23755293E+01  1.23755293E+01 -2.47510585E+01  0.00000000E+00
  1.23755293E+01  1.23755293E+01 -2.47510585E+01  0.00000000E+00  1.23755293E+01
  1.23755293E+01 -2.47510585E+01  0.00000000E+00  1.23755293E+01  1.23755293E+01
 -2.47510585E+01  0.00000000E+00  1.23755293E+01  1.23755293E+01 -2.47510585E+01
  0.00000000E+00  1.23755293E+01  1.23755293E+01 -2.47510585E+01  0.00000000E+00
  1.23755293E+01  1.23755293E+01 -2.47510585E+01  0.00000000E+00  1.23755293E+01
  1.23755293E+01 -2.47510585E+01  0.00000000E+00  1.23755293E+01  1.23755293E+01
 -2.47510585E+01  0.00000000E+00  1.23755293E+01  1.23755293E+01 -2.47510585E+01
  0.00000000E+00  1.23755293E+01  1.23755293E+01 -2.47510585E+01  0.00000000E+00
  1.23755293E+01  1.23755293E+01 -2.47510585E+01  0.00000000E+00  1.23755293E+01
  1.23755293E+01 -2.47510585E+01  0.00000000E+00  1.23755293E+01  1.23755293E+01
 -2.47510585E+01  0.00000000E+00  1.23755293E+01  1.23755293E+01 -2.47510585E+01
  0.00000000E+00  1.23755293E+01  1.23755293E+01 -2.47510585E+01  0.00000000E+00
  1.23755293E+01  1.23755293E+01 -2.47510585E+01  0.00000000E+00  1.23755293E+01
  1.23755293E+01 -2.47510585E+01  0.00000000E+00  1.23755293E+01  1.23755293E+01
 -2.47510585E+01  0.00000000E+00  1.23755293E+01  1.23755293E+01 -2.47510585E+01
  0.00000000E+00  1.23755293E+01  1.23755293E+01 -2.47510585E+01  0.00000000E+00
  1.23755293E+01  1.23755293E+01 -2.47510585E+01  0.00000000E+00  1.23755293E+01
  1.23755293E+01 -2.47510585E+01  0.00000000E+00  1.23755293E+01  1.23755293E+01
 -2.47510585E+01  0.00000000E+00  1.23755293E+01  1.23755293E+01 -2.47510585E+01
  0.00000000E+00  1.23755293E+01  1.23755293E+01 -2.47510585E+01  0.00000000E+00
  1.23755293E+01  1.23755293E+01 -2.47510585E+01  0.00000000E+00  1.23755293E+01
  1.23755293E+01 -2.47510585E+01  0.00000000E+00  1.23755293E+01  1.23755293E+01
 -2.47510585E+01  0.00000000E+00  1.23755293E+01  1.23755293E+01 -2.47510585E+01
  0.00000000E+00  1.23755293E+01  1.23755293E+01 -2.47510585E+01  0.00000000E+00
  1.23755293E+01  1.23755293E+01 -2.47510585E+01  0.00000000E+00  1.23755293E+01
  1.23755293E+01 -2.47510585E+01  0.00000000E+00  1.23755293E+01  1.23755293E+01
 -2.47510585E+01  0.00000000E+00  1.23755293E+01  1.23755293E+01 -2.47510585E+01
  0.00000000E+00  1.23755293E+01  1.23755293E+01 -2.47510585E+01  0.00000000E+00
  1.23755293E+01  1.23755293E+01 -2.47510585E+01  0.00000000E+00  1.23755293E+01
  1.23755293E+01 -2.47510585E+01  0.00000000E+00  1.23755293E+01  1.23755293E+01
 -2.47510585E+01  0.00000000E+00  1.23755293E+01  1.23755293E+01 -2.47510585E+01
  0.00000000E+00  1.23755293E+01  1.23755293E+01 -2.47510585E+01  0.00000000E+00
  1.23755293E+01  1.23755293E+01 -2.47510585E+01  0.00000000E+00  1.23755293E+01
  1.23755293E+01 -2.47510585E+01  0.00000000E+00  1.23755293E+01  1.23755293E+01
 -2.47510585E+01  0.00000000E+00  1.23755293E+01  1.23755293E+01 -2.47510585E+01
  0.00000000E+00  1.23755293E+01  1.23755293E+01 -2.47510585E+01  0.00000000E+00
  1.23755293E+01  1.23755293E+01 -2.47510585E+01  0.00000000E+00  1.23755293E+01
  1.23755293E+01 -2.47510585E+01  0.00000000E+00  1.23755293E+01  1.23755293E+01
 -2.47510585E+01  0.00000000E+00  1.23755293E+01  1.23755293E+01 -2.47510585E+01
  0.00000000E+00  1.23755293E+01  1.23755293E+01 -2.47510585E+01  0.00000000E+00
  1.23755293E+01  1.23755293E+01 -2.47510585E+01  0.00000000E+00  1.23755293E+01
  1.23755293E+01 -2.47510585E+01  0.00000000E+00  1.23755293E+01  1.23755293E+01
 -2.47510585E+01  0.00000000E+00  1.23755293E+01  1.23755293E+01 -2.47510585E+01
  0.00000000E+00  1.23755293E+01  1.23755293E+01 -2.47510585E+01  0.00000000E+00
  1.23755293E+01  1.23755293E+01 -2.47510585E+01  0.00000000E+00  1.23755293E+01
  1.23755293E+01 -2.47510585E+01  0.00000000E+00  1.23755293E+01  1.23755293E+01
 -2.47510585E+01  0.00000000E+00  1.23755293E+01  1.23755293E+01 -2.47510585E+01
  0.00000000E+00  1.23755293E+01  1.23755293E+01 -2.47510585E+01  0.00000000E+00
  1.23755293E+01  1.23755293E+01 -2.47510585E+01  0.00000000E+00  1.23755293E+01
  1.23755293E+01 -2.47510585E+01  0.00000000E+00  1.23755293E+01  1.23755293E+01
 -2.47510585E+01  0.00000000E+00  1.23755293E+01  1.23755293E+01 -2.47510585E+01
  0.00000000E+00  1.23755293E+01  1.23755293E+01 -2.47510585E+01  0.00000000E+00
  1.23755293E+01  1.23755293E+01 -2.47510585E+01  0.00000000E+00  1.23755293E+01
  1.23755293E+01 -2.47510585E+01  0.00000000E+00  1.23755293E+01  1.23755293E+01
 -2.47510585E+01  0.00000000E+00  1.23755293E+01  1.23755293E+01 -2.47510585E+01
  0.00000000E+00  1.23755293E+01  1.23755293E+01 -2.47510585E+01  0.00000000E+00
  1.23755293E+01  1.23755293E+01 -2.47510585E+01  0.00000000E+00  1.23755293E+01
  1.23755293E+01 -2.47510585E+01  0.00000000E+00  1.23755293E+01  1.23755293E+01
 -2.47510585E+01  0.00000000E+00  1.23755293E+01  1.23755293E+01 -2.47510585E+01
  0.00000000E+00  1.23755293E+01  1.23755293E+01 -2.47510585E+01  0.00000000E+00
  1.23755293E+01  1.23755293E+01 -2.47510585E+01  0.00000000E+00  1.23755293E+01
  1.23755293E+01 -2.47510585E+01  0.00000000E+00  1.23755293E+01  1.23755293E+01
 -2.47510585E+01  0.00000000E+00  1.23755293E+01  1.23755293E+01 -2.47510585E+01
  0.00000000E+00  1.23755293E+01  1.23755293E+01 -2.47510585E+01  0.00000000E+00
  1.23755293E+01  1.23755293E+01 -2.47510585E+01  0.00000000E+00  1.23755293E+01
  1.23755293E+01 -2.47510585E+01  0.00000000E+00  1.23755293E+01  1.23755293E+01
 -2.47510585E+01  0.00000000E+00  1.23755293E+01  1.23755293E+01 -2.47510585E+01
  0.00000000E+00  1.23755293E+01  1.23755293E+01 -2.47510585E+01  0.00000000E+00
  1.23755293E+01  1.23755293E+01 -2.47510585E+01  0.00000000E+00  1.23755293E+01
  1.23755293E+01 -2.47510585E+01  0.00000000E+00  1.23755293E+01  1.23755293E+01
 -2.47510585E+01  0.00000000E+00  1.23755293E+01  1.23755293E+01 -2.47510585E+01
  0.00000000E+00  1.23755293E+01  1.23755293E+01 -2.47510585E+01  0.00000000E+00
  1.23755293E+01  1.23755293E+01 -2.47510585E+01  0.00000000E+00  1.23755293E+01
  1.23755293E+01 -2.47510585E+01  0.00000000E+00  1.23755293E+01  1.23755293E+01
 -2.47510585E+01  0.00000000E+00  1.23755293E+01  1.23755293E+01 -2.47510585E+01
  0.00000000E+00  1.23755293E+01  1.23755293E+01 -2.47510585E+01  0.00000000E+00
  1.23755293E+01  1.23755293E+01 -2.47510585E+01  0.00000000E+00  1.23755293E+01
  1.23755293E+01 -2.47510585E+01  0.00000000E+00  1.23755293E+01  1.23755293E+01
 -2.47510585E+01  0.00000000E+00  1.23755293E+01  1.23755293E+01 -2.47510585E+01
  0.00000000E+00  1.23755293E+01  1.23755293E+01 -2.47510585E+01  0.00000000E+00
  1.23755293E+01  1.23755293E+01 -2.47510585E+01  0.00000000E+00  1.23755293E+01
  1.23755293E+01 -2.47510585E+01  0.00000000E+00  1.23755293E+01  1.23755293E+01
 -2.47510585E+01  0.00000000E+00  1.23755293E+01  1.23755293E+01 -2.47510585E+01
  0.00000000E+00  1.23755293E+01  1.23755293E+01 -2.47510585E+01  0.00000000E+00
  1.23755293E+01  1.23755293E+01 -2.47510585E+01  0.00000000E+00  1.23755293E+01
  1.23755293E+01 -2.47510585E+01  0.00000000E+00  1.23755293E+01  1.23755293E+01
 -2.47510585E+01  0.00000000E+00  1.23755293E+01  1.23755293E+01 -2.47510585E+01
  0.00000000E+00  1.23755293E+01  1.23755293E+01 -2.47510585E+01  0.00000000E+00
  1.23755293E+01  1.23755293E+01 -2.47510585E+01  0.00000000E+00  1.23755293E+01
  1.23755293E+01 -2.47510585E+01  0.00000000E+00  1.23755293E+01  1.23755293E+01
 -2.47510585E+01  0.00000000E+00  1.23755293E+01  1.23755293E+01 -2.47510585E+01
  0.00000000E+00  1.23755293E+01  1.23755293E+01 -2.47510585E+01  0.00000000E+00
  1.23755293E+01  1.23755293E+01 -2.47510585E+01  0.00000000E+00  1.23755293E+01
  1.23755293E+01 -2.47510585E+01  0.00000000E+00  1.23755293E+01  1.23755293E+01
 -2.47510585E+01  0.00000000E+00  1.23755293E+01  1.23755293E+01 -2.47510585E+01
  0.00000000E+00  1.23755293E+01  1.23755293E+01 -2.47510585E+01  0.00000000E+00
  1.23755293E+01  1.23755293E+01 -2.47510585E+01  0.00000000E+00  1.23755293E+01
  1.23755293E+01 -2.47510585E+01  0.00000000E+00  1.23755293E+01  1.23755293E+01
 -2.47510585E+01  0.00000000E+00  1.23755293E+01  1.23755293E+01 -2.47510585E+01
  0.00000000E+00  1.23755293E+01  1.23755293E+01 -2.47510585E+01  0.00000000E+00
  1.23755293E+01  1.23755293E+01 -2.47510585E+01  0.00000000E+00  1.23755293E+01
  1.23755293E+01 -2.47510585E+01  0.00000000E+00  1.23755293E+01  1.23755293E+01
 -2.47510585E+01  0.00000000E+00  1.23755293E+01  1.23755293E+01 -2.47510585E+01
  0.00000000E+00  1.23755293E+01  1.23755293E+01 -2.47510585E+01  0.00000000E+00
  1.23755293E+01  1.23755293E+01 -2.47510585E+01  0.00000000E+00  1.23755293E+01
  1.23755293E+01 -2.47510585E+01  0.00000000E+00  1.23755293E+01  1.23755293E+01
 -2.47510585E+01  0.00000000E+00  1.23755293E+01  1.23755293E+01 -2.47510585E+01
  0.00000000E+00  1.23755293E+01  1.23755293E+01 -2.47510585E+01  0.00000000E+00
  1.23755293E+01  1.23755293E+01 -2.47510585E+01  0.00000000E+00  1.23755293E+01
  1.23755293E+01 -2.47510585E+01  0.00000000E+00  1.23755293E+01  1.23755293E+01
 -2.47510585E+01  0.00000000E+00  1.23755293E+01  1.23755293E+01 -2.47510585E+01
  0.00000000E+00  1.23755293E+01  1.23755293E+01 -2.47510585E+01  0.00000000E+00
  1.23755293E+01  1.23755293E+01 -2.47510585E+01  0.00000000E+00  1.23755293E+01
  1.23755293E+01 -2.47510585E+01  0.00000000E+00  1.23755293E+01  1.23755293E+01
 -2.47510585E+01  0.00000000E+00  1.23755293E+01  1.23755293E+01 -2.47510585E+01
  0.00000000E+00  1.23755293E+01  1.23755293E+01 -2.47510585E+01  0.00000000E+00
  1.23755293E+01  1.23755293E+01 -2.47510585E+01  0.00000000E+00  1.23755293E+01
  1.23755293E+01 -2.47510585E+01  0.00000000E+00  1.23755293E+01  1.23755293E+01
 -2.47510585E+01  0.00000000E+00  1.23755293E+01  1.23755293E+01 -2.47510585E+01
  0.00000000E+00  1.23755293E+01  1.23755293E+01 -2.47510585E+01  0.00000000E+00
  1.23755293E+01  1.23755293E+01 -2.47510585E+01  0.00000000E+00  1.23755293E+01
  1.23755293E+01 -2.47510585E+01  0.00000000E+00  1.23755293E+01  1.23755293E+01
 -2.47510585E+01  0.00000000E+00  1.23755293E+01  1.23755293E+01 -2.47510585E+01
  0.00000000E+00  1.23755293E+01  1.23755293E+01 -2.47510585E+01  0.00000000E+00
  1.23755293E+01  1.23755293E+01 -2.47510585E+01  0.00000000E+00  1.23755293E+01
  1.23755293E+01 -2.47510585E+01  0.00000000E+00  1.23755293E+01  1.23755293E+01
 -2.47510585E+01  0.00000000E+00  1.23755293E+01  1.23755293E+01 -2.47510585E+01
  0.00000000E+00  1.23755293E+01  1.23755293E+01 -2.47510585E+01  0.00000000E+00
  1.23755293E+01  1.23755293E+01 -2.47510585E+01  0.00000000E+00  1.23755293E+01
  1.23755293E+01 -2.47510585E+01  0.00000000E+00  1.23755293E+01  1.23755293E+01
 -2.47510585E+01  0.00000000E+00  1.23755293E+01  1.23755293E+01 -2.47510585E+01
  0.00000000E+00  1.23755293E+01  1.23755293E+01 -2.47510585E+01  0.00000000E+00
  1.23755293E+01  1.23755293E+01 -2.47510585E+01  0.00000000E+00  1.23755293E+01
  1.23755293E+01 -2.47510585E+01  0.00000000E+00  1.23755293E+01  1.23755293E+01
 -2.47510585E+01  0.00000000E+00  1.23755293E+01  1.23755293E+01 -2.47510585E+01
  0.00000000E+00  1.23755293E+01  1.23755293E+01 -2.47510585E+01  0.00000000E+00
  1.23755293E+01  1.23755293E+01 -2.47510585E+01  0.00000000E+00  1.23755293E+01
  1.23755293E+01 -2.47510585E+01  0.00000000E+00  1.23755293E+01  1.23755293E+01
 -2.47510585E+01  0.00000000E+00  1.23755293E+01  1.23755293E+01 -2.47510585E+01
  0.00000000E+00  1.23755293E+01  1.23755293E+01 -2.47510585E+01  0.00000000E+00
  1.23755293E+01  1.23755293E+01 -2.47510585E+01  0.00000000E+00  1.23755293E+01
  1.23755293E+01 -2.47510585E+01  0.00000000E+00  1.23755293E+01  1.23755293E+01
 -2.47510585E+01  0.00000000E+00  1.23755293E+01  1.23755293E+01 -2.47510585E+01
  0.00000000E+00  1.23755293E+01  1.23755293E+01 -2.47510585E+01  0.00000000E+00
  1.23755293E+01  1.23755293E+01 -2.47510585E+01  0.00000000E+00  1.23755293E+01
  1.23755293E+01 -2.47510585E+01  0.00000000E+00  1.23755293E+01  1.23755293E+01
 -2.47510585E+01  0.00000000E+00  1.23755293E+01  1.23755293E+01 -2.47510585E+01
  0.00000000E+00  1.23755293E+01  1.23755293E+01 -2.47510585E+01  0.00000000E+00
  1.23755293E+01  1.23755293E+01 -2.47510585E+01  0.00000000E+00  1.23755293E+01
  1.23755293E+01 -2.47510585E+01  0.00000000E+00  1.23755293E+01  1.23755293E+01
 -2.47510585E+01  0.00000000E+00  1.23755293E+01  1.23755293E+01 -2.47510585E+01
  0.00000000E+00  1.23755293E+01  1.23755293E+01 -2.47510585E+01  0.00000000E+00
  1.23755293E+01  1.23755293E+01 -2.47510585E+01  0.00000000E+00  1.23755293E+01
  1.23755293E+01 -2.47510585E+01  0.00000000E+00  1.23755293E+01  1.23755293E+01
 -2.47510585E+01  0.00000000E+00  1.23755293E+01  1.23755293E+01 -2.47510585E+01
  0.00000000E+00  1.23755293E+01  1.23755293E+01 -2.47510585E+01  0.00000000E+00
  1.23755293E+01  1.23755293E+01 -2.47510585E+01  0.00000000E+00  1.23755293E+01
  1.23755293E+01 -2.47510585E+01  0.00000000E+00  1.23755293E+01  1.23755293E+01
 -2.47510585E+01  0.00000000E+00  1.23755293E+01  1.23755293E+01 -2.47510585E+01
  0.00000000E+00  1.23755293E+01  1.23755293E+01 -2.47510585E+01  0.00000000E+00
  1.23755293E+01  1.23755293E+01 -2.47510585E+01  0.00000000E+00  1.23755293E+01
  1.23755293E+01 -2.47510585E+01  0.00000000E+00  1.23755293E+01  1.23755293E+01
 -2.47510585E+01  0.00000000E+00  1.23755293E+01  1.23755293E+01 -2.47510585E+01
  0.00000000E+00  1.23755293E+01  1.23755293E+01 -2.47510585E+01  0.00000000E+00
  1.23755293E+01  1.23755293E+01 -2.47510585E+01  0.00000000E+00  1.23755293E+01
  1.23755293E+01 -2.47510585E+01  0.00000000E+00  1.23755293E+01  1.23755293E+01
 -2.47510585E+01  0.00000000E+00  1.23755293E+01  1.23755293E+01 -2.47510585E+01
  0.00000000E+00  1.23755293E+01  1.23755293E+01 -2.47510585E+01  0.00000000E+00
  1.23755293E+01  1.23755293E+01 -2.47510585E+01  0.00000000E+00  1.23755293E+01
  1.23755293E+01 -2.47510585E+01  0.00000000E+00  1.23755293E+01  1.23755293E+01
 -2.47510585E+01  0.00000000E+00  1.23755293E+01  1.23755293E+01 -2.47510585E+01
  0.00000000E+00  1.23755293E+01  1.23755293E+01 -2.47510585E+01  0.00000000E+00
  1.23755293E+01  1.23755293E+01 -2.47510585E+01  0.00000000E+00  1.23755293E+01
  1.23755293E+01 -2.47510585E+01  0.00000000E+00  1.23755293E+01  1.23755293E+01
 -2.47510585E+01  0.00000000E+00  1.23755293E+01  1.23755293E+01 -2.47510585E+01
  0.00000000E+00  1.23755293E+01  1.23755293E+01 -2.47510585E+01  0.00000000E+00
  1.23755293E+01  1.23755293E+01 -2.47510585E+01  0.00000000E+00  1.23755293E+01
  1.23755293E+01 -2.47510585E+01  0.00000000E+00  1.23755293E+01  1.23755293E+01
 -2.47510585E+01  0.00000000E+00  1.23755293E+01  1.23755293E+01 -2.47510585E+01
  0.00000000E+00  1.23755293E+01  1.23755293E+01 -2.47510585E+01  0.00000000E+00
  1.23755293E+01  1.23755293E+01 -2.47510585E+01  0.00000000E+00  1.23755293E+01
  1.23755293E+01 -2.47510585E+01  0.00000000E+00  1.23755293E+01  1.23755293E+01
 -2.47510585E+01  0.00000000E+00  1.23755293E+01  1.23755293E+01 -2.47510585E+01
  0.00000000E+00  1.23755293E+01  1.23755293E+01 -2.47510585E+01  0.00000000E+00
  1.23755293E+01  1.23755293E+01 -2.47510585E+01  0.00000000E+00  1.23755293E+01
  1.23755293E+01 -2.47510585E+01  0.00000000E+00  1.23755293E+01  1.23755293E+01
 -2.47510585E+01  0.00000000E+00  1.23755293E+01  1.23755293E+01 -2.47510585E+01
  0.00000000E+00  1.23755293E+01  1.23755293E+01 -2.47510585E+01  0.00000000E+00
  1.23755293E+01  1.23755293E+01 -2.47510585E+01  0.00000000E+00  1.23755293E+01
  1.23755293E+01 -2.47510585E+01  0.00000000E+00  1.23755293E+01  1.23755293E+01
 -2.47510585E+01  0.00000000E+00  1.23755293E+01  1.23755293E+01 -2.47510585E+01
  0.00000000E+00  1.23755293E+01  1.23755293E+01 -2.47510585E+01  0.00000000E+00
  1.23755293E+01  1.23755293E+01 -2.47510585E+01  0.00000000E+00  1.23755293E+01
  1.23755293E+01 -2.47510585E+01  0.00000000E+00  1.23755293E+01  1.23755293E+01
 -2.47510585E+01  0.00000000E+00  1.23755293E+01  1.23755293E+01 -2.47510585E+01
  0.00000000E+00  1.23755293E+01  1.23755293E+01 -2.47510585E+01  0.00000000E+00
  1.23755293E+01  1.23755293E+01 -2.47510585E+01  0.00000000E+00  1.23755293E+01
  1.23755293E+01 -2.47510585E+01  0.00000000E+00  1.23755293E+01  1.23755293E+01
 -2.47510585E+01  0.00000000E+00  1.23755293E+01  1.23755293E+01 -2.47510585E+01
  0.00000000E+00  1.23755293E+01  1.23755293E+01 -2.47510585E+01  0.00000000E+00
  1.23755293E+01  1.23755293E+01 -2.47510585E+01  0.00000000E+00  1.23755293E+01
  1.23755293E+01 -2.47510585E+01  0.00000000E+00  1.23755293E+01  1.23755293E+01
 -2.47510585E+01  0.00000000E+00  1.23755293E+01  1.23755293E+01 -2.47510585E+01
  0.00000000E+00  1.23755293E+01  1.23755293E+01 -2.47510585E+01  0.00000000E+00
  1.23755293E+01  1.23755293E+01 -2.47510585E+01  0.00000000E+00  1.23755293E+01
  1.23755293E+01 -2.47510585E+01  0.00000000E+00  1.23755293E+01  1.23755293E+01
 -2.47510585E+01  0.00000000E+00  1.23755293E+01  1.23755293E+01 -2.47510585E+01
  0.00000000E+00  1.23755293E+01  1.23755293E+01 -2.47510585E+01  0.00000000E+00
  1.23755293E+01  1.23755293E+01 -2.47510585E+01  0.00000000E+00  1.23755293E+01
  1.23755293E+01 -2.47510585E+01  0.00000000E+00  1.23755293E+01  1.23755293E+01
 -2.47510585E+01  0.00000000E+00  1.23755293E+01  1.23755293E+01 -2.47510585E+01
  0.00000000E+00  1.23755293E+01  1.23755293E+01 -2.47510585E+01  0.00000000E+00
  1.23755293E+01  1.23755293E+01 -2.47510585E+01  0.00000000E+00  1.23755293E+01
  1.23755293E+01 -2.47510585E+01  0.00000000E+00  1.23755293E+01  1.23755293E+01
 -2.47510585E+01  0.00000000E+00  1.23755293E+01  1.23755293E+01 -2.47510585E+01
  0.00000000E+00  1.23755293E+01  1.23755293E+01 -2.47510585E+01  0.00000000E+00
  1.23755293E+01  1.23755293E+01 -2.47510585E+01  0.00000000E+00  1.23755293E+01
  1.23755293E+01 -2.47510585E+01  0.00000000E+00  1.23755293E+01  1.23755293E+01
 -2.47510585E+01  0.00000000E+00  1.23755293E+01  1.23755293E+01 -2.47510585E+01
  0.00000000E+00  1.23755293E+01  1.23755293E+01 -2.47510585E+01  0.00000000E+00
  1.23755293E+01  1.23755293E+01 -2.47510585E+01  0.00000000E+00  1.23755293E+01
  1.23755293E+01 -2.47510585E+01  0.00000000E+00  1.23755293E+01  1.23755293E+01
 -2.47510585E+01  0.00000000E+00  1.23755293E+01  1.23755293E+01 -2.47510585E+01
  0.00000000E+00  1.23755293E+01  1.23755293E+01 -2.47510585E+01  0.00000000E+00
  1.23755293E+01  1.23755293E+01 -2.47510585E+01  0.00000000E+00  1.23755293E+01
  1.23755293E+01 -2.47510585E+01  0.00000000E+00  1.23755293E+01  1.23755293E+01
 -2.47510585E+01  0.00000000E+00  1.23755293E+01  1.23755293E+01 -2.47510585E+01
  0.00000000E+00  1.23755293E+01  1.23755293E+01 -2.47510585E+01  0.00000000E+00
  1.23755293E+01  1.23755293E+01 -2.47510585E+01  0.00000000E+00  1.23755293E+01
  1.23755293E+01 -2.47510585E+01  0.00000000E+00  1.23755293E+01  1.23755293E+01
 -2.47510585E+01  0.00000000E+00  1.23755293E+01  1.23755293E+01 -2.47510585E+01
  0.00000000E+00  1.23755293E+01  1.23755293E+01 -2.47510585E+01  0.00000000E+00
  1.23755293E+01  1.23755293E+01 -2.47510585E+01  0.00000000E+00  1.23755293E+01
  1.23755293E+01 -2.47510585E+01  0.00000000E+00  1.23755293E+01  1.23755293E+01
 -2.47510585E+01  0.00000000E+00  1.23755293E+01  1.23755293E+01 -2.47510585E+01
  0.00000000E+00  1.23755293E+01  1.23755293E+01 -2.47510585E+01  0.00000000E+00
  1.23755293E+01  1.23755293E+01 -2.47510585E+01  0.00000000E+00  1.23755293E+01
  1.23755293E+01 -2.47510585E+01  0.00000000E+00  1.23755293E+01  1.23755293E+01
 -2.47510585E+01  0.00000000E+00  1.23755293E+01  1.23755293E+01 -2.47510585E+01
  0.00000000E+00  1.23755293E+01  1.23755293E+01 -2.47510585E+01  0.00000000E+00
  1.23755293E+01  1.23755293E+01 -2.47510585E+01  0.00000000E+00  1.23755293E+01
  1.23755293E+01 -2.47510585E+01  0.00000000E+00  1.23755293E+01  1.23755293E+01
 -2.47510585E+01  0.00000000E+00  1.23755293E+01  1.23755293E+01 -2.47510585E+01
  0.00000000E+00  1.23755293E+01  1.23755293E+01 -2.47510585E+01  0.00000000E+00
  1.23755293E+01  1.23755293E+01 -2.47510585E+01  0.00000000E+00  1.23755293E+01
  1.23755293E+01 -2.47510585E+01  0.00000000E+00  1.23755293E+01  1.23755293E+01
 -2.47510585E+01  0.00000000E+00  1.23755293E+01  1.23755293E+01 -2.47510585E+01
  0.00000000E+00  1.23755293E+01  1.23755293E+01 -2.47510585E+01  0.00000000E+00
  1.23755293E+01  1.23755293E+01 -2.47510585E+01  0.00000000E+00  1.23755293E+01
  1.23755293E+01 -2.47510585E+01  0.00000000E+00  1.23755293E+01  1.23755293E+01
 -2.47510585E+01  0.00000000E+00  1.23755293E+01  1.23755293E+01 -2.47510585E+01
  0.00000000E+00  1.23755293E+01  1.23755293E+01 -2.47510585E+01  0.00000000E+00
  1.23755293E+01  1.23755293E+01 -2.47510585E+01  0.00000000E+00  1.23755293E+01
  1.23755293E+01 -2.47510585E+01  0.00000000E+00  1.23755293E+01  1.23755293E+01
 -2.47510585E+01  0.00000000E+00  1.23755293E+01  1.23755293E+01 -2.47510585E+01
  0.00000000E+00  1.23755293E+01  1.23755293E+01 -2.47510585E+01  0.00000000E+00
  1.23755293E+01  1.23755293E+01 -2.47510585E+01  0.00000000E+00  1.23755293E+01
  1.23755293E+01 -2.47510585E+01  0.00000000E+00  1.23755293E+01  1.23755293E+01
 -2.47510585E+01  0.00000000E+00  1.23755293E+01  1.23755293E+01 -2.47510585E+01
  0.00000000E+00  1.23755293E+01  1.23755293E+01 -2.47510585E+01  0.00000000E+00
  1.23755293E+01  1.23755293E+01 -2.47510585E+01  0.00000000E+00  1.23755293E+01
  1.23755293E+01 -2.47510585E+01  0.00000000E+00  1.23755293E+01  1.23755293E+01
 -2.47510585E+01  0.00000000E+00  1.23755293E+01  1.23755293E+01 -2.47510585E+01
  0.00000000E+00  1.23755293E+01  1.23755293E+01 -2.47510585E+01  0.00000000E+00
  1.23755293E+01  1.23755293E+01 -2.47510585E+01  0.00000000E+00  1.23755293E+01
  1.23755293E+01 -2.47510585E+01  0.00000000E+00  1.23755293E+01  1.23755293E+01
 -2.47510585E+01  0.00000000E+00  1.23755293E+01  1.23755293E+01 -2.47510585E+01
  0.00000000E+00  1.23755293E+01  1.23755293E+01 -2.47510585E+01  0.00000000E+00
  1.23755293E+01  1.23755293E+01 -2.47510585E+01  0.00000000E+00  1.23755293E+01
  1.23755293E+01 -2.47510585E+01  0.00000000E+00  1.23755293E+01  1.23755293E+01
 -2.47510585E+01  0.00000000E+00  1.23755293E+01  1.23755293E+01 -2.47510585E+01
  0.00000000E+00  1.23755293E+01  1.23755293E+01 -2.47510585E+01  0.00000000E+00
  1.23755293E+01  1.23755293E+01 -2.47510585E+01  0.00000000E+00  1.23755293E+01
  1.23755293E+01 -2.47510585E+01  0.00000000E+00  1.23755293E+01  1.23755293E+01
 -2.47510585E+01  0.00000000E+00  1.23755293E+01  1.23755293E+01 -2.47510585E+01
  0.00000000E+00  1.23755293E+01  1.23755293E+01 -2.47510585E+01  0.00000000E+00
  1.23755293E+01  1.23755293E+01 -2.47510585E+01  0.00000000E+00  1.23755293E+01
  1.23755293E+01 -2.47510585E+01  0.00000000E+00  1.23755293E+01  1.23755293E+01
 -2.47510585E+01  0.00000000E+00  1.23755293E+01  1.23755293E+01 -2.47510585E+01
  0.00000000E+00  1.23755293E+01  1.23755293E+01 -2.47510585E+01  0.00000000E+00
  1.23755293E+01  1.23755293E+01 -2.47510585E+01  0.00000000E+00  1.23755293E+01
  1.23755293E+01 -2.47510585E+01  0.00000000E+00  1.23755293E+01  1.23755293E+01
 -2.47510585E+01  0.00000000E+00  1.23755293E+01  1.23755293E+01 -2.47510585E+01
  0.00000000E+00  1.23755293E+01  1.23755293E+01 -2.47510585E+01  0.00000000E+00
  1.23755293E+01  1.23755293E+01 -2.47510585E+01  0.00000000E+00  1.23755293E+01
  1.23755293E+01 -2.47510585E+01  0.00000000E+00  1.23755293E+01  1.23755293E+01
 -2.47510585E+01  0.00000000E+00  1.23755293E+01  1.23755293E+01 -2.47510585E+01
  0.00000000E+00  1.23755293E+01  1.23755293E+01 -2.47510585E+01  0.00000000E+00
  1.23755293E+01  1.23755293E+01 -2.47510585E+01  0.00000000E+00  1.23755293E+01
  1.23755293E+01 -2.47510585E+01  0.00000000E+00  1.23755293E+01  1.23755293E+01
 -2.47510585E+01  0.00000000E+00  1.23755293E+01  1.23755293E+01 -2.47510585E+01
  0.00000000E+00  1.23755293E+01  1.23755293E+01 -2.47510585E+01  0.00000000E+00
  1.23755293E+01  1.23755293E+01 -2.47510585E+01  0.00000000E+00  1.23755293E+01
  1.23755293E+01 -2.47510585E+01  0.00000000E+00  1.23755293E+01  1.23755293E+01
 -2.47510585E+01  0.00000000E+00  1.23755293E+01  1.23755293E+01 -2.47510585E+01
  0.00000000E+00  1.23755293E+01  1.23755293E+01 -2.47510585E+01  0.00000000E+00
  1.23755293E+01  1.23755293E+01 -2.47510585E+01  0.00000000E+00  1.23755293E+01
  1.23755293E+01 -2.47510585E+01  0.00000000E+00  1.23755293E+01  1.23755293E+01
 -2.47510585E+01  0.00000000E+00  1.23755293E+01  1.23755293E+01 -2.47510585E+01
  0.00000000E+00  1.23755293E+01  1.23755293E+01 -2.47510585E+01  0.00000000E+00
  1.23755293E+01  1.23755293E+01 -2.47510585E+01  0.00000000E+00  1.23755293E+01
  1.23755293E+01 -2.47510585E+01  0.00000000E+00  1.23755293E+01  1.23755293E+01
 -2.47510585E+01  0.00000000E+00  1.23755293E+01  1.23755293E+01 -2.47510585E+01
  0.00000000E+00  1.23755293E+01  1.23755293E+01 -2.47510585E+01  0.00000000E+00
  1.23755293E+01  1.23755293E+01 -2.47510585E+01  0.00000000E+00  1.23755293E+01
  1.23755293E+01 -2.47510585E+01  0.00000000E+00  1.23755293E+01  1.23755293E+01
 -2.47510585E+01  0.00000000E+00  1.23755293E+01  1.23755293E+01 -2.47510585E+01
  0.00000000E+00  1.23755293E+01  1.23755293E+01 -2.47510585E+01  0.00000000E+00
  1.23755293E+01  1.23755293E+01 -2.47510585E+01  0.00000000E+00  1.23755293E+01
  1.23755293E+01 -2.47510585E+01  0.00000000E+00  1.23755293E+01  1.23755293E+01
 -2.47510585E+01  0.00000000E+00  1.23755293E+01  1.23755293E+01 -2.47510585E+01
  0.00000000E+00  1.23755293E+01  1.23755293E+01 -2.47510585E+01  0.00000000E+00
  1.23755293E+01  1.23755293E+01 -2.47510585E+01  0.00000000E+00  1.23755293E+01
  1.23755293E+01 -2.47510585E+01  0.00000000E+00  1.23755293E+01  1.23755293E+01
 -2.47510585E+01  0.00000000E+00  1.23755293E+01  1.23755293E+01 -2.47510585E+01
  0.00000000E+00  1.23755293E+01  1.23755293E+01 -2.47510585E+01  0.00000000E+00
  1.23755293E+01  1.23755293E+01 -2.47510585E+01  0.00000000E+00  1.23755293E+01
  1.23755293E+01 -2.47510585E+01  0.00000000E+00  1.23755293E+01  1.23755293E+01
 -2.47510585E+01  0.00000000E+00  1.23755293E+01  1.23755293E+01 -2.47510585E+01
  0.00000000E+00  1.23755293E+01  1.23755293E+01 -2.47510585E+01  0.00000000E+00
  1.23755293E+01  1.23755293E+01 -2.47510585E+01  0.00000000E+00  1.23755293E+01
  1.23755293E+01 -2.47510585E+01  0.00000000E+00  1.23755293E+01  1.23755293E+01
 -2.47510585E+01  0.00000000E+00  1.23755293E+01  1.23755293E+01 -2.47510585E+01
  0.00000000E+00  1.23755293E+01  1.23755293E+01 -2.47510585E+01  0.00000000E+00
  1.23755293E+01  1.23755293E+01 -2.47510585E+01  0.00000000E+00  1.23755293E+01
  1.23755293E+01 -2.47510585E+01  0.00000000E+00  1.23755293E+01  1.23755293E+01
 -2.47510585E+01  0.00000000E+00  1.23755293E+01  1.23755293E+01 -2.47510585E+01
  0.00000000E+00  1.23755293E+01  1.23755293E+01 -2.47510585E+01  0.00000000E+00
  1.23755293E+01  1.23755293E+01 -2.47510585E+01  0.00000000E+00  1.23755293E+01
  1.23755293E+01 -2.47510585E+01  0.00000000E+00  1.23755293E+01  1.23755293E+01
 -2.47510585E+01  0.00000000E+00  1.23755293E+01  1.23755293E+01 -2.47510585E+01
  0.00000000E+00  1.23755293E+01  1.23755293E+01 -2.47510585E+01  0.00000000E+00
  1.23755293E+01  1.23755293E+01 -2.47510585E+01  0.00000000E+00  1.23755293E+01
  1.23755293E+01 -2.47510585E+01  0.00000000E+00  1.23755293E+01  1.23755293E+01
 -2.47510585E+01  0.00000000E+00  1.23755293E+01  1.23755293E+01 -2.47510585E+01
  0.00000000E+00  1.23755293E+01  1.23755293E+01 -2.47510585E+01  0.00000000E+00
  1.23755293E+01  1.23755293E+01 -2.47510585E+01  0.00000000E+00  1.23755293E+01
  1.23755293E+01 -2.47510585E+01  0.00000000E+00  1.23755293E+01  1.23755293E+01
 -2.47510585E+01  0.00000000E+00  1.23755293E+01  1.23755293E+01 -2.47510585E+01
  0.00000000E+00  1.23755293E+01  1.23755293E+01 -2.47510585E+01  0.00000000E+00
  1.23755293E+01  1.23755293E+01 -2.47510585E+01  0.00000000E+00  1.23755293E+01
  1.23755293E+01 -2.47510585E+01  0.00000000E+00  1.23755293E+01  1.23755293E+01
 -2.47510585E+01  0.00000000E+00  1.23755293E+01  1.23755293E+01 -2.47510585E+01
  0.00000000E+00  1.23755293E+01  1.23755293E+01 -2.47510585E+01  0.00000000E+00
  1.23755293E+01  1.23755293E+01 -2.47510585E+01  0.00000000E+00  1.23755293E+01
  1.23755293E+01 -2.47510585E+01  0.00000000E+00  1.23755293E+01  1.23755293E+01
 -2.47510585E+01  0.00000000E+00  1.23755293E+01  1.23755293E+01 -2.47510585E+01
  0.00000000E+00  1.23755293E+01  1.23755293E+01 -2.47510585E+01  0.00000000E+00
  1.23755293E+01  1.23755293E+01 -2.47510585E+01  0.00000000E+00  1.23755293E+01
  1.23755293E+01 -2.47510585E+01  0.00000000E+00  1.23755293E+01  1.23755293E+01
 -2.47510585E+01  0.00000000E+00  1.23755293E+01  1.23755293E+01 -2.47510585E+01
  0.00000000E+00  1.23755293E+01  1.23755293E+01 -2.47510585E+01  0.00000000E+00
  1.23755293E+01  1.23755293E+01 -2.47510585E+01  0.00000000E+00  1.23755293E+01
  1.23755293E+01 -2.47510585E+01  0.00000000E+00  1.23755293E+01  1.23755293E+01
 -2.47510585E+01  0.00000000E+00  1.23755293E+01  1.23755293E+01 -2.47510585E+01
  0.00000000E+00  1.23755293E+01  1.23755293E+01 -2.47510585E+01  0.00000000E+00
  1.23755293E+01  1.23755293E+01 -2.47510585E+01  0.00000000E+00  1.23755293E+01
  1.23755293E+01 -2.47510585E+01  0.00000000E+00  1.23755293E+01  1.23755293E+01
 -2.47510585E+01  0.00000000E+00  1.23755293E+01  1.23755293E+01 -2.47510585E+01
  0.00000000E+00  1.23755293E+01  1.23755293E+01 -2.47510585E+01  0.00000000E+00
  1.23755293E+01  1.23755293E+01 -2.47510585E+01  0.00000000E+00  1.23755293E+01
  1.23755293E+01 -2.47510585E+01  0.00000000E+00  1.23755293E+01  1.23755293E+01
 -2.47510585E+01  0.00000000E+00  1.23755293E+01  1.23755293E+01 -2.47510585E+01
  0.00000000E+00  1.23755293E+01  1.23755293E+01 -2.47510585E+01  0.00000000E+00
  1.23755293E+01  1.23755293E+01 -2.47510585E+01  0.00000000E+00  1.23755293E+01
  1.23755293E+01 -2.47510585E+01  0.00000000E+00  1.23755293E+01  1.23755293E+01
 -2.47510585E+01  0.00000000E+00  1.23755293E+01  1.23755293E+01 -2.47510585E+01
  0.00000000E+00  1.23755293E+01  1.23755293E+01 -2.47510585E+01  0.00000000E+00
  1.23755293E+01  1.23755293E+01 -2.47510585E+01  0.00000000E+00  1.23755293E+01
  1.23755293E+01 -2.47510585E+01  0.00000000E+00  1.23755293E+01  1.23755293E+01
 -2.47510585E+01  0.00000000E+00  1.23755293E+01  1.23755293E+01 -2.47510585E+01
  0.00000000E+00  1.23755293E+01  1.23755293E+01 -2.47510585E+01  0.00000000E+00
  1.23755293E+01  1.23755293E+01 -2.47510585E+01  0.00000000E+00  1.23755293E+01
  1.23755293E+01 -2.47510585E+01  0.00000000E+00  1.23755293E+01  1.23755293E+01
 -2.47510585E+01  0.00000000E+00  1.23755293E+01  1.23755293E+01 -2.47510585E+01
  0.00000000E+00  1.23755293E+01  1.23755293E+01 -2.47510585E+01  0.00000000E+00
  1.23755293E+01  1.23755293E+01 -2.47510585E+01  0.00000000E+00  1.23755293E+01
  1.23755293E+01 -2.47510585E+01  0.00000000E+00  1.23755293E+01  1.23755293E+01
 -2.47510585E+01  0.00000000E+00  1.23755293E+01  1.23755293E+01 -2.47510585E+01
  0.00000000E+00  1.23755293E+01  1.23755293E+01 -2.47510585E+01  0.00000000E+00
  1.23755293E+01  1.23755293E+01 -2.47510585E+01  0.00000000E+00  1.23755293E+01
  1.23755293E+01 -2.47510585E+01  0.00000000E+00  1.23755293E+01  1.23755293E+01
 -2.47510585E+01  0.00000000E+00  1.23755293E+01  1.23755293E+01 -2.47510585E+01
  0.00000000E+00  1.23755293E+01  1.23755293E+01 -2.47510585E+01  0.00000000E+00
  1.23755293E+01  1.23755293E+01 -2.47510585E+01  0.00000000E+00  1.23755293E+01
  1.23755293E+01 -2.47510585E+01  0.00000000E+00  1.23755293E+01  1.23755293E+01
 -2.47510585E+01  0.00000000E+00  1.23755293E+01  1.23755293E+01 -2.47510585E+01
  0.00000000E+00  1.23755293E+01  1.23755293E+01 -2.47510585E+01  0.00000000E+00
  1.23755293E+01  1.23755293E+01 -2.47510585E+01  0.00000000E+00  1.23755293E+01
  1.23755293E+01 -2.47510585E+01  0.00000000E+00  1.23755293E+01  1.23755293E+01
 -2.47510585E+01  0.00000000E+00  1.23755293E+01  1.23755293E+01 -2.47510585E+01
  0.00000000E+00  1.23755293E+01  1.23755293E+01 -2.47510585E+01  0.00000000E+00
  1.23755293E+01  1.23755293E+01 -2.47510585E+01  0.00000000E+00  1.23755293E+01
  1.23755293E+01 -2.47510585E+01  0.00000000E+00  1.23755293E+01  1.23755293E+01
 -2.47510585E+01  0.00000000E+00  1.23755293E+01  1.23755293E+01 -2.47510585E+01
  0.00000000E+00  1.23755293E+01  1.23755293E+01 -2.47510585E+01  0.00000000E+00
  1.23755293E+01  1.23755293E+01 -2.47510585E+01  0.00000000E+00  1.23755293E+01
  1.23755293E+01 -2.47510585E+01  0.00000000E+00  1.23755293E+01  1.23755293E+01
 -2.47510585E+01  0.00000000E+00  1.23755293E+01  1.23755293E+01 -2.47510585E+01
  0.00000000E+00  1.23755293E+01  1.23755293E+01 -2.47510585E+01  0.00000000E+00
  1.23755293E+01  1.23755293E+01 -2.47510585E+01  0.00000000E+00  1.23755293E+01
  1.23755293E+01 -2.47510585E+01  0.00000000E+00  1.23755293E+01  1.23755293E+01
 -2.47510585E+01  0.00000000E+00  1.23755293E+01  1.23755293E+01 -2.47510585E+01
  0.00000000E+00  1.23755293E+01  1.23755293E+01 -2.47510585E+01  0.00000000E+00
  1.23755293E+01  1.23755293E+01 -2.47510585E+01  0.00000000E+00  1.23755293E+01
  1.23755293E+01 -2.47510585E+01  0.00000000E+00  1.23755293E+01  1.23755293E+01
 -2.47510585E+01  0.00000000E+00  1.23755293E+01  1.23755293E+01 -2.47510585E+01
  0.00000000E+00  1.23755293E+01  1.23755293E+01 -2.47510585E+01  0.00000000E+00
  1.23755293E+01  1.23755293E+01 -2.47510585E+01  0.00000000E+00  1.23755293E+01
  1.23755293E+01 -2.47510585E+01  0.00000000E+00  1.23755293E+01  1.23755293E+01
 -2.47510585E+01  0.00000000E+00  1.23755293E+01  1.23755293E+01 -2.47510585E+01
  0.00000000E+00  1.23755293E+01  1.23755293E+01 -2.47510585E+01  0.00000000E+00
  1.23755293E+01  1.23755293E+01 -2.47510585E+01  0.00000000E+00  1.23755293E+01
  1.23755293E+01 -2.47510585E+01  0.00000000E+00  1.23755293E+01  1.23755293E+01
 -2.47510585E+01  0.00000000E+00  1.23755293E+01  1.23755293E+01 -2.47510585E+01
  0.00000000E+00  1.23755293E+01  1.23755293E+01 -2.47510585E+01  0.00000000E+00
  1.23755293E+01  1.23755293E+01 -2.47510585E+01  0.00000000E+00  1.23755293E+01
  1.23755293E+01 -2.47510585E+01  0.00000000E+00  1.23755293E+01  1.23755293E+01
 -2.47510585E+01  0.00000000E+00  1.23755293E+01  1.23755293E+01 -2.47510585E+01
  0.00000000E+00  1.23755293E+01  1.23755293E+01 -2.47510585E+01  0.00000000E+00
  1.23755293E+01  1.23755293E+01 -2.47510585E+01  0.00000000E+00  1.23755293E+01
  1.23755293E+01 -2.47510585E+01  0.00000000E+00  1.23755293E+01  1.23755293E+01
 -2.47510585E+01  0.00000000E+00  1.23755293E+01  1.23755293E+01 -2.47510585E+01
  0.00000000E+00  1.23755293E+01  1.23755293E+01 -2.47510585E+01  0.00000000E+00
  1.23755293E+01  1.23755293E+01 -2.47510585E+01  0.00000000E+00  1.23755293E+01
  1.23755293E+01 -2.47510585E+01  0.00000000E+00  1.23755293E+01  1.23755293E+01
 -2.47510585E+01  0.00000000E+00  1.23755293E+01  1.23755293E+01 -2.47510585E+01
  0.00000000E+00  1.23755293E+01  1.23755293E+01 -2.47510585E+01  0.00000000E+00
  1.23755293E+01  1.23755293E+01 -2.47510585E+01  0.00000000E+00  1.23755293E+01
  1.23755293E+01 -2.47510585E+01  0.00000000E+00  1.23755293E+01  1.23755293E+01
 -2.47510585E+01  0.00000000E+00  1.23755293E+01  1.23755293E+01 -2.47510585E+01
  0.00000000E+00  1.23755293E+01  1.23755293E+01 -2.47510585E+01  0.00000000E+00
  1.23755293E+01  1.23755293E+01 -2.47510585E+01  0.00000000E+00  1.23755293E+01
  1.23755293E+01 -2.47510585E+01  0.00000000E+00  1.23755293E+01  1.23755293E+01
 -2.47510585E+01  0.00000000E+00  1.23755293E+01  1.23755293E+01 -2.47510585E+01
  0.00000000E+00  1.23755293E+01  1.23755293E+01 -2.47510585E+01  0.00000000E+00
  1.23755293E+01  1.23755293E+01 -2.47510585E+01  0.00000000E+00  1.23755293E+01
  1.23755293E+01 -2.47510585E+01  0.00000000E+00  1.23755293E+01  1.23755293E+01
 -2.47510585E+01  0.00000000E+00  1.23755293E+01  1.23755293E+01 -2.47510585E+01
  0.00000000E+00  1.23755293E+01  1.23755293E+01 -2.47510585E+01  0.00000000E+00
  1.23755293E+01  1.23755293E+01 -2.47510585E+01  0.00000000E+00  1.23755293E+01
  1.23755293E+01 -2.47510585E+01  0.00000000E+00  1.23755293E+01  1.23755293E+01
 -2.47510585E+01  0.00000000E+00  1.23755293E+01  1.23755293E+01 -2.47510585E+01
  0.00000000E+00  1.23755293E+01  1.23755293E+01 -2.47510585E+01  0.00000000E+00
  1.23755293E+01  1.23755293E+01 -2.47510585E+01  0.00000000E+00  1.23755293E+01
  1.23755293E+01 -2.47510585E+01  0.00000000E+00  1.23755293E+01  1.23755293E+01
 -2.47510585E+01  0.00000000E+00  1.23755293E+01  1.23755293E+01 -2.47510585E+01
  0.00000000E+00  1.23755293E+01  1.23755293E+01 -2.47510585E+01  0.00000000E+00
  1.23755293E+01  1.23755293E+01 -2.47510585E+01  0.00000000E+00  1.23755293E+01
  1.23755293E+01 -2.47510585E+01  0.00000000E+00  1.23755293E+01  1.23755293E+01
 -2.47510585E+01  0.00000000E+00  1.23755293E+01  1.23755293E+01 -2.47510585E+01
  0.00000000E+00  1.23755293E+01  1.23755293E+01 -2.47510585E+01  0.00000000E+00
  1.23755293E+01  1.23755293E+01 -2.47510585E+01  0.00000000E+00  1.23755293E+01
  1.23755293E+01 -2.47510585E+01  0.00000000E+00  1.23755293E+01  1.23755293E+01
 -2.47510585E+01  0.00000000E+00  1.23755293E+01  1.23755293E+01 -2.47510585E+01
  0.00000000E+00  1.23755293E+01  1.23755293E+01 -2.47510585E+01  0.00000000E+00
  1.23755293E+01  1.23755293E+01 -2.47510585E+01  0.00000000E+00  1.23755293E+01
  1.23755293E+01 -2.47510585E+01  0.00000000E+00  1.23755293E+01  1.23755293E+01
 -2.47510585E+01  0.00000000E+00  1.23755293E+01  1.23755293E+01 -2.47510585E+01
  0.00000000E+00  1.23755293E+01  1.23755293E+01 -2.47510585E+01  0.00000000E+00
  1.23755293E+01  1.23755293E+01 -2.47510585E+01  0.00000000E+00  1.23755293E+01
  1.23755293E+01 -2.47510585E+01  0.00000000E+00  1.23755293E+01  1.23755293E+01
 -2.47510585E+01  0.00000000E+00  1.23755293E+01  1.23755293E+01 -2.47510585E+01
  0.00000000E+00  1.23755293E+01  1.23755293E+01 -2.47510585E+01  0.00000000E+00
  1.23755293E+01  1.23755293E+01 -2.47510585E+01  0.00000000E+00  1.23755293E+01
  1.23755293E+01 -2.47510585E+01  0.00000000E+00  1.23755293E+01  1.23755293E+01
 -2.47510585E+01  0.00000000E+00  1.23755293E+01  1.23755293E+01 -2.47510585E+01
  0.00000000E+00  1.23755293E+01  1.23755293E+01 -2.47510585E+01  0.00000000E+00
  1.23755293E+01  1.23755293E+01 -2.47510585E+01  0.00000000E+00  1.23755293E+01
  1.23755293E+01 -2.47510585E+01  0.00000000E+00  1.23755293E+01  1.23755293E+01
 -2.47510585E+01  0.00000000E+00  1.23755293E+01  1.23755293E+01 -2.47510585E+01
  0.00000000E+00  1.23755293E+01  1.23755293E+01 -2.47510585E+01  0.00000000E+00
  1.23755293E+01  1.23755293E+01 -2.47510585E+01  0.00000000E+00  1.23755293E+01
  1.23755293E+01 -2.47510585E+01  0.00000000E+00  1.23755293E+01  1.23755293E+01
 -2.47510585E+01  0.00000000E+00  1.23755293E+01  1.23755293E+01 -2.47510585E+01
  0.00000000E+00  1.23755293E+01  1.23755293E+01 -2.47510585E+01  0.00000000E+00
  1.23755293E+01  1.23755293E+01 -2.47510585E+01  0.00000000E+00  1.23755293E+01
  1.23755293E+01 -2.47510585E+01  0.00000000E+00  1.23755293E+01  1.23755293E+01
 -2.47510585E+01  0.00000000E+00  1.23755293E+01  1.23755293E+01 -2.47510585E+01
  0.00000000E+00  1.23755293E+01  1.23755293E+01 -2.47510585E+01  0.00000000E+00
  1.23755293E+01  1.23755293E+01 -2.47510585E+01  0.00000000E+00  1.23755293E+01
  1.23755293E+01 -2.47510585E+01  0.00000000E+00  1.23755293E+01  1.23755293E+01
 -2.47510585E+01  0.00000000E+00  1.23755293E+01  1.23755293E+01 -2.47510585E+01
  0.00000000E+00  1.23755293E+01  1.23755293E+01 -2.47510585E+01  0.00000000E+00
  1.23755293E+01  1.23755293E+01 -2.47510585E+01  0.00000000E+00  1.23755293E+01
  1.23755293E+01 -2.47510585E+01  0.00000000E+00  1.23755293E+01  1.23755293E+01
 -2.47510585E+01  0.00000000E+00  1.23755293E+01  1.23755293E+01 -2.47510585E+01
  0.00000000E+00  1.23755293E+01  1.23755293E+01 -2.47510585E+01  0.00000000E+00
  1.23755293E+01  1.23755293E+01 -2.47510585E+01  0.00000000E+00  1.23755293E+01
  1.23755293E+01 -2.47510585E+01  0.00000000E+00  1.23755293E+01  1.23755293E+01
 -2.47510585E+01  0.00000000E+00  1.23755293E+01  1.23755293E+01 -2.47510585E+01
  0.00000000E+00  1.23755293E+01  1.23755293E+01 -2.47510585E+01  0.00000000E+00
  1.23755293E+01  1.23755293E+01 -2.47510585E+01  0.00000000E+00  1.23755293E+01
  1.23755293E+01 -2.47510585E+01  0.00000000E+00  1.23755293E+01  1.23755293E+01
 -2.47510585E+01  0.00000000E+00  1.23755293E+01  1.23755293E+01 -2.47510585E+01
  0.00000000E+00  1.23755293E+01  1.23755293E+01 -2.47510585E+01  0.00000000E+00
  1.23755293E+01  1.23755293E+01 -2.47510585E+01  0.00000000E+00  1.23755293E+01
  1.23755293E+01 -2.47510585E+01  0.00000000E+00  1.23755293E+01  1.23755293E+01
 -2.47510585E+01  0.00000000E+00  1.23755293E+01  1.23755293E+01 -2.47510585E+01
  0.00000000E+00  1.23755293E+01  1.23755293E+01 -2.47510585E+01  0.00000000E+00
  1.23755293E+01  1.23755293E+01 -2.47510585E+01  0.00000000E+00  1.23755293E+01
  1.23755293E+01 -2.47510585E+01  0.00000000E+00  1.23755293E+01  1.23755293E+01
 -2.47510585E+01  0.00000000E+00  1.23755293E+01  1.23755293E+01 -2.47510585E+01
  0.00000000E+00  1.23755293E+01  1.23755293E+01 -2.47510585E+01  0.00000000E+00
  1.23755293E+01  1.23755293E+01 -2.47510585E+01  0.00000000E+00  1.23755293E+01
  1.23755293E+01 -2.47510585E+01  0.00000000E+00  1.23755293E+01  1.23755293E+01
 -2.47510585E+01  0.00000000E+00  1.23755293E+01  1.23755293E+01 -2.47510585E+01
  0.00000000E+00  1.23755293E+01  1.23755293E+01 -2.47510585E+01  0.00000000E+00
  1.23755293E+01  1.23755293E+01 -2.47510585E+01  0.00000000E+00  1.23755293E+01
  1.23755293E+01 -2.47510585E+01  0.00000000E+00  1.23755293E+01  1.23755293E+01
 -2.47510585E+01  0.00000000E+00  1.23755293E+01  1.23755293E+01 -2.47510585E+01
  0.00000000E+00  1.23755293E+01  1.23755293E+01 -2.47510585E+01  0.00000000E+00
  1.23755293E+01  1.23755293E+01 -2.47510585E+01  0.00000000E+00  1.23755293E+01
  1.23755293E+01 -2.47510585E+01  0.00000000E+00  1.23755293E+01  1.23755293E+01
 -2.47510585E+01  0.00000000E+00  1.23755293E+01  1.23755293E+01 -2.47510585E+01
  0.00000000E+00  1.23755293E+01  1.23755293E+01 -2.47510585E+01  0.00000000E+00
  1.23755293E+01  1.23755293E+01 -2.47510585E+01  0.00000000E+00  1.23755293E+01
  1.23755293E+01 -2.47510585E+01  0.00000000E+00  1.23755293E+01  1.23755293E+01
 -2.47510585E+01  0.00000000E+00  1.23755293E+01  1.23755293E+01 -2.47510585E+01
  0.00000000E+00  1.23755293E+01  1.23755293E+01 -2.47510585E+01  0.00000000E+00
  1.23755293E+01  1.23755293E+01 -2.47510585E+01  0.00000000E+00  1.23755293E+01
  1.23755293E+01 -2.47510585E+01  0.00000000E+00  1.23755293E+01  1.23755293E+01
 -2.47510585E+01  0.00000000E+00  1.23755293E+01  1.23755293E+01 -2.47510585E+01
  0.00000000E+00  1.23755293E+01  1.23755293E+01 -2.47510585E+01  0.00000000E+00
  1.23755293E+01  1.23755293E+01 -2.47510585E+01  0.00000000E+00  1.23755293E+01
  1.23755293E+01 -2.47510585E+01  0.00000000E+00  1.23755293E+01  1.23755293E+01
 -2.47510585E+01  0.00000000E+00  1.23755293E+01  1.23755293E+01 -2.47510585E+01
  0.00000000E+00  1.23755293E+01  1.23755293E+01 -2.47510585E+01  0.00000000E+00
  1.23755293E+01  1.23755293E+01 -2.47510585E+01  0.00000000E+00  1.23755293E+01
  1.23755293E+01 -2.47510585E+01  0.00000000E+00  1.23755293E+01  1.23755293E+01
 -2.47510585E+01  0.00000000E+00  1.23755293E+01  1.23755293E+01 -2.47510585E+01
  0.00000000E+00  1.23755293E+01  1.23755293E+01 -2.47510585E+01  0.00000000E+00
  1.23755293E+01  1.23755293E+01 -2.47510585E+01  0.00000000E+00  1.23755293E+01
  1.23755293E+01 -2.47510585E+01  0.00000000E+00  1.23755293E+01  1.23755293E+01
 -2.47510585E+01  0.00000000E+00  1.23755293E+01  1.23755293E+01 -2.47510585E+01
  0.00000000E+00  1.23755293E+01  1.23755293E+01 -2.47510585E+01  0.00000000E+00
  1.23755293E+01  1.23755293E+01 -2.47510585E+01  0.00000000E+00  1.23755293E+01
  1.23755293E+01 -2.47510585E+01  0.00000000E+00  1.23755293E+01  1.23755293E+01
 -2.47510585E+01  0.00000000E+00  1.23755293E+01  1.23755293E+01 -2.47510585E+01
  0.00000000E+00  1.23755293E+01  1.23755293E+01 -2.47510585E+01  0.00000000E+00
  1.23755293E+01  1.23755293E+01 -2.47510585E+01  0.00000000E+00  1.23755293E+01
  1.23755293E+01 -2.47510585E+01  0.00000000E+00  1.23755293E+01  1.23755293E+01
 -2.47510585E+01  0.00000000E+00  1.23755293E+01  1.23755293E+01 -2.47510585E+01
  0.00000000E+00  1.23755293E+01  1.23755293E+01 -2.47510585E+01  0.00000000E+00
  1.23755293E+01  1.23755293E+01 -2.47510585E+01  0.00000000E+00  1.23755293E+01
  1.23755293E+01 -2.47510585E+01  0.00000000E+00  1.23755293E+01  1.23755293E+01
 -2.47510585E+01  0.00000000E+00  1.23755293E+01  1.23755293E+01 -2.47510585E+01
  0.00000000E+00  1.23755293E+01  1.23755293E+01 -2.47510585E+01  0.00000000E+00
  1.23755293E+01  1.23755293E+01 -2.47510585E+01  0.00000000E+00  1.23755293E+01
  1.23755293E+01 -2.47510585E+01  0.00000000E+00  1.23755293E+01  1.23755293E+01
 -2.47510585E+01  0.00000000E+00  1.23755293E+01  1.23755293E+01 -2.47510585E+01
  0.00000000E+00  1.23755293E+01  1.23755293E+01 -2.47510585E+01  0.00000000E+00
  1.23755293E+01  1.23755293E+01 -2.47510585E+01  0.00000000E+00  1.23755293E+01
  1.23755293E+01 -2.47510585E+01  0.00000000E+00  1.23755293E+01  1.23755293E+01
 -2.47510585E+01  0.00000000E+00  1.23755293E+01  1.23755293E+01 -2.47510585E+01
  0.00000000E+00  1.23755293E+01  1.23755293E+01 -2.47510585E+01  0.00000000E+00
  1.23755293E+01  1.23755293E+01 -2.47510585E+01  0.00000000E+00  1.23755293E+01
  1.23755293E+01 -2.47510585E+01  0.00000000E+00  1.23755293E+01  1.23755293E+01
 -2.47510585E+01  0.00000000E+00  1.23755293E+01  1.23755293E+01 -2.47510585E+01
  0.00000000E+00  1.23755293E+01  1.23755293E+01 -2.47510585E+01  0.00000000E+00
  1.23755293E+01  1.23755293E+01 -2.47510585E+01  0.00000000E+00  1.23755293E+01
  1.23755293E+01 -2.47510585E+01  0.00000000E+00  1.23755293E+01  1.23755293E+01
 -2.47510585E+01  0.00000000E+00  1.23755293E+01  1.23755293E+01 -2.47510585E+01
  0.00000000E+00  1.23755293E+01  1.23755293E+01 -2.47510585E+01  0.00000000E+00
  1.23755293E+01  1.23755293E+01 -2.47510585E+01  0.00000000E+00  1.23755293E+01
  1.23755293E+01 -2.47510585E+01  0.00000000E+00  1.23755293E+01  1.23755293E+01
 -2.47510585E+01  0.00000000E+00  1.23755293E+01  1.23755293E+01 -2.47510585E+01
  0.00000000E+00  1.23755293E+01  1.23755293E+01 -2.47510585E+01  0.00000000E+00
  1.23755293E+01  1.23755293E+01 -2.47510585E+01  0.00000000E+00  1.23755293E+01
  1.23755293E+01 -2.47510585E+01  0.00000000E+00  1.23755293E+01  1.23755293E+01
 -2.47510585E+01  0.00000000E+00  1.23755293E+01  1.23755293E+01 -2.47510585E+01
  0.00000000E+00  1.23755293E+01  1.23755293E+01 -2.47510585E+01  0.00000000E+00
  1.23755293E+01  1.23755293E+01 -2.47510585E+01  0.00000000E+00  1.23755293E+01
  1.23755293E+01 -2.47510585E+01  0.00000000E+00  1.23755293E+01  1.23755293E+01
 -2.47510585E+01  0.00000000E+00  1.23755293E+01  1.23755293E+01 -2.47510585E+01
  0.00000000E+00  1.23755293E+01  1.23755293E+01 -2.47510585E+01  0.00000000E+00
  1.23755293E+01  1.23755293E+01 -2.47510585E+01  0.00000000E+00  1.23755293E+01
  1.23755293E+01 -2.47510585E+01  0.00000000E+00  1.23755293E+01  1.23755293E+01
 -2.47510585E+01  0.00000000E+00  1.23755293E+01  1.23755293E+01 -2.47510585E+01
  0.00000000E+00  1.23755293E+01  1.23755293E+01 -2.47510585E+01  0.00000000E+00
  1.23755293E+01  1.23755293E+01 -2.47510585E+01  0.00000000E+00  1.23755293E+01
  1.23755293E+01 -2.47510585E+01  0.00000000E+00  1.23755293E+01  1.23755293E+01
 -2.47510585E+01  0.00000000E+00  1.23755293E+01  1.23755293E+01 -2.47510585E+01
  0.00000000E+00  1.23755293E+01  1.23755293E+01 -2.47510585E+01  0.00000000E+00
  1.23755293E+01  1.23755293E+01 -2.47510585E+01  0.00000000E+00  1.23755293E+01
  1.23755293E+01 -2.47510585E+01  0.00000000E+00  1.23755293E+01  1.23755293E+01
 -2.47510585E+01  0.00000000E+00  1.23755293E+01  1.23755293E+01 -2.47510585E+01
  0.00000000E+00  1.23755293E+01  1.23755293E+01 -2.47510585E+01  0.00000000E+00
  1.23755293E+01  1.23755293E+01 -2.47510585E+01  0.00000000E+00  1.23755293E+01
  1.23755293E+01 -2.47510585E+01  0.00000000E+00  1.23755293E+01  1.23755293E+01
 -2.47510585E+01  0.00000000E+00  1.23755293E+01  1.23755293E+01 -2.47510585E+01
  0.00000000E+00  1.23755293E+01  1.23755293E+01 -2.47510585E+01  0.00000000E+00
  1.23755293E+01  1.23755293E+01 -2.47510585E+01  0.00000000E+00  1.23755293E+01
  1.23755293E+01 -2.47510585E+01  0.00000000E+00  1.23755293E+01  1.23755293E+01
 -2.47510585E+01  0.00000000E+00  1.23755293E+01  1.23755293E+01 -2.47510585E+01
  0.00000000E+00  1.23755293E+01  1.23755293E+01 -2.47510585E+01  0.00000000E+00
  1.23755293E+01  1.23755293E+01 -2.47510585E+01  0.00000000E+00  1.23755293E+01
  1.23755293E+01 -2.47510585E+01  0.00000000E+00  1.23755293E+01  1.23755293E+01
 -2.47510585E+01  0.00000000E+00  1.23755293E+01  1.23755293E+01 -2.47510585E+01
  0.00000000E+00  1.23755293E+01  1.23755293E+01 -2.47510585E+01  0.00000000E+00
  1.23755293E+01  1.23755293E+01 -2.47510585E+01  0.00000000E+00  1.23755293E+01
  1.23755293E+01 -2.47510585E+01  0.00000000E+00  1.23755293E+01  1.23755293E+01
 -2.47510585E+01  0.00000000E+00  1.23755293E+01  1.23755293E+01 -2.47510585E+01
  0.00000000E+00  1.23755293E+01  1.23755293E+01 -2.47510585E+01  0.00000000E+00
  1.23755293E+01  1.23755293E+01 -2.47510585E+01  0.00000000E+00  1.23755293E+01
  1.23755293E+01 -2.47510585E+01  0.00000000E+00  1.23755293E+01  1.23755293E+01
 -2.47510585E+01  0.00000000E+00  1.23755293E+01  1.23755293E+01 -2.47510585E+01
  0.00000000E+00  1.23755293E+01  1.23755293E+01 -2.47510585E+01  0.00000000E+00
  1.23755293E+01  1.23755293E+01 -2.47510585E+01  0.00000000E+00  1.23755293E+01
  1.23755293E+01 -2.47510585E+01  0.00000000E+00  1.23755293E+01  1.23755293E+01
 -2.47510585E+01  0.00000000E+00  1.23755293E+01  1.23755293E+01 -2.47510585E+01
  0.00000000E+00  1.23755293E+01  1.23755293E+01 -2.47510585E+01  0.00000000E+00
  1.23755293E+01  1.23755293E+01 -2.47510585E+01  0.00000000E+00  1.23755293E+01
  1.23755293E+01 -2.47510585E+01  0.00000000E+00  1.23755293E+01  1.23755293E+01
 -2.47510585E+01  0.00000000E+00  1.23755293E+01  1.23755293E+01 -2.47510585E+01
  0.00000000E+00  1.23755293E+01  1.23755293E+01 -2.47510585E+01  0.00000000E+00
  1.23755293E+01  1.23755293E+01 -2.47510585E+01  0.00000000E+00  1.23755293E+01
  1.23755293E+01 -2.47510585E+01  0.00000000E+00  1.23755293E+01  1.23755293E+01
 -2.47510585E+01  0.00000000E+00  1.23755293E+01  1.23755293E+01 -2.47510585E+01
  0.00000000E+00  1.23755293E+01  1.23755293E+01 -2.47510585E+01  0.00000000E+00
  1.23755293E+01  1.23755293E+01 -2.47510585E+01  0.00000000E+00  1.23755293E+01
  1.23755293E+01 -2.47510585E+01  0.00000000E+00  1.23755293E+01  1.23755293E+01
 -2.47510585E+01  0.00000000E+00  1.23755293E+01  1.23755293E+01 -2.47510585E+01
  0.00000000E+00  1.23755293E+01  1.23755293E+01 -2.47510585E+01  0.00000000E+00
  1.23755293E+01  1.23755293E+01 -2.47510585E+01  0.00000000E+00  1.23755293E+01
  1.23755293E+01 -2.47510585E+01  0.00000000E+00  1.23755293E+01  1.23755293E+01
 -2.47510585E+01  0.00000000E+00  1.23755293E+01  1.23755293E+01 -2.47510585E+01
  0.00000000E+00  1.23755293E+01  1.23755293E+01 -2.47510585E+01  0.00000000E+00
  1.23755293E+01  1.23755293E+01 -2.47510585E+01  0.00000000E+00  1.23755293E+01
  1.23755293E+01 -2.47510585E+01  0.00000000E+00  1.23755293E+01  1.23755293E+01
 -2.47510585E+01  0.00000000E+00  1.23755293E+01  1.23755293E+01 -2.47510585E+01
  0.00000000E+00  1.23755293E+01  1.23755293E+01 -2.47510585E+01  0.00000000E+00
  1.23755293E+01  1.23755293E+01 -2.47510585E+01  0.00000000E+00  1.23755293E+01
  1.23755293E+01 -2.47510585E+01  0.00000000E+00  1.23755293E+01  1.23755293E+01
 -2.47510585E+01  0.00000000E+00  1.23755293E+01  1.23755293E+01 -2.47510585E+01
  0.00000000E+00  1.23755293E+01  1.23755293E+01 -2.47510585E+01  0.00000000E+00
  1.23755293E+01  1.23755293E+01 -2.47510585E+01  0.00000000E+00  1.23755293E+01
  1.23755293E+01 -2.47510585E+01  0.00000000E+00  1.23755293E+01  1.23755293E+01
 -2.47510585E+01  0.00000000E+00  1.23755293E+01  1.23755293E+01 -2.47510585E+01
  0.00000000E+00  1.23755293E+01  1.23755293E+01 -2.47510585E+01  0.00000000E+00
  1.23755293E+01  1.23755293E+01 -2.47510585E+01  0.00000000E+00  1.23755293E+01
  1.23755293E+01 -2.47510585E+01  0.00000000E+00  1.23755293E+01  1.23755293E+01
 -2.47510585E+01  0.00000000E+00  1.23755293E+01  1.23755293E+01 -2.47510585E+01
  0.00000000E+00  1.23755293E+01  1.23755293E+01 -2.47510585E+01  0.00000000E+00
  1.23755293E+01  1.23755293E+01 -2.47510585E+01  0.00000000E+00  1.23755293E+01
  1.23755293E+01 -2.47510585E+01  0.00000000E+00  1.23755293E+01  1.23755293E+01
 -2.47510585E+01  0.00000000E+00  1.23755293E+01  1.23755293E+01 -2.47510585E+01
  0.00000000E+00  1.23755293E+01  1.23755293E+01 -2.47510585E+01  0.00000000E+00
  1.23755293E+01  1.23755293E+01 -2.47510585E+01  0.00000000E+00  1.23755293E+01
  1.23755293E+01 -2.47510585E+01  0.00000000E+00  1.23755293E+01  1.23755293E+01
 -2.47510585E+01  0.00000000E+00  1.23755293E+01  1.23755293E+01 -2.47510585E+01
  0.00000000E+00  1.23755293E+01  1.23755293E+01 -2.47510585E+01  0.00000000E+00
  1.23755293E+01  1.23755293E+01 -2.47510585E+01  0.00000000E+00  1.23755293E+01
  1.23755293E+01 -2.47510585E+01  0.00000000E+00  1.23755293E+01  1.23755293E+01
 -2.47510585E+01  0.00000000E+00  1.23755293E+01  1.23755293E+01 -2.47510585E+01
  0.00000000E+00  1.23755293E+01  1.23755293E+01 -2.47510585E+01  0.00000000E+00
  1.23755293E+01  1.23755293E+01 -2.47510585E+01  0.00000000E+00  1.23755293E+01
  1.23755293E+01 -2.47510585E+01  0.00000000E+00  1.23755293E+01  1.23755293E+01
 -2.47510585E+01  0.00000000E+00  1.23755293E+01  1.23755293E+01 -2.47510585E+01
  0.00000000E+00  1.23755293E+01  1.23755293E+01 -2.47510585E+01  0.00000000E+00
  1.23755293E+01  1.23755293E+01 -2.47510585E+01  0.00000000E+00  1.23755293E+01
  1.23755293E+01 -2.47510585E+01  0.00000000E+00  1.23755293E+01  1.23755293E+01
 -2.47510585E+01  0.00000000E+00  1.23755293E+01  1.23755293E+01 -2.47510585E+01
  0.00000000E+00  1.23755293E+01  1.23755293E+01 -2.47510585E+01  0.00000000E+00
  1.23755293E+01  1.23755293E+01 -2.47510585E+01  0.00000000E+00  1.23755293E+01
  1.23755293E+01 -2.47510585E+01  0.00000000E+00  1.23755293E+01  1.23755293E+01
 -2.47510585E+01  0.00000000E+00  1.23755293E+01  1.23755293E+01 -2.47510585E+01
  0.00000000E+00  1.23755293E+01  1.23755293E+01 -2.47510585E+01  0.00000000E+00
  1.23755293E+01  1.23755293E+01 -2.47510585E+01  0.00000000E+00  1.23755293E+01
  1.23755293E+01 -2.47510585E+01  0.00000000E+00  1.23755293E+01  1.23755293E+01
 -2.47510585E+01  0.00000000E+00  1.23755293E+01  1.23755293E+01 -2.47510585E+01
  0.00000000E+00  1.23755293E+01  1.23755293E+01 -2.47510585E+01  0.00000000E+00
  1.23755293E+01  1.23755293E+01 -2.47510585E+01  0.00000000E+00  1.23755293E+01
  1.23755293E+01 -2.47510585E+01  0.00000000E+00  1.23755293E+01  1.23755293E+01
 -2.47510585E+01  0.00000000E+00  1.23755293E+01  1.23755293E+01 -2.47510585E+01
  0.00000000E+00  1.23755293E+01  1.23755293E+01 -2.47510585E+01  0.00000000E+00
  1.23755293E+01  1.23755293E+01 -2.47510585E+01  0.00000000E+00  1.23755293E+01
  1.23755293E+01 -2.47510585E+01  0.00000000E+00  1.23755293E+01  1.23755293E+01
 -2.47510585E+01  0.00000000E+00  1.23755293E+01  1.23755293E+01 -2.47510585E+01
  0.00000000E+00  1.23755293E+01  1.23755293E+01 -2.47510585E+01  0.00000000E+00
  1.23755293E+01  1.23755293E+01 -2.47510585E+01  0.00000000E+00  1.23755293E+01
  1.23755293E+01 -2.47510585E+01  0.00000000E+00  1.23755293E+01  1.23755293E+01
 -2.47510585E+01  0.00000000E+00  1.23755293E+01  1.23755293E+01 -2.47510585E+01
  0.00000000E+00  1.23755293E+01  1.23755293E+01 -2.47510585E+01  0.00000000E+00
  1.23755293E+01  1.23755293E+01 -2.47510585E+01  0.00000000E+00  1.23755293E+01
  1.23755293E+01 -2.47510585E+01  0.00000000E+00  1.23755293E+01  1.23755293E+01
 -2.47510585E+01  0.00000000E+00  1.23755293E+01  1.23755293E+01 -2.47510585E+01
  0.00000000E+00  1.23755293E+01  1.23755293E+01 -2.47510585E+01  0.00000000E+00
  1.23755293E+01  1.23755293E+01 -2.47510585E+01  0.00000000E+00  1.23755293E+01
  1.23755293E+01 -2.47510585E+01  0.00000000E+00  1.23755293E+01  1.23755293E+01
 -2.47510585E+01  0.00000000E+00  1.23755293E+01  1.23755293E+01 -2.47510585E+01
  0.00000000E+00  1.23755293E+01  1.23755293E+01 -2.47510585E+01  0.00000000E+00
  1.23755293E+01  1.23755293E+01 -2.47510585E+01  0.00000000E+00  1.23755293E+01
  1.23755293E+01 -2.47510585E+01  0.00000000E+00  1.23755293E+01  1.23755293E+01
 -2.47510585E+01  0.00000000E+00  1.23755293E+01  1.23755293E+01 -2.47510585E+01
  0.00000000E+00  1.23755293E+01  1.23755293E+01 -2.47510585E+01  0.00000000E+00
  1.23755293E+01  1.23755293E+01 -2.47510585E+01  0.00000000E+00  1.23755293E+01
  1.23755293E+01 -2.47510585E+01  0.00000000E+00  1.23755293E+01  1.23755293E+01
 -2.47510585E+01  0.00000000E+00  1.23755293E+01  1.23755293E+01 -2.47510585E+01
  0.00000000E+00  1.23755293E+01  1.23755293E+01 -2.47510585E+01  0.00000000E+00
  1.23755293E+01  1.23755293E+01 -2.47510585E+01  0.00000000E+00  1.23755293E+01
  1.23755293E+01 -2.47510585E+01  0.00000000E+00  1.23755293E+01  1.23755293E+01
 -2.47510585E+01  0.00000000E+00  1.23755293E+01  1.23755293E+01 -2.47510585E+01
  0.00000000E+00  1.23755293E+01  1.23755293E+01 -2.47510585E+01  0.00000000E+00
  1.23755293E+01  1.23755293E+01 -2.47510585E+01  0.00000000E+00  1.23755293E+01
  1.23755293E+01 -2.47510585E+01  0.00000000E+00  1.23755293E+01  1.23755293E+01
 -2.47510585E+01  0.00000000E+00  1.23755293E+01  1.23755293E+01 -2.47510585E+01
  0.00000000E+00  1.23755293E+01  1.23755293E+01 -2.47510585E+01  0.00000000E+00
  1.23755293E+01  1.23755293E+01 -2.47510585E+01  0.00000000E+00  1.23755293E+01
  1.23755293E+01 -2.47510585E+01  0.00000000E+00  1.23755293E+01  1.23755293E+01
 -2.47510585E+01  0.00000000E+00  1.23755293E+01  1.23755293E+01 -2.47510585E+01
  0.00000000E+00  1.23755293E+01  1.23755293E+01 -2.47510585E+01  0.00000000E+00
  1.23755293E+01  1.23755293E+01 -2.47510585E+01  0.00000000E+00  1.23755293E+01
  1.23755293E+01 -2.47510585E+01  0.00000000E+00  1.23755293E+01  1.23755293E+01
 -2.47510585E+01  0.00000000E+00  1.23755293E+01  1.23755293E+01 -2.47510585E+01
  0.00000000E+00  1.23755293E+01  1.23755293E+01 -2.47510585E+01  0.00000000E+00
  1.23755293E+01  1.23755293E+01 -2.47510585E+01  0.00000000E+00  1.23755293E+01
  1.23755293E+01 -2.47510585E+01  0.00000000E+00  1.23755293E+01  1.23755293E+01
 -2.47510585E+01  0.00000000E+00  1.23755293E+01  1.23755293E+01 -2.47510585E+01
  0.00000000E+00  1.23755293E+01  1.23755293E+01 -2.47510585E+01  0.00000000E+00
  1.23755293E+01  1.23755293E+01 -2.47510585E+01  0.00000000E+00  1.23755293E+01
  1.23755293E+01 -2.47510585E+01  0.00000000E+00  1.23755293E+01  1.23755293E+01
 -2.47510585E+01  0.00000000E+00  1.23755293E+01  1.23755293E+01 -2.47510585E+01
  0.00000000E+00  1.23755293E+01  1.23755293E+01 -2.47510585E+01  0.00000000E+00
  1.23755293E+01  1.23755293E+01 -2.47510585E+01  0.00000000E+00  1.23755293E+01
  1.23755293E+01 -2.47510585E+01  0.00000000E+00  1.23755293E+01  1.23755293E+01
 -2.47510585E+01  0.00000000E+00  1.23755293E+01  1.23755293E+01 -2.47510585E+01
  0.00000000E+00  1.23755293E+01  1.23755293E+01 -2.47510585E+01  0.00000000E+00
  1.23755293E+01  1.23755293E+01 -2.47510585E+01  0.00000000E+00  1.23755293E+01
  1.23755293E+01 -2.47510585E+01  0.00000000E+00  1.23755293E+01  1.23755293E+01
 -2.47510585E+01  0.00000000E+00  1.23755293E+01  1.23755293E+01 -2.47510585E+01
  0.00000000E+00  1.23755293E+01  1.23755293E+01 -2.47510585E+01  0.00000000E+00
  1.23755293E+01  1.23755293E+01 -2.47510585E+01  0.00000000E+00  1.23755293E+01
  1.23755293E+01 -2.47510585E+01  0.00000000E+00  1.23755293E+01  1.23755293E+01
 -2.47510585E+01  0.00000000E+00  1.23755293E+01  1.23755293E+01 -2.47510585E+01
  0.00000000E+00  1.23755293E+01  1.23755293E+01 -2.47510585E+01  0.00000000E+00
  1.23755293E+01  1.23755293E+01 -2.47510585E+01  0.00000000E+00  1.23755293E+01
  1.23755293E+01 -2.47510585E+01  0.00000000E+00  1.23755293E+01  1.23755293E+01
 -2.47510585E+01  0.00000000E+00  1.23755293E+01  1.23755293E+01 -2.47510585E+01
  0.00000000E+00  1.23755293E+01  1.23755293E+01 -2.47510585E+01  0.00000000E+00
  1.23755293E+01  1.23755293E+01 -2.47510585E+01  0.00000000E+00  1.23755293E+01
  1.23755293E+01 -2.47510585E+01  0.00000000E+00  1.23755293E+01  1.23755293E+01
 -2.47510585E+01  0.00000000E+00  1.23755293E+01  1.23755293E+01 -2.47510585E+01
  0.00000000E+00  1.23755293E+01  1.23755293E+01 -2.47510585E+01  0.00000000E+00
  1.23755293E+01  1.23755293E+01 -2.47510585E+01  0.00000000E+00  1.23755293E+01
  1.23755293E+01 -2.47510585E+01  0.00000000E+00  1.23755293E+01  1.23755293E+01
 -2.47510585E+01  0.00000000E+00  1.23755293E+01  1.23755293E+01 -2.47510585E+01
  0.00000000E+00  1.23755293E+01  1.23755293E+01 -2.47510585E+01  0.00000000E+00
  1.23755293E+01  1.23755293E+01 -2.47510585E+01  0.00000000E+00  1.23755293E+01
  1.23755293E+01 -2.47510585E+01  0.00000000E+00  1.23755293E+01  1.23755293E+01
 -2.47510585E+01  0.00000000E+00  1.23755293E+01  1.23755293E+01 -2.47510585E+01
  0.00000000E+00  1.23755293E+01  1.23755293E+01 -2.47510585E+01  0.00000000E+00
  1.23755293E+01  1.23755293E+01 -2.47510585E+01  0.00000000E+00  1.23755293E+01
  1.23755293E+01 -2.47510585E+01  0.00000000E+00  1.23755293E+01  1.23755293E+01
 -2.47510585E+01  0.00000000E+00  1.23755293E+01  1.23755293E+01 -2.47510585E+01
  0.00000000E+00  1.23755293E+01  1.23755293E+01 -2.47510585E+01  0.00000000E+00
  1.23755293E+01  1.23755293E+01 -2.47510585E+01  0.00000000E+00  1.23755293E+01
  1.23755293E+01 -2.47510585E+01  0.00000000E+00  1.23755293E+01  1.23755293E+01
 -2.47510585E+01  0.00000000E+00  1.23755293E+01  1.23755293E+01 -2.47510585E+01
  0.00000000E+00  1.23755293E+01  1.23755293E+01 -2.47510585E+01  0.00000000E+00
  1.23755293E+01  1.23755293E+01 -2.47510585E+01  0.00000000E+00  1.23755293E+01
  1.23755293E+01 -2.47510585E+01  0.00000000E+00  1.23755293E+01  1.23755293E+01
 -2.47510585E+01  0.00000000E+00  1.23755293E+01  1.23755293E+01 -2.47510585E+01
  0.00000000E+00  1.23755293E+01  1.23755293E+01 -2.47510585E+01  0.00000000E+00
  1.23755293E+01  1.23755293E+01 -2.47510585E+01  0.00000000E+00  1.23755293E+01
  1.23755293E+01 -2.47510585E+01  0.00000000E+00  1.23755293E+01  1.23755293E+01
 -2.47510585E+01  0.00000000E+00  1.23755293E+01  1.23755293E+01 -2.47510585E+01
  0.00000000E+00  1.23755293E+01  1.23755293E+01 -2.47510585E+01  0.00000000E+00
  1.23755293E+01  1.23755293E+01 -2.47510585E+01  0.00000000E+00  1.23755293E+01
  1.23755293E+01 -2.47510585E+01  0.00000000E+00  1.23755293E+01  1.23755293E+01
 -2.47510585E+01  0.00000000E+00  1.23755293E+01  1.23755293E+01 -2.47510585E+01
  0.00000000E+00  1.23755293E+01  1.23755293E+01 -2.47510585E+01  0.00000000E+00
  1.23755293E+01  1.23755293E+01 -2.47510585E+01  0.00000000E+00  1.23755293E+01
  1.23755293E+01 -2.47510585E+01  0.00000000E+00  1.23755293E+01  1.23755293E+01
 -2.47510585E+01  0.00000000E+00  1.23755293E+01  1.23755293E+01 -2.47510585E+01
  0.00000000E+00  1.23755293E+01  1.23755293E+01 -2.47510585E+01  0.00000000E+00
  1.23755293E+01  1.23755293E+01 -2.47510585E+01  0.00000000E+00  1.23755293E+01
  1.23755293E+01 -2.47510585E+01  0.00000000E+00  1.23755293E+01  1.23755293E+01
 -2.47510585E+01  0.00000000E+00  1.23755293E+01  1.23755293E+01 -2.47510585E+01
  0.00000000E+00  1.23755293E+01  1.23755293E+01 -2.47510585E+01  0.00000000E+00
  1.23755293E+01  1.23755293E+01 -2.47510585E+01  0.00000000E+00  1.23755293E+01
  1.23755293E+01 -2.47510585E+01  0.00000000E+00  1.23755293E+01  1.23755293E+01
 -2.47510585E+01  0.00000000E+00  1.23755293E+01  1.23755293E+01 -2.47510585E+01
  0.00000000E+00  1.23755293E+01  1.23755293E+01 -2.47510585E+01  0.00000000E+00
  1.23755293E+01  1.23755293E+01 -2.47510585E+01  0.00000000E+00  1.23755293E+01
  1.23755293E+01 -2.47510585E+01  0.00000000E+00  1.23755293E+01  1.23755293E+01
 -2.47510585E+01  0.00000000E+00  1.23755293E+01  1.23755293E+01 -2.47510585E+01
  0.00000000E+00  1.23755293E+01  1.23755293E+01 -2.47510585E+01  0.00000000E+00
  1.23755293E+01  1.23755293E+01 -2.47510585E+01  0.00000000E+00  1.23755293E+01
  1.23755293E+01 -2.47510585E+01  0.00000000E+00  1.23755293E+01  1.23755293E+01
 -2.47510585E+01  0.00000000E+00  1.23755293E+01  1.23755293E+01 -2.47510585E+01
  0.00000000E+00  1.23755293E+01  1.23755293E+01 -2.47510585E+01  0.00000000E+00
  1.23755293E+01  1.23755293E+01 -2.47510585E+01  0.00000000E+00  1.23755293E+01
  1.23755293E+01 -2.47510585E+01  0.00000000E+00  1.23755293E+01  1.23755293E+01
 -2.47510585E+01  0.00000000E+00  1.23755293E+01  1.23755293E+01 -2.47510585E+01
  0.00000000E+00  1.23755293E+01  1.23755293E+01 -2.47510585E+01  0.00000000E+00
  1.23755293E+01  1.23755293E+01 -2.47510585E+01  0.00000000E+00  1.23755293E+01
  1.23755293E+01 -2.47510585E+01  0.00000000E+00  1.23755293E+01  1.23755293E+01
 -2.47510585E+01  0.00000000E+00  1.23755293E+01  1.23755293E+01 -2.47510585E+01
  0.00000000E+00  1.23755293E+01  1.23755293E+01 -2.47510585E+01  0.00000000E+00
  1.23755293E+01  1.23755293E+01 -2.47510585E+01  0.00000000E+00  1.23755293E+01
  1.23755293E+01 -2.47510585E+01  0.00000000E+00  1.23755293E+01  1.23755293E+01
 -2.47510585E+01  0.00000000E+00  1.23755293E+01  1.23755293E+01 -2.47510585E+01
  0.00000000E+00  1.23755293E+01  1.23755293E+01 -2.47510585E+01  0.00000000E+00
  1.23755293E+01  1.23755293E+01 -2.47510585E+01  0.00000000E+00  1.23755293E+01
  1.23755293E+01 -2.47510585E+01  0.00000000E+00  1.23755293E+01  1.23755293E+01
 -2.47510585E+01  0.00000000E+00  1.23755293E+01  1.23755293E+01 -2.47510585E+01
  0.00000000E+00  1.23755293E+01  1.23755293E+01 -2.47510585E+01  0.00000000E+00
  1.23755293E+01  1.23755293E+01 -2.47510585E+01  0.00000000E+00  1.23755293E+01
  1.23755293E+01 -2.47510585E+01  0.00000000E+00  1.23755293E+01  1.23755293E+01
 -2.47510585E+01  0.00000000E+00  1.23755293E+01  1.23755293E+01 -2.47510585E+01
  0.00000000E+00  1.23755293E+01  1.23755293E+01 -2.47510585E+01  0.00000000E+00
  1.23755293E+01  1.23755293E+01 -2.47510585E+01  0.00000000E+00  1.23755293E+01
  1.23755293E+01 -2.47510585E+01  0.00000000E+00  1.23755293E+01  1.23755293E+01
 -2.47510585E+01  0.00000000E+00  1.23755293E+01  1.23755293E+01 -2.47510585E+01
  0.00000000E+00  1.23755293E+01  1.23755293E+01 -2.47510585E+01  0.00000000E+00
  1.23755293E+01  1.23755293E+01 -2.47510585E+01  0.00000000E+00  1.23755293E+01
  1.23755293E+01 -2.47510585E+01  0.00000000E+00  1.23755293E+01  1.23755293E+01
 -2.47510585E+01  0.00000000E+00  1.23755293E+01  1.23755293E+01 -2.47510585E+01
  0.00000000E+00  1.23755293E+01  1.23755293E+01 -2.47510585E+01  0.00000000E+00
  1.23755293E+01  1.23755293E+01 -2.47510585E+01  0.00000000E+00  1.23755293E+01
  1.23755293E+01 -2.47510585E+01  0.00000000E+00  1.23755293E+01  1.23755293E+01
 -2.47510585E+01  0.00000000E+00  1.23755293E+01  1.23755293E+01 -2.47510585E+01
  0.00000000E+00  1.23755293E+01  1.23755293E+01 -2.47510585E+01  0.00000000E+00
  1.23755293E+01  1.23755293E+01 -2.47510585E+01  0.00000000E+00  1.23755293E+01
  1.23755293E+01 -2.47510585E+01  0.00000000E+00  1.23755293E+01  1.23755293E+01
 -2.47510585E+01  0.00000000E+00  1.23755293E+01  1.23755293E+01 -2.47510585E+01
  0.00000000E+00  1.23755293E+01  1.23755293E+01 -2.47510585E+01  0.00000000E+00
  1.23755293E+01  1.23755293E+01 -2.47510585E+01  0.00000000E+00  1.23755293E+01
  1.23755293E+01 -2.47510585E+01  0.00000000E+00  1.23755293E+01  1.23755293E+01
 -2.47510585E+01  0.00000000E+00  1.23755293E+01  1.23755293E+01 -2.47510585E+01
  0.00000000E+00  1.23755293E+01  1.23755293E+01 -2.47510585E+01  0.00000000E+00
  1.23755293E+01  1.23755293E+01 -2.47510585E+01  0.00000000E+00  1.23755293E+01
  1.23755293E+01 -2.47510585E+01  0.00000000E+00  1.23755293E+01  1.23755293E+01
 -2.47510585E+01  0.00000000E+00  1.23755293E+01  1.23755293E+01 -2.47510585E+01
  0.00000000E+00  1.23755293E+01  1.23755293E+01 -2.47510585E+01  0.00000000E+00
  1.23755293E+01  1.23755293E+01 -2.47510585E+01  0.00000000E+00  1.23755293E+01
  1.23755293E+01 -2.47510585E+01  0.00000000E+00  1.23755293E+01  1.23755293E+01
 -2.47510585E+01  0.00000000E+00  1.23755293E+01  1.23755293E+01 -2.47510585E+01
  0.00000000E+00  1.23755293E+01  1.23755293E+01 -2.47510585E+01  0.00000000E+00
  1.23755293E+01  1.23755293E+01 -2.47510585E+01  0.00000000E+00  1.23755293E+01
  1.23755293E+01 -2.47510585E+01  0.00000000E+00  1.23755293E+01  1.23755293E+01
 -2.47510585E+01  0.00000000E+00  1.23755293E+01  1.23755293E+01 -2.47510585E+01
  0.00000000E+00  1.23755293E+01  1.23755293E+01 -2.47510585E+01  0.00000000E+00
  1.23755293E+01  1.23755293E+01 -2.47510585E+01  0.00000000E+00  1.23755293E+01
  1.23755293E+01 -2.47510585E+01  0.00000000E+00  1.23755293E+01  1.23755293E+01
 -2.47510585E+01  0.00000000E+00  1.23755293E+01  1.23755293E+01 -2.47510585E+01
  0.00000000E+00  1.23755293E+01  1.23755293E+01 -2.47510585E+01  0.00000000E+00
  1.23755293E+01  1.23755293E+01 -2.47510585E+01  0.00000000E+00  1.23755293E+01
  1.23755293E+01 -2.47510585E+01  0.00000000E+00  1.23755293E+01  1.23755293E+01
 -2.47510585E+01  0.00000000E+00  1.23755293E+01  1.23755293E+01 -2.47510585E+01
  0.00000000E+00  1.23755293E+01  1.23755293E+01 -2.47510585E+01  0.00000000E+00
  1.23755293E+01  1.23755293E+01 -2.47510585E+01  0.00000000E+00  1.23755293E+01
  1.23755293E+01 -2.47510585E+01  0.00000000E+00  1.23755293E+01  1.23755293E+01
 -2.47510585E+01  0.00000000E+00  1.23755293E+01  1.23755293E+01 -2.47510585E+01
  0.00000000E+00  1.23755293E+01  1.23755293E+01 -2.47510585E+01  0.00000000E+00
  1.23755293E+01  1.23755293E+01 -2.47510585E+01  0.00000000E+00  1.23755293E+01
  1.23755293E+01 -2.47510585E+01  0.00000000E+00  1.23755293E+01  1.23755293E+01
 -2.47510585E+01  0.00000000E+00  1.23755293E+01  1.23755293E+01 -2.47510585E+01
  0.00000000E+00  1.23755293E+01  1.23755293E+01 -2.47510585E+01  0.00000000E+00
  1.23755293E+01  1.23755293E+01 -2.47510585E+01  0.00000000E+00  1.23755293E+01
  1.23755293E+01 -2.47510585E+01  0.00000000E+00  1.23755293E+01  1.23755293E+01
 -2.47510585E+01  0.00000000E+00  1.23755293E+01  1.23755293E+01 -2.47510585E+01
  0.00000000E+00  1.23755293E+01  1.23755293E+01 -2.47510585E+01  0.00000000E+00
  1.23755293E+01  1.23755293E+01 -2.47510585E+01  0.00000000E+00  1.23755293E+01
  1.23755293E+01 -2.47510585E+01  0.00000000E+00  1.23755293E+01  1.23755293E+01
 -2.47510585E+01  0.00000000E+00  1.23755293E+01  1.23755293E+01 -2.47510585E+01
  0.00000000E+00  1.23755293E+01  1.23755293E+01 -2.47510585E+01  0.00000000E+00
  1.23755293E+01  1.23755293E+01 -2.47510585E+01  0.00000000E+00  1.23755293E+01
  1.23755293E+01 -2.47510585E+01  0.00000000E+00  1.23755293E+01  1.23755293E+01
 -2.47510585E+01  0.00000000E+00  1.23755293E+01  1.23755293E+01 -2.47510585E+01
  0.00000000E+00  1.23755293E+01  1.23755293E+01 -2.47510585E+01  0.00000000E+00
  1.23755293E+01  1.23755293E+01 -2.47510585E+01  0.00000000E+00  1.23755293E+01
  1.23755293E+01 -2.47510585E+01  0.00000000E+00  1.23755293E+01  1.23755293E+01
 -2.47510585E+01  0.00000000E+00  1.23755293E+01  1.23755293E+01 -2.47510585E+01
  0.00000000E+00  1.23755293E+01  1.23755293E+01 -2.47510585E+01  0.00000000E+00
  1.23755293E+01  1.23755293E+01 -2.47510585E+01  0.00000000E+00  1.23755293E+01
  1.23755293E+01 -2.47510585E+01  0.00000000E+00  1.23755293E+01  1.23755293E+01
 -2.47510585E+01  0.00000000E+00  1.23755293E+01  1.23755293E+01 -2.47510585E+01
  0.00000000E+00  1.23755293E+01  1.23755293E+01 -2.47510585E+01  0.00000000E+00
  1.23755293E+01  1.23755293E+01 -2.47510585E+01  0.00000000E+00  1.23755293E+01
  1.23755293E+01 -2.47510585E+01  0.00000000E+00  1.23755293E+01  1.23755293E+01
 -2.47510585E+01  0.00000000E+00  1.23755293E+01  1.23755293E+01 -2.47510585E+01
  0.00000000E+00  1.23755293E+01  1.23755293E+01 -2.47510585E+01  0.00000000E+00
  1.23755293E+01  1.23755293E+01 -2.47510585E+01  0.00000000E+00  1.23755293E+01
  1.23755293E+01 -2.47510585E+01  0.00000000E+00  1.23755293E+01  1.23755293E+01
 -2.47510585E+01  0.00000000E+00  1.23755293E+01  1.23755293E+01 -2.47510585E+01
  0.00000000E+00  1.23755293E+01  1.23755293E+01 -2.47510585E+01  0.00000000E+00
  1.23755293E+01  1.23755293E+01 -2.47510585E+01  0.00000000E+00  1.23755293E+01
  1.23755293E+01 -2.47510585E+01  0.00000000E+00  1.23755293E+01  1.23755293E+01
 -2.47510585E+01  0.00000000E+00  1.23755293E+01  1.23755293E+01 -2.47510585E+01
  0.00000000E+00  1.23755293E+01  1.23755293E+01 -2.47510585E+01  0.00000000E+00
  1.23755293E+01  1.23755293E+01 -2.47510585E+01  0.00000000E+00  1.23755293E+01
  1.23755293E+01 -2.47510585E+01  0.00000000E+00  1.23755293E+01  1.23755293E+01
 -2.47510585E+01  0.00000000E+00  1.23755293E+01  1.23755293E+01 -2.47510585E+01
  0.00000000E+00  1.23755293E+01  1.23755293E+01 -2.47510585E+01  0.00000000E+00
  1.23755293E+01  1.23755293E+01 -2.47510585E+01  0.00000000E+00  1.23755293E+01
  1.23755293E+01 -2.47510585E+01  0.00000000E+00  1.23755293E+01  1.23755293E+01
 -2.47510585E+01  0.00000000E+00  1.23755293E+01  1.23755293E+01 -2.47510585E+01
  0.00000000E+00  1.23755293E+01  1.23755293E+01 -2.47510585E+01  0.00000000E+00
  1.23755293E+01  1.23755293E+01 -2.47510585E+01  0.00000000E+00  1.23755293E+01
  1.23755293E+01 -2.47510585E+01  0.00000000E+00  1.23755293E+01  1.23755293E+01
 -2.47510585E+01  0.00000000E+00  1.23755293E+01  1.23755293E+01 -2.47510585E+01
  0.00000000E+00  1.23755293E+01  1.23755293E+01 -2.47510585E+01  0.00000000E+00
  1.23755293E+01  1.23755293E+01 -2.47510585E+01  0.00000000E+00  1.23755293E+01
  1.23755293E+01 -2.47510585E+01  0.00000000E+00  1.23755293E+01  1.23755293E+01
 -2.47510585E+01  0.00000000E+00  1.23755293E+01  1.23755293E+01 -2.47510585E+01
  0.00000000E+00  1.23755293E+01  1.23755293E+01 -2.47510585E+01  0.00000000E+00
  1.23755293E+01  1.23755293E+01 -2.47510585E+01  0.00000000E+00  1.23755293E+01
  1.23755293E+01 -2.47510585E+01  0.00000000E+00  1.23755293E+01  1.23755293E+01
 -2.47510585E+01  0.00000000E+00  1.23755293E+01  1.23755293E+01 -2.47510585E+01
  0.00000000E+00  1.23755293E+01  1.23755293E+01 -2.47510585E+01  0.00000000E+00
  1.23755293E+01  1.23755293E+01 -2.47510585E+01  0.00000000E+00  1.23755293E+01
  1.23755293E+01 -2.47510585E+01  0.00000000E+00  1.23755293E+01  1.23755293E+01
 -2.47510585E+01  0.00000000E+00  1.23755293E+01  1.23755293E+01 -2.47510585E+01
  0.00000000E+00  1.23755293E+01  1.23755293E+01 -2.47510585E+01  0.00000000E+00
  1.23755293E+01  1.23755293E+01 -2.47510585E+01  0.00000000E+00  1.23755293E+01
  1.23755293E+01 -2.47510585E+01  0.00000000E+00  1.23755293E+01  1.23755293E+01
 -2.47510585E+01  0.00000000E+00  1.23755293E+01  1.23755293E+01 -2.47510585E+01
  0.00000000E+00  1.23755293E+01  1.23755293E+01 -2.47510585E+01  0.00000000E+00
  1.23755293E+01  1.23755293E+01 -2.47510585E+01  0.00000000E+00  1.23755293E+01
  1.23755293E+01 -2.47510585E+01  0.00000000E+00  1.23755293E+01  1.23755293E+01
 -2.47510585E+01  0.00000000E+00  1.23755293E+01  1.23755293E+01 -2.47510585E+01
  0.00000000E+00  1.23755293E+01  1.23755293E+01 -2.47510585E+01  0.00000000E+00
  1.23755293E+01  1.23755293E+01 -2.47510585E+01  0.00000000E+00  1.23755293E+01
  1.23755293E+01 -2.47510585E+01  0.00000000E+00  1.23755293E+01  1.23755293E+01
 -2.47510585E+01  0.00000000E+00  1.23755293E+01  1.23755293E+01 -2.47510585E+01
  0.00000000E+00  1.23755293E+01  1.23755293E+01 -2.47510585E+01  0.00000000E+00
  1.23755293E+01  1.23755293E+01 -2.47510585E+01  0.00000000E+00  1.23755293E+01
  1.23755293E+01 -2.47510585E+01  0.00000000E+00  1.23755293E+01  1.23755293E+01
 -2.47510585E+01  0.00000000E+00  1.23755293E+01  1.23755293E+01 -2.47510585E+01
  0.00000000E+00  1.23755293E+01  1.23755293E+01 -2.47510585E+01  0.00000000E+00
  1.23755293E+01  1.23755293E+01 -2.47510585E+01  0.00000000E+00  1.23755293E+01
  1.23755293E+01 -2.47510585E+01  0.00000000E+00  1.23755293E+01  1.23755293E+01
 -2.47510585E+01  0.00000000E+00  1.23755293E+01  1.23755293E+01 -2.47510585E+01
  0.00000000E+00  1.23755293E+01  1.23755293E+01 -2.47510585E+01  0.00000000E+00
  1.23755293E+01  1.23755293E+01 -2.47510585E+01  0.00000000E+00  1.23755293E+01
  1.23755293E+01 -2.47510585E+01  0.00000000E+00  1.23755293E+01  1.23755293E+01
 -2.47510585E+01  0.00000000E+00  1.23755293E+01  1.23755293E+01 -2.47510585E+01
  0.00000000E+00  1.23755293E+01  1.23755293E+01 -2.47510585E+01  0.00000000E+00
  1.23755293E+01  1.23755293E+01 -2.47510585E+01  0.00000000E+00  1.23755293E+01
  1.23755293E+01 -2.47510585E+01  0.00000000E+00  1.23755293E+01  1.23755293E+01
 -2.47510585E+01  0.00000000E+00  1.23755293E+01  1.23755293E+01 -2.47510585E+01
  0.00000000E+00  1.23755293E+01  1.23755293E+01 -2.47510585E+01  0.00000000E+00
  1.23755293E+01  1.23755293E+01 -2.47510585E+01  0.00000000E+00  1.23755293E+01
  1.23755293E+01 -2.47510585E+01  0.00000000E+00  1.23755293E+01  1.23755293E+01
 -2.47510585E+01  0.00000000E+00  1.23755293E+01  1.23755293E+01 -2.47510585E+01
  0.00000000E+00  1.23755293E+01  1.23755293E+01 -2.47510585E+01  0.00000000E+00
  1.23755293E+01  1.23755293E+01 -2.47510585E+01  0.00000000E+00  1.23755293E+01
  1.23755293E+01 -2.47510585E+01  0.00000000E+00  1.23755293E+01  1.23755293E+01
 -2.47510585E+01
%FLAG ATOMIC_NUMBER                                                             
%FORMAT(10I8)                                                                   
       1       6       1       1       6       8       7       1       6       1
       6       1       1       1       6       8       7       1       6       1
       6       1       1       1       6       8       7       1       6       1
       6       1       1       1       6       8       7       1       6       1
       1       1       8       1       1       0       8       1       1       0
       8       1       1       0       8       1       1       0       8       1
       1       0       8       1       1       0       8       1       1       0
       8       1       1       0       8       1       1       0       8       1
       1       0       8       1       1       0       8       1       1       0
       8       1       1       0       8       1       1       0       8       1
       1       0       8       1       1       0       8       1       1       0
       8       1       1       0       8       1       1       0       8       1
       1       0       8       1       1       0       8       1       1       0
       8       1       1       0       8       1       1       0       8       1
       1       0       8       1       1       0       8       1       1       0
       8       1       1       0       8       1       1       0       8       1
       1       0       8       1       1       0       8       1       1       0
       8       1       1       0       8       1       1       0       8       1
       1       0       8       1       1       0       8       1       1       0
       8       1       1       0       8       1       1       0       8       1
       1       0       8       1       1       0       8       1       1       0
       8       1       1       0       8       1       1       0       8       1
       1       0       8       1       1       0       8       1       1       0
       8       1       1       0       8       1       1       0       8       1
       1       0       8       1       1       0       8       1       1       0
       8       1       1       0       8       1       1       0       8       1
       1       0       8       1       1       0       8       1       1       0
       8       1       1       0       8       1       1       0       8       1
       1       0       8       1       1       0       8       1       1       0
       8       1       1       0       8       1       1       0       8       1
       1       0       8       1       1       0       8       1       1       0
       8       1       1       0       8       1       1       0       8       1
       1       0       8       1       1       0       8       1       1       0
       8       1       1       0       8       1       1       0       8       1
       1       0       8       1       1       0       8       1       1       0
       8       1       1       0       8       1       1       0       8       1
       1       0       8       1       1       0       8       1       1       0
       8       1       1       0       8       1       1       0       8       1
       1       0       8       1       1       0       8       1       1       0
       8       1       1       0       8       1       1       0       8       1
       1       0       8       1       1       0       8       1       1       0
       8       1       1       0       8       1       1       0       8       1
       1       0       8       1       1       0       8       1       1       0
       8       1       1       0       8       1       1       0       8       1
       1       0       8       1       1       0       8       1       1       0
       8       1       1       0       8       1       1       0       8       1
       1       0       8       1       1       0       8       1       1       0
       8       1       1       0       8       1       1       0       8       1
       1       0       8       1       1       0       8       1       1       0
       8       1       1       0       8       1       1       0       8       1
       1       0       8       1       1       0       8       1       1       0
       8       1       1       0       8       1       1       0       8       1
       1       0       8       1       1       0       8       1       1       0
       8       1       1       0       8       1       1       0       8       1
       1       0       8       1       1       0       8       1       1       0
       8       1       1       0       8       1       1       0       8       1
       1       0       8       1       1       0       8       1       1       0
       8       1       1       0       8       1       1       0       8       1
       1       0       8       1       1       0       8       1       1       0
       8       1       1       0       8       1       1       0       8       1
       1       0       8       1       1       0       8       1       1       0
       8       1       1       0       8       1       1       0       8       1
       1       0       8       1       1       0       8       1       1       0
       8       1       1       0       8       1       1       0       8       1
       1       0       8       1       1       0       8       1       1       0
       8       1       1       0       8       1       1       0       8       1
       1       0       8       1       1       0       8       1       1       0
       8       1       1       0       8       1       1       0       8       1
       1       0       8       1       1       0       8       1       1       0
       8       1       1       0       8       1       1       0       8       1
       1       0       8       1       1       0       8       1       1       0
       8       1       1       0       8       1       1       0       8       1
       1       0       8       1       1       0       8       1       1       0
       8       1       1       0       8       1       1       0       8       1
       1       0       8       1       1       0       8       1       1       0
       8       1       1       0       8       1       1       0       8       1
       1       0       8       1       1       0       8       1       1       0
       8       1       1       0       8       1       1       0       8       1
       1       0       8       1       1       0       8       1       1       0
       8       1       1       0       8       1       1       0       8       1
       1       0       8       1       1       0       8       1       1       0
       8       1       1       0       8       1       1       0       8       1
       1       0       8       1       1       0       8       1       1       0
       8       1       1       0       8       1       1       0       8       1
       1       0       8       1       1       0       8       1       1       0
       8       1       1       0       8       1       1       0       8       1
       1       0       8       1       1       0       8       1       1       0
       8       1       1       0       8       1       1       0       8       1
       1       0       8       1       1       0       8       1       1       0
       8       1       1       0       8       1       1       0       8       1
       1       0       8       1       1       0       8       1       1       0
       8       1       1       0       8       1       1       0       8       1
       1       0       8       1       1       0       8       1       1       0
       8       1       1       0       8       1       1       0       8       1
       1       0       8       1       1       0       8       1       1       0
       8       1       1       0       8       1       1       0       8       1
       1       0       8       1       1       0       8       1       1       0
       8       1       1       0       8       1       1       0       8       1
       1       0       8       1       1       0       8       1       1       0
       8       1       1       0       8       1       1       0       8       1
       1       0       8       1       1       0       8       1       1       0
       8       1       1       0       8       1       1       0       8       1
       1       0       8       1       1       0       8       1       1       0
       8       1       1       0       8       1       1       0       8       1
       1       0       8       1       1       0       8       1       1       0
       8       1       1       0       8       1       1       0       8       1
       1       0       8       1       1       0       8       1       1       0
       8       1       1       0       8       1       1       0       8       1
       1       0       8       1       1       0       8       1       1       0
       8       1       1       0       8       1       1       0       8       1
       1       0       8       1       1       0       8       1       1       0
       8       1       1       0       8       1       1       0       8       1
       1       0       8       1       1       0       8       1       1       0
       8       1       1       0       8       1       1       0       8       1
       1       0       8       1       1       0       8       1       1       0
       8       1       1       0       8       1       1       0       8       1
       1       0       8       1       1       0       8       1       1       0
       8       1       1       0       8       1       1       0       8       1
       1       0       8       1       1       0       8       1       1       0
       8       1       1       0       8       1       1       0       8       1
       1       0       8       1       1       0       8       1       1       0
       8       1       1       0       8       1       1       0       8       1
       1       0       8       1       1       0       8       1       1       0
       8       1       1       0       8       1       1       0       8       1
       1       0       8       1       1       0       8       1       1       0
       8       1       1       0       8       1       1       0       8       1
       1       0       8       1       1       0       8       1       1       0
       8       1       1       0       8       1       1       0       8       1
       1       0       8       1       1       0       8       1       1       0
       8       1       1       0       8       1       1       0       8       1
       1       0       8       1       1       0       8       1       1       0
       8       1       1       0       8       1       1       0       8       1
       1       0       8       1       1       0       8       1       1       0
       8       1       1       0       8       1       1       0       8       1
       1       0       8       1       1       0       8       1       1       0
       8       1       1       0       8       1       1       0       8       1
       1       0       8       1       1       0       8       1       1       0
       8       1       1       0       8       1       1       0       8       1
       1       0       8       1       1       0       8       1       1       0
       8       1       1       0       8       1       1       0       8       1
       1       0       8       1       1       0       8       1       1       0
       8       1       1       0       8       1       1       0       8       1
       1       0       8       1       1       0       8       1       1       0
       8       1       1       0       8       1       1       0       8       1
       1       0       8       1       1       0       8       1       1       0
       8       1       1       0       8       1       1       0       8       1
       1       0       8       1       1       0       8       1       1       0
       8       1       1       0       8       1       1       0       8       1
       1       0       8       1       1       0       8       1       1       0
       8       1       1       0       8       1       1       0       8       1
       1       0       8       1       1       0       8       1       1       0
       8       1       1       0       8       1       1       0       8       1
       1       0       8       1       1       0       8       1       1       0
       8       1       1       0       8       1       1       0       8       1
       1       0       8       1       1       0       8       1       1       0
       8       1       1       0       8       1       1       0       8       1
       1       0       8       1       1       0       8       1       1       0
       8       1       1       0       8       1       1       0       8       1
       1       0       8       1       1       0       8       1       1       0
       8       1       1       0       8       1       1       0       8       1
       1       0       8       1       1       0       8       1       1       0
       8       1       1       0       8       1       1       0       8       1
       1       0       8       1       1       0       8       1       1       0
       8       1       1       0       8       1       1       0       8       1
       1       0       8       1       1       0       8       1       1       0
       8       1       1       0       8       1       1       0       8       1
       1       0       8       1       1       0       8       1       1       0
       8       1       1       0       8       1       1       0       8       1
       1       0       8       1       1       0       8       1       1       0
       8       1       1       0       8       1       1       0       8       1
       1       0       8       1       1       0       8       1       1       0
       8       1       1       0       8       1       1       0       8       1
       1       0       8       1       1       0       8       1       1       0
       8       1       1       0       8       1       1       0       8       1
       1       0       8       1       1       0       8       1       1       0
       8       1       1       0       8       1       1       0       8       1
       1       0       8       1       1       0       8       1       1       0
       8       1       1       0       8       1       1       0       8       1
       1       0       8       1       1       0       8       1       1       0
       8       1       1       0       8       1       1       0       8       1
       1       0       8       1       1       0       8       1       1       0
       8       1       1       0       8       1       1       0       8       1
       1       0       8       1       1       0       8       1       1       0
       8       1       1       0       8       1       1       0       8       1
       1       0       8       1       1       0       8       1       1       0
       8       1       1       0       8       1       1       0       8       1
       1       0       8       1       1       0       8       1       1       0
       8       1       1       0       8       1       1       0       8       1
       1       0       8       1       1       0       8       1       1       0
       8       1       1       0       8       1       1       0       8       1
       1       0       8       1       1       0       8       1       1       0
       8       1       1       0       8       1       1       0       8       1
       1       0       8       1       1       0       8       1       1       0
       8       1       1       0       8       1       1       0       8       1
       1       0       8       1       1       0       8       1       1       0
       8       1       1       0       8       1       1       0       8       1
       1       0       8       1       1       0       8       1       1       0
       8       1       1       0       8       1       1       0       8       1
       1       0       8       1       1       0       8       1       1       0
       8       1       1       0       8       1       1       0       8       1
       1       0       8       1       1       0       8       1       1       0
       8       1       1       0       8       1       1       0       8       1
       1       0       8       1       1       0       8       1       1       0
       8       1       1       0       8       1       1       0       8       1
       1       0       8       1       1       0       8       1       1       0
       8       1       1       0       8       1       1       0       8       1
       1       0       8       1       1       0       8       1       1       0
       8       1       1       0       8       1       1       0       8       1
       1       0       8       1       1       0       8       1       1       0
       8       1       1       0       8       1       1       0       8       1
       1       0       8       1       1       0       8       1       1       0
       8       1       1       0       8       1       1       0       8       1
       1       0       8       1       1       0       8       1       1       0
       8       1       1       0       8       1       1       0       8       1
       1       0       8       1       1       0       8       1       1       0
       8       1       1       0       8       1       1       0       8       1
       1       0       8       1       1       0       8       1       1       0
       8       1       1       0       8       1       1       0       8       1
       1       0       8       1       1       0       8       1       1       0
       8       1       1       0       8       1       1       0       8       1
       1       0       8       1       1       0       8       1       1       0
       8       1       1       0       8       1       1       0       8       1
       1       0       8       1       1       0       8       1       1       0
       8       1       1       0       8       1       1       0       8       1
       1       0       8       1       1       0       8       1       1       0
       8       1       1       0       8       1       1       0       8       1
       1       0       8       1       1       0       8       1       1       0
       8       1       1       0       8       1       1       0       8       1
       1       0       8       1       1       0       8       1       1       0
       8       1       1       0       8       1       1       0       8       1
       1       0       8       1       1       0       8       1       1       0
       8       1       1       0       8       1       1       0       8       1
       1       0       8       1       1       0       8       1       1       0
       8       1       1       0       8       1       1       0       8       1
       1       0       8       1       1       0       8       1       1       0
       8       1       1       0       8       1       1       0       8       1
       1       0       8       1       1       0       8       1       1       0
       8       1       1       0       8       1       1       0       8       1
       1       0       8       1       1       0       8       1       1       0
       8       1       1       0       8       1       1       0       8       1
       1       0       8       1       1       0       8       1       1       0
       8       1       1       0       8       1       1       0       8       1
       1       0       8       1       1       0       8       1       1       0
       8       1       1       0       8       1       1       0       8       1
       1       0       8       1       1       0       8       1       1       0
       8       1       1       0       8       1       1       0       8       1
       1       0       8       1       1       0       8       1       1       0
       8       1       1       0       8       1       1       0       8       1
       1       0       8       1       1       0       8       1       1       0
       8       1       1       0       8       1       1       0       8       1
       1       0       8       1       1       0       8       1       1       0
       8       1       1       0       8       1       1       0       8       1
       1       0       8       1       1       0       8       1       1       0
       8       1       1       0       8       1       1       0       8       1
       1       0       8       1       1       0       8       1       1       0
       8       1       1       0       8       1       1       0       8       1
       1       0       8       1       1       0       8       1       1       0
       8       1       1       0       8       1       1       0       8       1
       1       0       8       1       1       0       8       1       1       0
       8       1       1       0       8       1       1       0       8       1
       1       0       8       1       1       0       8       1       1       0
       8       1       1       0       8       1       1       0       8       1
       1       0       8       1       1       0       8       1       1       0
       8       1       1       0       8       1       1       0       8       1
       1       0       8       1       1       0       8       1       1       0
       8       1       1       0       8       1       1       0       8       1
       1       0       8       1       1       0       8       1       1       0
       8       1       1       0       8       1       1       0       8       1
       1       0       8       1       1       0       8       1       1       0
       8       1       1       0       8       1       1       0       8       1
       1       0       8       1       1       0       8       1       1       0
       8       1       1       0       8       1       1       0       8       1
       1       0       8       1       1       0       8       1       1       0
       8       1       1       0       8       1       1       0       8       1
       1       0       8       1       1       0       8       1       1       0
       8       1       1       0       8       1       1       0       8       1
       1       0       8       1       1       0       8       1       1       0
       8       1       1       0       8       1       1       0       8       1
       1       0       8       1       1       0       8       1       1       0
       8       1       1       0       8       1       1       0       8       1
       1       0       8       1       1       0       8       1       1       0
       8       1       1       0       8       1       1       0       8       1
       1       0       8       1       1       0       8       1       1       0
       8       1       1       0       8       1       1       0       8       1
       1       0       8       1       1       0       8       1       1       0
       8       1       1       0       8       1       1       0       8       1
       1       0       8       1       1       0       8       1       1       0
       8       1       1       0       8       1       1       0       8       1
       1       0       8       1       1       0       8       1       1       0
       8       1       1       0       8       1       1       0       8       1
       1       0       8       1       1       0       8       1       1       0
       8       1       1       0       8       1       1       0       8       1
       1       0       8       1       1       0       8       1       1       0
       8       1       1       0       8       1       1       0       8       1
       1       0       8       1       1       0       8       1       1       0
       8       1       1       0       8       1       1       0       8       1
       1       0       8       1       1       0       8       1       1       0
       8       1       1       0       8       1       1       0       8       1
       1       0       8       1       1       0       8       1       1       0
       8       1       1       0       8       1       1       0       8       1
       1       0       8       1       1       0       8       1       1       0
       8       1       1       0       8       1       1       0       8       1
       1       0       8       1       1       0       8       1       1       0
       8       1       1       0       8       1       1       0       8       1
       1       0       8       1       1       0       8       1       1       0
       8       1       1       0       8       1       1       0       8       1
       1       0       8       1       1       0       8       1       1       0
       8       1       1       0       8       1       1       0       8       1
       1       0       8       1       1       0       8       1       1       0
       8       1       1       0       8       1       1       0       8       1
       1       0       8       1       1       0       8       1       1       0
       8       1       1       0       8       1       1       0       8       1
       1       0       8       1       1       0       8       1       1       0
       8       1       1       0       8       1       1       0       8       1
       1       0       8       1       1       0       8       1       1       0
       8       1       1       0       8       1       1       0       8       1
       1       0       8       1       1       0       8       1       1       0
       8       1       1       0       8       1       1       0       8       1
       1       0       8       1       1       0       8       1       1       0
       8       1       1       0       8       1       1       0       8       1
       1       0       8       1       1       0       8       1       1       0
       8       1       1       0       8       1       1       0       8       1
       1       0       8       1       1       0       8       1       1       0
       8       1       1       0       8       1       1       0       8       1
       1       0       8       1       1       0       8       1       1       0
       8       1       1       0       8       1       1       0       8       1
       1       0       8       1       1       0       8       1       1       0
       8       1       1       0       8       1       1       0       8       1
       1       0       8       1       1       0       8       1       1       0
       8       1       1       0       8       1       1       0       8       1
       1       0       8       1       1       0       8       1       1       0
       8       1       1       0       8       1       1       0       8       1
       1       0       8       1       1       0       8       1       1       0
       8       1       1       0       8       1       1       0       8       1
       1       0       8       1       1       0       8       1       1       0
       8       1       1       0       8       1       1       0       8       1
       1       0       8       1       1       0       8       1       1       0
       8       1       1       0       8       1       1       0       8       1
       1       0       8       1       1       0       8       1       1       0
       8       1       1       0       8       1       1       0       8       1
       1       0       8       1       1       0       8       1       1       0
       8       1       1       0       8       1       1       0       8       1
       1       0       8       1       1       0       8       1       1       0
       8       1       1       0       8       1       1       0       8       1
       1       0       8       1       1       0       8       1       1       0
       8       1       1       0       8       1       1       0       8       1
       1       0       8       1       1       0       8       1       1       0
       8       1       1       0       8       1       1       0       8       1
       1       0       8       1       1       0       8       1       1       0
       8       1       1       0       8       1       1       0       8       1
       1       0       8       1       1       0       8       1       1       0
       8       1       1       0       8       1       1       0       8       1
       1       0       8       1       1       0       8       1       1       0
       8       1       1       0       8       1       1       0       8       1
       1       0       8       1       1       0       8       1       1       0
       8       1       1       0       8       1       1       0       8       1
       1       0       8       1       1       0       8       1       1       0
       8       1       1       0       8       1       1       0       8       1
       1       0       8       1       1       0       8       1       1       0
       8       1       1       0       8       1       1       0       8       1
       1       0       8       1       1       0       8       1       1       0
       8       1       1       0       8       1       1       0       8       1
       1       0       8       1       1       0       8       1       1       0
       8       1       1       0       8       1       1       0       8       1
       1       0       8       1       1       0       8       1       1       0
       8       1       1       0       8       1       1       0       8       1
       1       0       8       1       1       0       8       1       1       0
       8       1       1       0       8       1       1       0       8       1
       1       0       8       1       1       0       8       1       1       0
       8       1       1       0       8       1       1       0       8       1
       1       0       8       1       1       0       8       1       1       0
       8       1       1       0       8       1       1       0       8       1
       1       0       8       1       1       0       8       1       1       0
       8       1       1       0       8       1       1       0       8       1
       1       0       8       1       1       0       8       1       1       0
       8       1       1       0       8       1       1       0       8       1
       1       0       8       1       1       0       8       1       1       0
       8       1       1       0       8       1       1       0       8       1
       1       0       8       1       1       0       8       1       1       0
       8       1       1       0       8       1       1       0       8       1
       1       0       8       1       1       0       8       1       1       0
       8       1       1       0       8       1       1       0       8       1
       1       0       8       1       1       0       8       1       1       0
       8       1       1       0       8       1       1       0       8       1
       1       0       8       1       1       0       8       1       1       0
       8       1       1       0       8       1       1       0       8       1
       1       0       8       1       1       0       8       1       1       0
       8       1       1       0       8       1       1       0       8       1
       1       0       8       1       1       0       8       1       1       0
       8       1       1       0       8       1       1       0       8       1
       1       0       8       1       1       0       8       1       1       0
       8       1       1       0       8       1       1       0       8       1
       1       0       8       1       1       0       8       1       1       0
       8       1       1       0       8       1       1       0       8       1
       1       0       8       1       1       0       8       1       1       0
       8       1       1       0       8       1       1       0       8       1
       1       0       8       1       1       0       8       1       1       0
       8       1       1       0       8       1       1       0       8       1
       1       0       8       1       1       0       8       1       1       0
       8       1       1       0       8       1       1       0       8       1
       1       0       8       1       1       0       8       1       1       0
       8       1       1       0       8       1       1       0       8       1
       1       0       8       1       1       0       8       1       1       0
       8       1       1       0       8       1       1       0       8       1
       1       0       8       1       1       0       8       1       1       0
       8       1       1       0       8       1       1       0       8       1
       1       0       8       1       1       0       8       1       1       0
       8       1       1       0       8       1       1       0       8       1
       1       0       8       1       1       0       8       1       1       0
       8       1       1       0       8       1       1       0       8       1
       1       0       8       1       1       0       8       1       1       0
       8       1       1       0       8       1       1       0       8       1
       1       0       8       1       1       0       8       1       1       0
       8       1       1       0       8       1       1       0       8       1
       1       0       8       1       1       0       8       1       1       0
       8       1       1       0       8       1       1       0       8       1
       1       0       8       1       1       0       8       1       1       0
       8       1       1       0       8       1       1       0       8       1
       1       0       8       1       1       0       8       1       1       0
       8       1       1       0       8       1       1       0       8       1
       1       0       8       1       1       0       8       1       1       0
       8       1       1       0       8       1       1       0       8       1
       1       0       8       1       1       0       8       1       1       0
       8       1       1       0       8       1       1       0       8       1
       1       0       8       1       1       0       8       1       1       0
       8       1       1       0       8       1       1       0       8       1
       1       0       8       1       1       0       8       1       1       0
       8       1       1       0       8       1       1       0       8       1
       1       0       8       1       1       0       8       1       1       0
       8       1       1       0       8       1       1       0       8       1
       1       0       8       1       1       0       8       1       1       0
       8       1       1       0       8       1       1       0       8       1
       1       0       8       1       1       0       8       1       1       0
       8       1       1       0       8       1       1       0       8       1
       1       0       8       1       1       0       8       1       1       0
       8       1       1       0       8       1       1       0       8       1
       1       0       8       1       1       0       8       1       1       0
       8       1       1       0       8       1       1       0       8       1
       1       0       8       1       1       0       8       1       1       0
       8       1       1       0       8       1       1       0       8       1
       1       0       8       1       1       0       8       1       1       0
       8       1       1       0       8       1       1       0       8       1
       1       0       8       1       1       0       8       1       1       0
       8       1       1       0       8       1       1       0       8       1
       1       0       8       1       1       0       8       1       1       0
       8       1       1       0       8       1       1       0       8       1
       1       0       8       1       1       0       8       1       1       0
       8       1       1       0       8       1       1       0       8       1
       1       0       8       1       1       0       8       1       1       0
       8       1       1       0       8       1       1       0       8       1
       1       0       8       1       1       0       8       1       1       0
       8       1       1       0       8       1       1       0       8       1
       1       0       8       1       1       0       8       1       1       0
       8       1       1       0       8       1       1       0       8       1
       1       0       8       1       1       0       8       1       1       0
       8       1       1       0       8       1       1       0       8       1
       1       0       8       1       1       0       8       1       1       0
       8       1       1       0       8       1       1       0       8       1
       1       0       8       1       1       0       8       1       1       0
       8       1       1       0       8       1       1       0       8       1
       1       0       8       1       1       0       8       1       1       0
       8       1       1       0       8       1       1       0       8       1
       1       0       8       1       1       0       8       1       1       0
       8       1       1       0       8       1       1       0       8       1
       1       0       8       1       1       0       8       1       1       0
       8       1       1       0       8       1       1       0       8       1
       1       0       8       1       1       0       8       1       1       0
       8       1       1       0       8       1       1       0       8       1
       1       0       8       1       1       0       8       1       1       0
       8       1       1       0       8       1       1       0       8       1
       1       0       8       1       1       0       8       1       1       0
       8       1       1       0       8       1       1       0       8       1
       1       0       8       1       1       0       8       1       1       0
       8       1       1       0       8       1       1       0       8       1
       1       0       8       1       1       0       8       1       1       0
       8       1       1       0       8       1       1       0       8       1
       1       0       8       1       1       0       8       1       1       0
       8       1       1       0       8       1       1       0       8       1
       1       0       8       1       1       0       8       1       1       0
       8       1       1       0       8       1       1       0       8       1
       1       0       8       1       1       0       8       1       1       0
       8       1       1       0       8       1       1       0       8       1
       1       0       8       1       1       0       8       1       1       0
       8       1       1       0       8       1       1       0       8       1
       1       0       8       1       1       0       8       1       1       0
       8       1       1       0       8       1       1       0       8       1
       1       0       8       1       1       0       8       1       1       0
       8       1       1       0       8       1       1       0       8       1
       1       0       8       1       1       0       8       1       1       0
       8       1       1       0       8       1       1       0       8       1
       1       0       8       1       1       0       8       1       1       0
       8       1       1       0       8       1       1       0       8       1
       1       0       8       1       1       0       8       1       1       0
       8       1       1       0       8       1       1       0       8       1
       1       0       8       1       1       0       8       1       1       0
       8       1       1       0       8       1       1       0       8       1
       1       0       8       1       1       0       8       1       1       0
       8       1       1       0       8       1       1       0       8       1
       1       0       8       1       1       0       8       1       1       0
       8       1       1       0       8       1       1       0       8       1
       1       0       8       1       1       0       8       1       1       0
       8       1       1       0       8       1       1       0       8       1
       1       0       8       1       1       0       8       1       1       0
       8       1       1       0       8       1       1       0       8       1
       1       0       8       1       1       0       8       1       1       0
       8       1       1       0       8       1       1       0       8       1
       1       0       8       1       1       0       8       1       1       0
       8       1       1       0       8       1       1       0       8       1
       1       0       8       1       1       0       8       1       1       0
       8       1       1       0       8       1       1       0       8       1
       1       0       8       1       1       0       8       1       1       0
       8       1       1       0       8       1       1       0       8       1
       1       0       8       1       1       0       8       1       1       0
       8       1       1       0       8       1       1       0       8       1
       1       0       8       1       1       0       8       1       1       0
       8       1       1       0       8       1       1       0       8       1
       1       0       8       1       1       0       8       1       1       0
       8       1       1       0       8       1       1       0       8       1
       1       0       8       1       1       0       8       1       1       0
       8       1       1       0       8       1       1       0       8       1
       1       0       8       1       1       0       8       1       1       0
       8       1       1       0       8       1       1       0       8       1
       1       0       8       1       1       0       8       1       1       0
       8       1       1       0       8       1       1       0       8       1
       1       0       8       1       1       0       8       1       1       0
       8       1       1       0       8       1       1       0       8       1
       1       0       8       1       1       0       8       1       1       0
       8       1       1       0       8       1       1       0       8       1
       1       0       8       1       1       0       8       1       1       0
       8       1       1       0       8       1       1       0       8       1
       1       0       8       1       1       0       8       1       1       0
       8       1       1       0       8       1       1       0       8       1
       1       0       8       1       1       0       8       1       1       0
       8       1       1       0       8       1       1       0       8       1
       1       0       8       1       1       0       8       1       1       0
       8       1       1       0       8       1       1       0       8       1
       1       0       8       1       1       0       8       1       1       0
       8       1       1       0       8       1       1       0       8       1
       1       0       8       1       1       0       8       1       1       0
       8       1       1       0       8       1       1       0       8       1
       1       0       8       1       1       0       8       1       1       0
       8       1       1       0       8       1       1       0       8       1
       1       0       8       1       1       0       8       1       1       0
       8       1       1       0       8       1       1       0       8       1
       1       0       8       1       1       0       8       1       1       0
       8       1       1       0       8       1       1       0       8       1
       1       0       8       1       1       0       8       1       1       0
       8       1       1       0       8       1       1       0       8       1
       1       0       8       1       1       0       8       1       1       0
       8       1       1       0       8       1       1       0       8       1
       1       0       8       1       1       0       8       1       1       0
       8       1       1       0       8       1       1       0       8       1
       1       0       8       1       1       0       8       1       1       0
       8       1       1       0       8       1       1       0       8       1
       1       0       8       1       1       0       8       1       1       0
       8       1       1       0       8       1       1       0       8       1
       1       0       8       1       1       0       8       1       1       0
       8       1       1       0       8       1       1       0       8       1
       1       0       8       1       1       0       8       1       1       0
       8       1       1       0       8       1       1       0       8       1
       1       0       8       1       1       0       8       1       1       0
       8       1       1       0       8       1       1       0       8       1
       1       0       8       1       1       0       8       1       1       0
       8       1       1       0       8       1       1       0       8       1
       1       0       8       1       1       0       8       1       1       0
       8       1       1       0       8       1       1       0       8       1
       1       0       8       1       1       0       8       1       1       0
       8       1       1       0       8       1       1       0       8       1
       1       0       8       1       1       0       8       1       1       0
       8       1       1       0       8       1       1       0       8       1
       1       0       8       1       1       0       8       1       1       0
       8       1       1       0       8       1       1       0       8       1
       1       0       8       1       1       0       8       1       1       0
       8       1       1       0       8       1       1       0       8       1
       1       0       8       1       1       0       8       1       1       0
       8       1       1       0       8       1       1       0       8       1
       1       0       8       1       1       0       8       1       1       0
       8       1       1       0       8       1       1       0       8       1
       1       0       8       1       1       0       8       1       1       0
       8       1       1       0       8       1       1       0       8       1
       1       0       8       1       1       0       8       1       1       0
       8       1       1       0       8       1       1       0       8       1
       1       0       8       1       1       0       8       1       1       0
       8       1       1       0       8       1       1       0       8       1
       1       0       8       1       1       0       8       1       1       0
       8       1       1       0       8       1       1       0       8       1
       1       0       8       1       1       0       8       1       1       0
       8       1       1       0       8       1       1       0       8       1
       1       0       8       1       1       0       8       1       1       0
       8       1       1       0       8       1       1       0       8       1
       1       0       8       1       1       0       8       1       1       0
       8       1       1       0       8       1       1       0       8       1
       1       0       8       1       1       0       8       1       1       0
       8       1       1       0       8       1       1       0       8       1
       1       0       8       1       1       0       8       1       1       0
       8       1       1       0       8       1       1       0       8       1
       1       0       8       1       1       0       8       1       1       0
       8       1       1       0       8       1       1       0       8       1
       1       0       8       1       1       0       8       1       1       0
       8       1       1       0       8       1       1       0       8       1
       1       0       8       1       1       0       8       1       1       0
       8       1       1       0       8       1       1       0       8       1
       1       0       8       1       1       0       8       1       1       0
       8       1       1       0       8       1       1       0       8       1
       1       0       8       1       1       0       8       1       1       0
       8       1       1       0       8       1       1       0       8       1
       1       0       8       1       1       0       8       1       1       0
       8       1       1       0       8       1       1       0       8       1
       1       0       8       1       1       0       8       1       1       0
       8       1       1       0       8       1       1       0       8       1
       1       0       8       1       1       0       8       1       1       0
       8       1       1       0       8       1       1       0       8       1
       1       0       8       1       1       0       8       1       1       0
       8       1       1       0       8       1       1       0       8       1
       1       0       8       1       1       0       8       1       1       0
       8       1       1       0       8       1       1       0       8       1
       1       0       8       1       1       0       8       1       1       0
       8       1       1       0       8       1       1       0       8       1
       1       0       8       1       1       0       8       1       1       0
       8       1       1       0       8       1       1       0       8       1
       1       0       8       1       1       0       8       1       1       0
       8       1       1       0       8       1       1       0       8       1
       1       0       8       1       1       0       8       1       1       0
       8       1       1       0       8       1       1       0       8       1
       1       0       8       1       1       0       8       1       1       0
       8       1       1       0       8       1       1       0       8       1
       1       0       8       1       1       0       8       1       1       0
       8       1       1       0       8       1       1       0       8       1
       1       0       8       1       1       0       8       1       1       0
       8       1       1       0       8       1       1       0       8       1
       1       0       8       1       1       0       8       1       1       0
       8       1       1       0       8       1       1       0       8       1
       1       0       8       1       1       0       8       1       1       0
       8       1       1       0       8       1       1       0       8       1
       1       0       8       1       1       0       8       1       1       0
       8       1       1       0       8       1       1       0       8       1
       1       0       8       1       1       0       8       1       1       0
       8       1       1       0       8       1       1       0       8       1
       1       0       8       1       1       0
%FLAG MASS                                                                      
%FORMAT(5E16.8)                                                                 
  1.00800000E+00  1.20100000E+01  1.00800000E+00  1.00800000E+00  1.20100000E+01
  1.60000000E+01  1.40100000E+01  1.00800000E+00  1.20100000E+01  1.00800000E+00
  1.20100000E+01  1.00800000E+00  1.00800000E+00  1.00800000E+00  1.20100000E+01
  1.60000000E+01  1.40100000E+01  1.00800000E+00  1.20100000E+01  1.00800000E+00
  1.20100000E+01  1.00800000E+00  1.00800000E+00  1.00800000E+00  1.20100000E+01
  1.60000000E+01  1.40100000E+01  1.00800000E+00  1.20100000E+01  1.00800000E+00
  1.20100000E+01  1.00800000E+00  1.00800000E+00  1.00800000E+00  1.20100000E+01
  1.60000000E+01  1.40100000E+01  1.00800000E+00  1.20100000E+01  1.00800000E+00
  1.00800000E+00  1.00800000E+00  1.60000000E+01  1.00800000E+00  1.00800000E+00
  0.00000000E+00  1.60000000E+01  1.00800000E+00  1.00800000E+00  0.00000000E+00
  1.60000000E+01  1.00800000E+00  1.00800000E+00  0.00000000E+00  1.60000000E+01
  1.00800000E+00  1.00800000E+00  0.00000000E+00  1.60000000E+01  1.00800000E+00
  1.00800000E+00  0.00000000E+00  1.60000000E+01  1.00800000E+00  1.00800000E+00
  0.00000000E+00  1.60000000E+01  1.00800000E+00  1.00800000E+00  0.00000000E+00
  1.60000000E+01  1.00800000E+00  1.00800000E+00  0.00000000E+00  1.60000000E+01
  1.00800000E+00  1.00800000E+00  0.00000000E+00  1.60000000E+01  1.00800000E+00
  1.00800000E+00  0.00000000E+00  1.60000000E+01  1.00800000E+00  1.00800000E+00
  0.00000000E+00  1.60000000E+01  1.00800000E+00  1.00800000E+00  0.00000000E+00
  1.60000000E+01  1.00800000E+00  1.00800000E+00  0.00000000E+00  1.60000000E+01
  1.00800000E+00  1.00800000E+00  0.00000000E+00  1.60000000E+01  1.00800000E+00
  1.00800000E+00  0.00000000E+00  1.60000000E+01  1.00800000E+00  1.00800000E+00
  0.00000000E+00  1.60000000E+01  1.00800000E+00  1.00800000E+00  0.00000000E+00
  1.60000000E+01  1.00800000E+00  1.00800000E+00  0.00000000E+00  1.60000000E+01
  1.00800000E+00  1.00800000E+00  0.00000000E+00  1.60000000E+01  1.00800000E+00
  1.00800000E+00  0.00000000E+00  1.60000000E+01  1.00800000E+00  1.00800000E+00
  0.00000000E+00  1.60000000E+01  1.00800000E+00  1.00800000E+00  0.00000000E+00
  1.60000000E+01  1.00800000E+00  1.00800000E+00  0.00000000E+00  1.60000000E+01
  1.00800000E+00  1.00800000E+00  0.00000000E+00  1.60000000E+01  1.00800000E+00
  1.00800000E+00  0.00000000E+00  1.60000000E+01  1.00800000E+00  1.00800000E+00
  0.00000000E+00  1.60000000E+01  1.00800000E+00  1.00800000E+00  0.00000000E+00
  1.60000000E+01  1.00800000E+00  1.00800000E+00  0.00000000E+00  1.60000000E+01
  1.00800000E+00  1.00800000E+00  0.00000000E+00  1.60000000E+01  1.00800000E+00
  1.00800000E+00  0.00000000E+00  1.60000000E+01  1.00800000E+00  1.00800000E+00
  0.00000000E+00  1.60000000E+01  1.00800000E+00  1.00800000E+00  0.00000000E+00
  1.60000000E+01  1.00800000E+00  1.00800000E+00  0.00000000E+00  1.60000000E+01
  1.00800000E+00  1.00800000E+00  0.00000000E+00  1.60000000E+01  1.00800000E+00
  1.00800000E+00  0.00000000E+00  1.60000000E+01  1.00800000E+00  1.00800000E+00
  0.00000000E+00  1.60000000E+01  1.00800000E+00  1.00800000E+00  0.00000000E+00
  1.60000000E+01  1.00800000E+00  1.00800000E+00  0.00000000E+00  1.60000000E+01
  1.00800000E+00  1.00800000E+00  0.00000000E+00  1.60000000E+01  1.00800000E+00
  1.00800000E+00  0.00000000E+00  1.60000000E+01  1.00800000E+00  1.00800000E+00
  0.00000000E+00  1.60000000E+01  1.00800000E+00  1.00800000E+00  0.00000000E+00
  1.60000000E+01  1.00800000E+00  1.00800000E+00  0.00000000E+00  1.60000000E+01
  1.00800000E+00  1.00800000E+00  0.00000000E+00  1.60000000E+01  1.00800000E+00
  1.00800000E+00  0.00000000E+00  1.60000000E+01  1.00800000E+00  1.00800000E+00
  0.00000000E+00  1.60000000E+01  1.00800000E+00  1.00800000E+00  0.00000000E+00
  1.60000000E+01  1.00800000E+00  1.00800000E+00  0.00000000E+00  1.60000000E+01
  1.00800000E+00  1.00800000E+00  0.00000000E+00  1.60000000E+01  1.00800000E+00
  1.00800000E+00  0.00000000E+00  1.60000000E+01  1.00800000E+00  1.00800000E+00
  0.00000000E+00  1.60000000E+01  1.00800000E+00  1.00800000E+00  0.00000000E+00
  1.60000000E+01  1.00800000E+00  1.00800000E+00  0.00000000E+00  1.60000000E+01
  1.00800000E+00  1.00800000E+00  0.00000000E+00  1.60000000E+01  1.00800000E+00
  1.00800000E+00  0.00000000E+00  1.60000000E+01  1.00800000E+00  1.00800000E+00
  0.00000000E+00  1.60000000E+01  1.00800000E+00  1.00800000E+00  0.00000000E+00
  1.60000000E+01  1.00800000E+00  1.00800000E+00  0.00000000E+00  1.60000000E+01
  1.00800000E+00  1.00800000E+00  0.00000000E+00  1.60000000E+01  1.00800000E+00
  1.00800000E+00  0.00000000E+00  1.60000000E+01  1.00800000E+00  1.00800000E+00
  0.00000000E+00  1.60000000E+01  1.00800000E+00  1.00800000E+00  0.00000000E+00
  1.60000000E+01  1.00800000E+00  1.00800000E+00  0.00000000E+00  1.60000000E+01
  1.00800000E+00  1.00800000E+00  0.00000000E+00  1.60000000E+01  1.00800000E+00
  1.00800000E+00  0.00000000E+00  1.60000000E+01  1.00800000E+00  1.00800000E+00
  0.00000000E+00  1.60000000E+01  1.00800000E+00  1.00800000E+00  0.00000000E+00
  1.60000000E+01  1.00800000E+00  1.00800000E+00  0.00000000E+00  1.60000000E+01
  1.00800000E+00  1.00800000E+00  0.00000000E+00  1.60000000E+01  1.00800000E+00
  1.00800000E+00  0.00000000E+00  1.60000000E+01  1.00800000E+00  1.00800000E+00
  0.00000000E+00  1.60000000E+01  1.00800000E+00  1.00800000E+00  0.00000000E+00
  1.60000000E+01  1.00800000E+00  1.00800000E+00  0.00000000E+00  1.60000000E+01
  1.00800000E+00  1.00800000E+00  0.00000000E+00  1.60000000E+01  1.00800000E+00
  1.00800000E+00  0.00000000E+00  1.60000000E+01  1.00800000E+00  1.00800000E+00
  0.00000000E+00  1.60000000E+01  1.00800000E+00  1.00800000E+00  0.00000000E+00
  1.60000000E+01  1.00800000E+00  1.00800000E+00  0.00000000E+00  1.60000000E+01
  1.00800000E+00  1.00800000E+00  0.00000000E+00  1.60000000E+01  1.00800000E+00
  1.00800000E+00  0.00000000E+00  1.60000000E+01  1.00800000E+00  1.00800000E+00
  0.00000000E+00  1.60000000E+01  1.00800000E+00  1.00800000E+00  0.00000000E+00
  1.60000000E+01  1.00800000E+00  1.00800000E+00  0.00000000E+00  1.60000000E+01
  1.00800000E+00  1.00800000E+00  0.00000000E+00  1.60000000E+01  1.00800000E+00
  1.00800000E+00  0.00000000E+00  1.60000000E+01  1.00800000E+00  1.00800000E+00
  0.00000000E+00  1.60000000E+01  1.00800000E+00  1.00800000E+00  0.00000000E+00
  1.60000000E+01  1.00800000E+00  1.00800000E+00  0.00000000E+00  1.60000000E+01
  1.00800000E+00  1.00800000E+00  0.00000000E+00  1.60000000E+01  1.00800000E+00
  1.00800000E+00  0.00000000E+00  1.60000000E+01  1.00800000E+00  1.00800000E+00
  0.00000000E+00  1.60000000E+01  1.00800000E+00  1.00800000E+00  0.00000000E+00
  1.60000000E+01  1.00800000E+00  1.00800000E+00  0.00000000E+00  1.60000000E+01
  1.00800000E+00  1.00800000E+00  0.00000000E+00  1.60000000E+01  1.00800000E+00
  1.00800000E+00  0.00000000E+00  1.60000000E+01  1.00800000E+00  1.00800000E+00
  0.00000000E+00  1.60000000E+01  1.00800000E+00  1.00800000E+00  0.00000000E+00
  1.60000000E+01  1.00800000E+00  1.00800000E+00  0.00000000E+00  1.60000000E+01
  1.00800000E+00  1.00800000E+00  0.00000000E+00  1.60000000E+01  1.00800000E+00
  1.00800000E+00  0.00000000E+00  1.60000000E+01  1.00800000E+00  1.00800000E+00
  0.00000000E+00  1.60000000E+01  1.00800000E+00  1.00800000E+00  0.00000000E+00
  1.60000000E+01  1.00800000E+00  1.00800000E+00  0.00000000E+00  1.60000000E+01
  1.00800000E+00  1.00800000E+00  0.00000000E+00  1.60000000E+01  1.00800000E+00
  1.00800000E+00  0.00000000E+00  1.60000000E+01  1.00800000E+00  1.00800000E+00
  0.00000000E+00  1.60000000E+01  1.00800000E+00  1.00800000E+00  0.00000000E+00
  1.60000000E+01  1.00800000E+00  1.00800000E+00  0.00000000E+00  1.60000000E+01
  1.00800000E+00  1.00800000E+00  0.00000000E+00  1.60000000E+01  1.00800000E+00
  1.00800000E+00  0.00000000E+00  1.60000000E+01  1.00800000E+00  1.00800000E+00
  0.00000000E+00  1.60000000E+01  1.00800000E+00  1.00800000E+00  0.00000000E+00
  1.60000000E+01  1.00800000E+00  1.00800000E+00  0.00000000E+00  1.60000000E+01
  1.00800000E+00  1.00800000E+00  0.00000000E+00  1.60000000E+01  1.00800000E+00
  1.00800000E+00  0.00000000E+00  1.60000000E+01  1.00800000E+00  1.00800000E+00
  0.00000000E+00  1.60000000E+01  1.00800000E+00  1.00800000E+00  0.00000000E+00
  1.60000000E+01  1.00800000E+00  1.00800000E+00  0.00000000E+00  1.60000000E+01
  1.00800000E+00  1.00800000E+00  0.00000000E+00  1.60000000E+01  1.00800000E+00
  1.00800000E+00  0.00000000E+00  1.60000000E+01  1.00800000E+00  1.00800000E+00
  0.00000000E+00  1.60000000E+01  1.00800000E+00  1.00800000E+00  0.00000000E+00
  1.60000000E+01  1.00800000E+00  1.00800000E+00  0.00000000E+00  1.60000000E+01
  1.00800000E+00  1.00800000E+00  0.00000000E+00  1.60000000E+01  1.00800000E+00
  1.00800000E+00  0.00000000E+00  1.60000000E+01  1.00800000E+00  1.00800000E+00
  0.00000000E+00  1.60000000E+01  1.00800000E+00  1.00800000E+00  0.00000000E+00
  1.60000000E+01  1.00800000E+00  1.00800000E+00  0.00000000E+00  1.60000000E+01
  1.00800000E+00  1.00800000E+00  0.00000000E+00  1.60000000E+01  1.00800000E+00
  1.00800000E+00  0.00000000E+00  1.60000000E+01  1.00800000E+00  1.00800000E+00
  0.00000000E+00  1.60000000E+01  1.00800000E+00  1.00800000E+00  0.00000000E+00
  1.60000000E+01  1.00800000E+00  1.00800000E+00  0.00000000E+00  1.60000000E+01
  1.00800000E+00  1.00800000E+00  0.00000000E+00  1.60000000E+01  1.00800000E+00
  1.00800000E+00  0.00000000E+00  1.60000000E+01  1.00800000E+00  1.00800000E+00
  0.00000000E+00  1.60000000E+01  1.00800000E+00  1.00800000E+00  0.00000000E+00
  1.60000000E+01  1.00800000E+00  1.00800000E+00  0.00000000E+00  1.60000000E+01
  1.00800000E+00  1.00800000E+00  0.00000000E+00  1.60000000E+01  1.00800000E+00
  1.00800000E+00  0.00000000E+00  1.60000000E+01  1.00800000E+00  1.00800000E+00
  0.00000000E+00  1.60000000E+01  1.00800000E+00  1.00800000E+00  0.00000000E+00
  1.60000000E+01  1.00800000E+00  1.00800000E+00  0.00000000E+00  1.60000000E+01
  1.00800000E+00  1.00800000E+00  0.00000000E+00  1.60000000E+01  1.00800000E+00
  1.00800000E+00  0.00000000E+00  1.60000000E+01  1.00800000E+00  1.00800000E+00
  0.00000000E+00  1.60000000E+01  1.00800000E+00  1.00800000E+00  0.00000000E+00
  1.60000000E+01  1.00800000E+00  1.00800000E+00  0.00000000E+00  1.60000000E+01
  1.00800000E+00  1.00800000E+00  0.00000000E+00  1.60000000E+01  1.00800000E+00
  1.00800000E+00  0.00000000E+00  1.60000000E+01  1.00800000E+00  1.00800000E+00
  0.00000000E+00  1.60000000E+01  1.00800000E+00  1.00800000E+00  0.00000000E+00
  1.60000000E+01  1.00800000E+00  1.00800000E+00  0.00000000E+00  1.60000000E+01
  1.00800000E+00  1.00800000E+00  0.00000000E+00  1.60000000E+01  1.00800000E+00
  1.00800000E+00  0.00000000E+00  1.60000000E+01  1.00800000E+00  1.00800000E+00
  0.00000000E+00  1.60000000E+01  1.00800000E+00  1.00800000E+00  0.00000000E+00
  1.60000000E+01  1.00800000E+00  1.00800000E+00  0.00000000E+00  1.60000000E+01
  1.00800000E+00  1.00800000E+00  0.00000000E+00  1.60000000E+01  1.00800000E+00
  1.00800000E+00  0.00000000E+00  1.60000000E+01  1.00800000E+00  1.00800000E+00
  0.00000000E+00  1.60000000E+01  1.00800000E+00  1.00800000E+00  0.00000000E+00
  1.60000000E+01  1.00800000E+00  1.00800000E+00  0.00000000E+00  1.60000000E+01
  1.00800000E+00  1.00800000E+00  0.00000000E+00  1.60000000E+01  1.00800000E+00
  1.00800000E+00  0.00000000E+00  1.60000000E+01  1.00800000E+00  1.00800000E+00
  0.00000000E+00  1.60000000E+01  1.00800000E+00  1.00800000E+00  0.00000000E+00
  1.60000000E+01  1.00800000E+00  1.00800000E+00  0.00000000E+00  1.60000000E+01
  1.00800000E+00  1.00800000E+00  0.00000000E+00  1.60000000E+01  1.00800000E+00
  1.00800000E+00  0.00000000E+00  1.60000000E+01  1.00800000E+00  1.00800000E+00
  0.00000000E+00  1.60000000E+01  1.00800000E+00  1.00800000E+00  0.00000000E+00
  1.60000000E+01  1.00800000E+00  1.00800000E+00  0.00000000E+00  1.60000000E+01
  1.00800000E+00  1.00800000E+00  0.00000000E+00  1.60000000E+01  1.00800000E+00
  1.00800000E+00  0.00000000E+00  1.60000000E+01  1.00800000E+00  1.00800000E+00
  0.00000000E+00  1.60000000E+01  1.00800000E+00  1.00800000E+00  0.00000000E+00
  1.60000000E+01  1.00800000E+00  1.00800000E+00  0.00000000E+00  1.60000000E+01
  1.00800000E+00  1.00800000E+00  0.00000000E+00  1.60000000E+01  1.00800000E+00
  1.00800000E+00  0.00000000E+00  1.60000000E+01  1.00800000E+00  1.00800000E+00
  0.00000000E+00  1.60000000E+01  1.00800000E+00  1.00800000E+00  0.00000000E+00
  1.60000000E+01  1.00800000E+00  1.00800000E+00  0.00000000E+00  1.60000000E+01
  1.00800000E+00  1.00800000E+00  0.00000000E+00  1.60000000E+01  1.00800000E+00
  1.00800000E+00  0.00000000E+00  1.60000000E+01  1.00800000E+00  1.00800000E+00
  0.00000000E+00  1.60000000E+01  1.00800000E+00  1.00800000E+00  0.00000000E+00
  1.60000000E+01  1.00800000E+00  1.00800000E+00  0.00000000E+00  1.60000000E+01
  1.00800000E+00  1.00800000E+00  0.00000000E+00  1.60000000E+01  1.00800000E+00
  1.00800000E+00  0.00000000E+00  1.60000000E+01  1.00800000E+00  1.00800000E+00
  0.00000000E+00  1.60000000E+01  1.00800000E+00  1.00800000E+00  0.00000000E+00
  1.60000000E+01  1.00800000E+00  1.00800000E+00  0.00000000E+00  1.60000000E+01
  1.00800000E+00  1.00800000E+00  0.00000000E+00  1.60000000E+01  1.00800000E+00
  1.00800000E+00  0.00000000E+00  1.60000000E+01  1.00800000E+00  1.00800000E+00
  0.00000000E+00  1.60000000E+01  1.00800000E+00  1.00800000E+00  0.00000000E+00
  1.60000000E+01  1.00800000E+00  1.00800000E+00  0.00000000E+00  1.60000000E+01
  1.00800000E+00  1.00800000E+00  0.00000000E+00  1.60000000E+01  1.00800000E+00
  1.00800000E+00  0.00000000E+00  1.60000000E+01  1.00800000E+00  1.00800000E+00
  0.00000000E+00  1.60000000E+01  1.00800000E+00  1.00800000E+00  0.00000000E+00
  1.60000000E+01  1.00800000E+00  1.00800000E+00  0.00000000E+00  1.60000000E+01
  1.00800000E+00  1.00800000E+00  0.00000000E+00  1.60000000E+01  1.00800000E+00
  1.00800000E+00  0.00000000E+00  1.60000000E+01  1.00800000E+00  1.00800000E+00
  0.00000000E+00  1.60000000E+01  1.00800000E+00  1.00800000E+00  0.00000000E+00
  1.60000000E+01  1.00800000E+00  1.00800000E+00  0.00000000E+00  1.60000000E+01
  1.00800000E+00  1.00800000E+00  0.00000000E+00  1.60000000E+01  1.00800000E+00
  1.00800000E+00  0.00000000E+00  1.60000000E+01  1.00800000E+00  1.00800000E+00
  0.00000000E+00  1.60000000E+01  1.00800000E+00  1.00800000E+00  0.00000000E+00
  1.60000000E+01  1.00800000E+00  1.00800000E+00  0.00000000E+00  1.60000000E+01
  1.00800000E+00  1.00800000E+00  0.00000000E+00  1.60000000E+01  1.00800000E+00
  1.00800000E+00  0.00000000E+00  1.60000000E+01  1.00800000E+00  1.00800000E+00
  0.00000000E+00  1.60000000E+01  1.00800000E+00  1.00800000E+00  0.00000000E+00
  1.60000000E+01  1.00800000E+00  1.00800000E+00  0.00000000E+00  1.60000000E+01
  1.00800000E+00  1.00800000E+00  0.00000000E+00  1.60000000E+01  1.00800000E+00
  1.00800000E+00  0.00000000E+00  1.60000000E+01  1.00800000E+00  1.00800000E+00
  0.00000000E+00  1.60000000E+01  1.00800000E+00  1.00800000E+00  0.00000000E+00
  1.60000000E+01  1.00800000E+00  1.00800000E+00  0.00000000E+00  1.60000000E+01
  1.00800000E+00  1.00800000E+00  0.00000000E+00  1.60000000E+01  1.00800000E+00
  1.00800000E+00  0.00000000E+00  1.60000000E+01  1.00800000E+00  1.00800000E+00
  0.00000000E+00  1.60000000E+01  1.00800000E+00  1.00800000E+00  0.00000000E+00
  1.60000000E+01  1.00800000E+00  1.00800000E+00  0.00000000E+00  1.60000000E+01
  1.00800000E+00  1.00800000E+00  0.00000000E+00  1.60000000E+01  1.00800000E+00
  1.00800000E+00  0.00000000E+00  1.60000000E+01  1.00800000E+00  1.00800000E+00
  0.00000000E+00  1.60000000E+01  1.00800000E+00  1.00800000E+00  0.00000000E+00
  1.60000000E+01  1.00800000E+00  1.00800000E+00  0.00000000E+00  1.60000000E+01
  1.00800000E+00  1.00800000E+00  0.00000000E+00  1.60000000E+01  1.00800000E+00
  1.00800000E+00  0.00000000E+00  1.60000000E+01  1.00800000E+00  1.00800000E+00
  0.00000000E+00  1.60000000E+01  1.00800000E+00  1.00800000E+00  0.00000000E+00
  1.60000000E+01  1.00800000E+00  1.00800000E+00  0.00000000E+00  1.60000000E+01
  1.00800000E+00  1.00800000E+00  0.00000000E+00  1.60000000E+01  1.00800000E+00
  1.00800000E+00  0.00000000E+00  1.60000000E+01  1.00800000E+00  1.00800000E+00
  0.00000000E+00  1.60000000E+01  1.00800000E+00  1.00800000E+00  0.00000000E+00
  1.60000000E+01  1.00800000E+00  1.00800000E+00  0.00000000E+00  1.60000000E+01
  1.00800000E+00  1.00800000E+00  0.00000000E+00  1.60000000E+01  1.00800000E+00
  1.00800000E+00  0.00000000E+00  1.60000000E+01  1.00800000E+00  1.00800000E+00
  0.00000000E+00  1.60000000E+01  1.00800000E+00  1.00800000E+00  0.00000000E+00
  1.60000000E+01  1.00800000E+00  1.00800000E+00  0.00000000E+00  1.60000000E+01
  1.00800000E+00  1.00800000E+00  0.00000000E+00  1.60000000E+01  1.00800000E+00
  1.00800000E+00  0.00000000E+00  1.60000000E+01  1.00800000E+00  1.00800000E+00
  0.00000000E+00  1.60000000E+01  1.00800000E+00  1.00800000E+00  0.00000000E+00
  1.60000000E+01  1.00800000E+00  1.00800000E+00  0.00000000E+00  1.60000000E+01
  1.00800000E+00  1.00800000E+00  0.00000000E+00  1.60000000E+01  1.00800000E+00
  1.00800000E+00  0.00000000E+00  1.60000000E+01  1.00800000E+00  1.00800000E+00
  0.00000000E+00  1.60000000E+01  1.00800000E+00  1.00800000E+00  0.00000000E+00
  1.60000000E+01  1.00800000E+00  1.00800000E+00  0.00000000E+00  1.60000000E+01
  1.00800000E+00  1.00800000E+00  0.00000000E+00  1.60000000E+01  1.00800000E+00
  1.00800000E+00  0.00000000E+00  1.60000000E+01  1.00800000E+00  1.00800000E+00
  0.00000000E+00  1.60000000E+01  1.00800000E+00  1.00800000E+00  0.00000000E+00
  1.60000000E+01  1.00800000E+00  1.00800000E+00  0.00000000E+00  1.60000000E+01
  1.00800000E+00  1.00800000E+00  0.00000000E+00  1.60000000E+01  1.00800000E+00
  1.00800000E+00  0.00000000E+00  1.60000000E+01  1.00800000E+00  1.00800000E+00
  0.00000000E+00  1.60000000E+01  1.00800000E+00  1.00800000E+00  0.00000000E+00
  1.60000000E+01  1.00800000E+00  1.00800000E+00  0.00000000E+00  1.60000000E+01
  1.00800000E+00  1.00800000E+00  0.00000000E+00  1.60000000E+01  1.00800000E+00
  1.00800000E+00  0.00000000E+00  1.60000000E+01  1.00800000E+00  1.00800000E+00
  0.00000000E+00  1.60000000E+01  1.00800000E+00  1.00800000E+00  0.00000000E+00
  1.60000000E+01  1.00800000E+00  1.00800000E+00  0.00000000E+00  1.60000000E+01
  1.00800000E+00  1.00800000E+00  0.00000000E+00  1.60000000E+01  1.00800000E+00
  1.00800000E+00  0.00000000E+00  1.60000000E+01  1.00800000E+00  1.00800000E+00
  0.00000000E+00  1.60000000E+01  1.00800000E+00  1.00800000E+00  0.00000000E+00
  1.60000000E+01  1.00800000E+00  1.00800000E+00  0.00000000E+00  1.60000000E+01
  1.00800000E+00  1.00800000E+00  0.00000000E+00  1.60000000E+01  1.00800000E+00
  1.00800000E+00  0.00000000E+00  1.60000000E+01  1.00800000E+00  1.00800000E+00
  0.00000000E+00  1.60000000E+01  1.00800000E+00  1.00800000E+00  0.00000000E+00
  1.60000000E+01  1.00800000E+00  1.00800000E+00  0.00000000E+00  1.60000000E+01
  1.00800000E+00  1.00800000E+00  0.00000000E+00  1.60000000E+01  1.00800000E+00
  1.00800000E+00  0.00000000E+00  1.60000000E+01  1.00800000E+00  1.00800000E+00
  0.00000000E+00  1.60000000E+01  1.00800000E+00  1.00800000E+00  0.00000000E+00
  1.60000000E+01  1.00800000E+00  1.00800000E+00  0.00000000E+00  1.60000000E+01
  1.00800000E+00  1.00800000E+00  0.00000000E+00  1.60000000E+01  1.00800000E+00
  1.00800000E+00  0.00000000E+00  1.60000000E+01  1.00800000E+00  1.00800000E+00
  0.00000000E+00  1.60000000E+01  1.00800000E+00  1.00800000E+00  0.00000000E+00
  1.60000000E+01  1.00800000E+00  1.00800000E+00  0.00000000E+00  1.60000000E+01
  1.00800000E+00  1.00800000E+00  0.00000000E+00  1.60000000E+01  1.00800000E+00
  1.00800000E+00  0.00000000E+00  1.60000000E+01  1.00800000E+00  1.00800000E+00
  0.00000000E+00  1.60000000E+01  1.00800000E+00  1.00800000E+00  0.00000000E+00
  1.60000000E+01  1.00800000E+00  1.00800000E+00  0.00000000E+00  1.60000000E+01
  1.00800000E+00  1.00800000E+00  0.00000000E+00  1.60000000E+01  1.00800000E+00
  1.00800000E+00  0.00000000E+00  1.60000000E+01  1.00800000E+00  1.00800000E+00
  0.00000000E+00  1.60000000E+01  1.00800000E+00  1.00800000E+00  0.00000000E+00
  1.60000000E+01  1.00800000E+00  1.00800000E+00  0.00000000E+00  1.60000000E+01
  1.00800000E+00  1.00800000E+00  0.00000000E+00  1.60000000E+01  1.00800000E+00
  1.00800000E+00  0.00000000E+00  1.60000000E+01  1.00800000E+00  1.00800000E+00
  0.00000000E+00  1.60000000E+01  1.00800000E+00  1.00800000E+00  0.00000000E+00
  1.60000000E+01  1.00800000E+00  1.00800000E+00  0.00000000E+00  1.60000000E+01
  1.00800000E+00  1.00800000E+00  0.00000000E+00  1.60000000E+01  1.00800000E+00
  1.00800000E+00  0.00000000E+00  1.60000000E+01  1.00800000E+00  1.00800000E+00
  0.00000000E+00  1.60000000E+01  1.00800000E+00  1.00800000E+00  0.00000000E+00
  1.60000000E+01  1.00800000E+00  1.00800000E+00  0.00000000E+00  1.60000000E+01
  1.00800000E+00  1.00800000E+00  0.00000000E+00  1.60000000E+01  1.00800000E+00
  1.00800000E+00  0.00000000E+00  1.60000000E+01  1.00800000E+00  1.00800000E+00
  0.00000000E+00  1.60000000E+01  1.00800000E+00  1.00800000E+00  0.00000000E+00
  1.60000000E+01  1.00800000E+00  1.00800000E+00  0.00000000E+00  1.60000000E+01
  1.00800000E+00  1.00800000E+00  0.00000000E+00  1.60000000E+01  1.00800000E+00
  1.00800000E+00  0.00000000E+00  1.60000000E+01  1.00800000E+00  1.00800000E+00
  0.00000000E+00  1.60000000E+01  1.00800000E+00  1.00800000E+00  0.00000000E+00
  1.60000000E+01  1.00800000E+00  1.00800000E+00  0.00000000E+00  1.60000000E+01
  1.00800000E+00  1.00800000E+00  0.00000000E+00  1.60000000E+01  1.00800000E+00
  1.00800000E+00  0.00000000E+00  1.60000000E+01  1.00800000E+00  1.00800000E+00
  0.00000000E+00  1.60000000E+01  1.00800000E+00  1.00800000E+00  0.00000000E+00
  1.60000000E+01  1.00800000E+00  1.00800000E+00  0.00000000E+00  1.60000000E+01
  1.00800000E+00  1.00800000E+00  0.00000000E+00  1.60000000E+01  1.00800000E+00
  1.00800000E+00  0.00000000E+00  1.60000000E+01  1.00800000E+00  1.00800000E+00
  0.00000000E+00  1.60000000E+01  1.00800000E+00  1.00800000E+00  0.00000000E+00
  1.60000000E+01  1.00800000E+00  1.00800000E+00  0.00000000E+00  1.60000000E+01
  1.00800000E+00  1.00800000E+00  0.00000000E+00  1.60000000E+01  1.00800000E+00
  1.00800000E+00  0.00000000E+00  1.60000000E+01  1.00800000E+00  1.00800000E+00
  0.00000000E+00  1.60000000E+01  1.00800000E+00  1.00800000E+00  0.00000000E+00
  1.60000000E+01  1.00800000E+00  1.00800000E+00  0.00000000E+00  1.60000000E+01
  1.00800000E+00  1.00800000E+00  0.00000000E+00  1.60000000E+01  1.00800000E+00
  1.00800000E+00  0.00000000E+00  1.60000000E+01  1.00800000E+00  1.00800000E+00
  0.00000000E+00  1.60000000E+01  1.00800000E+00  1.00800000E+00  0.00000000E+00
  1.60000000E+01  1.00800000E+00  1.00800000E+00  0.00000000E+00  1.60000000E+01
  1.00800000E+00  1.00800000E+00  0.00000000E+00  1.60000000E+01  1.00800000E+00
  1.00800000E+00  0.00000000E+00  1.60000000E+01  1.00800000E+00  1.00800000E+00
  0.00000000E+00  1.60000000E+01  1.00800000E+00  1.00800000E+00  0.00000000E+00
  1.60000000E+01  1.00800000E+00  1.00800000E+00  0.00000000E+00  1.60000000E+01
  1.00800000E+00  1.00800000E+00  0.00000000E+00  1.60000000E+01  1.00800000E+00
  1.00800000E+00  0.00000000E+00  1.60000000E+01  1.00800000E+00  1.00800000E+00
  0.00000000E+00  1.60000000E+01  1.00800000E+00  1.00800000E+00  0.00000000E+00
  1.60000000E+01  1.00800000E+00  1.00800000E+00  0.00000000E+00  1.60000000E+01
  1.00800000E+00  1.00800000E+00  0.00000000E+00  1.60000000E+01  1.00800000E+00
  1.00800000E+00  0.00000000E+00  1.60000000E+01  1.00800000E+00  1.00800000E+00
  0.00000000E+00  1.60000000E+01  1.00800000E+00  1.00800000E+00  0.00000000E+00
  1.60000000E+01  1.00800000E+00  1.00800000E+00  0.00000000E+00  1.60000000E+01
  1.00800000E+00  1.00800000E+00  0.00000000E+00  1.60000000E+01  1.00800000E+00
  1.00800000E+00  0.00000000E+00  1.60000000E+01  1.00800000E+00  1.00800000E+00
  0.00000000E+00  1.60000000E+01  1.00800000E+00  1.00800000E+00  0.00000000E+00
  1.60000000E+01  1.00800000E+00  1.00800000E+00  0.00000000E+00  1.60000000E+01
  1.00800000E+00  1.00800000E+00  0.00000000E+00  1.60000000E+01  1.00800000E+00
  1.00800000E+00  0.00000000E+00  1.60000000E+01  1.00800000E+00  1.00800000E+00
  0.00000000E+00  1.60000000E+01  1.00800000E+00  1.00800000E+00  0.00000000E+00
  1.60000000E+01  1.00800000E+00  1.00800000E+00  0.00000000E+00  1.60000000E+01
  1.00800000E+00  1.00800000E+00  0.00000000E+00  1.60000000E+01  1.00800000E+00
  1.00800000E+00  0.00000000E+00  1.60000000E+01  1.00800000E+00  1.00800000E+00
  0.00000000E+00  1.60000000E+01  1.00800000E+00  1.00800000E+00  0.00000000E+00
  1.60000000E+01  1.00800000E+00  1.00800000E+00  0.00000000E+00  1.60000000E+01
  1.00800000E+00  1.00800000E+00  0.00000000E+00  1.60000000E+01  1.00800000E+00
  1.00800000E+00  0.00000000E+00  1.60000000E+01  1.00800000E+00  1.00800000E+00
  0.00000000E+00  1.60000000E+01  1.00800000E+00  1.00800000E+00  0.00000000E+00
  1.60000000E+01  1.00800000E+00  1.00800000E+00  0.00000000E+00  1.60000000E+01
  1.00800000E+00  1.00800000E+00  0.00000000E+00  1.60000000E+01  1.00800000E+00
  1.00800000E+00  0.00000000E+00  1.60000000E+01  1.00800000E+00  1.00800000E+00
  0.00000000E+00  1.60000000E+01  1.00800000E+00  1.00800000E+00  0.00000000E+00
  1.60000000E+01  1.00800000E+00  1.00800000E+00  0.00000000E+00  1.60000000E+01
  1.00800000E+00  1.00800000E+00  0.00000000E+00  1.60000000E+01  1.00800000E+00
  1.00800000E+00  0.00000000E+00  1.60000000E+01  1.00800000E+00  1.00800000E+00
  0.00000000E+00  1.60000000E+01  1.00800000E+00  1.00800000E+00  0.00000000E+00
  1.60000000E+01  1.00800000E+00  1.00800000E+00  0.00000000E+00  1.60000000E+01
  1.00800000E+00  1.00800000E+00  0.00000000E+00  1.60000000E+01  1.00800000E+00
  1.00800000E+00  0.00000000E+00  1.60000000E+01  1.00800000E+00  1.00800000E+00
  0.00000000E+00  1.60000000E+01  1.00800000E+00  1.00800000E+00  0.00000000E+00
  1.60000000E+01  1.00800000E+00  1.00800000E+00  0.00000000E+00  1.60000000E+01
  1.00800000E+00  1.00800000E+00  0.00000000E+00  1.60000000E+01  1.00800000E+00
  1.00800000E+00  0.00000000E+00  1.60000000E+01  1.00800000E+00  1.00800000E+00
  0.00000000E+00  1.60000000E+01  1.00800000E+00  1.00800000E+00  0.00000000E+00
  1.60000000E+01  1.00800000E+00  1.00800000E+00  0.00000000E+00  1.60000000E+01
  1.00800000E+00  1.00800000E+00  0.00000000E+00  1.60000000E+01  1.00800000E+00
  1.00800000E+00  0.00000000E+00  1.60000000E+01  1.00800000E+00  1.00800000E+00
  0.00000000E+00  1.60000000E+01  1.00800000E+00  1.00800000E+00  0.00000000E+00
  1.60000000E+01  1.00800000E+00  1.00800000E+00  0.00000000E+00  1.60000000E+01
  1.00800000E+00  1.00800000E+00  0.00000000E+00  1.60000000E+01  1.00800000E+00
  1.00800000E+00  0.00000000E+00  1.60000000E+01  1.00800000E+00  1.00800000E+00
  0.00000000E+00  1.60000000E+01  1.00800000E+00  1.00800000E+00  0.00000000E+00
  1.60000000E+01  1.00800000E+00  1.00800000E+00  0.00000000E+00  1.60000000E+01
  1.00800000E+00  1.00800000E+00  0.00000000E+00  1.60000000E+01  1.00800000E+00
  1.00800000E+00  0.00000000E+00  1.60000000E+01  1.00800000E+00  1.00800000E+00
  0.00000000E+00  1.60000000E+01  1.00800000E+00  1.00800000E+00  0.00000000E+00
  1.60000000E+01  1.00800000E+00  1.00800000E+00  0.00000000E+00  1.60000000E+01
  1.00800000E+00  1.00800000E+00  0.00000000E+00  1.60000000E+01  1.00800000E+00
  1.00800000E+00  0.00000000E+00  1.60000000E+01  1.00800000E+00  1.00800000E+00
  0.00000000E+00  1.60000000E+01  1.00800000E+00  1.00800000E+00  0.00000000E+00
  1.60000000E+01  1.00800000E+00  1.00800000E+00  0.00000000E+00  1.60000000E+01
  1.00800000E+00  1.00800000E+00  0.00000000E+00  1.60000000E+01  1.00800000E+00
  1.00800000E+00  0.00000000E+00  1.60000000E+01  1.00800000E+00  1.00800000E+00
  0.00000000E+00  1.60000000E+01  1.00800000E+00  1.00800000E+00  0.00000000E+00
  1.60000000E+01  1.00800000E+00  1.00800000E+00  0.00000000E+00  1.60000000E+01
  1.00800000E+00  1.00800000E+00  0.00000000E+00  1.60000000E+01  1.00800000E+00
  1.00800000E+00  0.00000000E+00  1.60000000E+01  1.00800000E+00  1.00800000E+00
  0.00000000E+00  1.60000000E+01  1.00800000E+00  1.00800000E+00  0.00000000E+00
  1.60000000E+01  1.00800000E+00  1.00800000E+00  0.00000000E+00  1.60000000E+01
  1.00800000E+00  1.00800000E+00  0.00000000E+00  1.60000000E+01  1.00800000E+00
  1.00800000E+00  0.00000000E+00  1.60000000E+01  1.00800000E+00  1.00800000E+00
  0.00000000E+00  1.60000000E+01  1.00800000E+00  1.00800000E+00  0.00000000E+00
  1.60000000E+01  1.00800000E+00  1.00800000E+00  0.00000000E+00  1.60000000E+01
  1.00800000E+00  1.00800000E+00  0.00000000E+00  1.60000000E+01  1.00800000E+00
  1.00800000E+00  0.00000000E+00  1.60000000E+01  1.00800000E+00  1.00800000E+00
  0.00000000E+00  1.60000000E+01  1.00800000E+00  1.00800000E+00  0.00000000E+00
  1.60000000E+01  1.00800000E+00  1.00800000E+00  0.00000000E+00  1.60000000E+01
  1.00800000E+00  1.00800000E+00  0.00000000E+00  1.60000000E+01  1.00800000E+00
  1.00800000E+00  0.00000000E+00  1.60000000E+01  1.00800000E+00  1.00800000E+00
  0.00000000E+00  1.60000000E+01  1.00800000E+00  1.00800000E+00  0.00000000E+00
  1.60000000E+01  1.00800000E+00  1.00800000E+00  0.00000000E+00  1.60000000E+01
  1.00800000E+00  1.00800000E+00  0.00000000E+00  1.60000000E+01  1.00800000E+00
  1.00800000E+00  0.00000000E+00  1.60000000E+01  1.00800000E+00  1.00800000E+00
  0.00000000E+00  1.60000000E+01  1.00800000E+00  1.00800000E+00  0.00000000E+00
  1.60000000E+01  1.00800000E+00  1.00800000E+00  0.00000000E+00  1.60000000E+01
  1.00800000E+00  1.00800000E+00  0.00000000E+00  1.60000000E+01  1.00800000E+00
  1.00800000E+00  0.00000000E+00  1.60000000E+01  1.00800000E+00  1.00800000E+00
  0.00000000E+00  1.60000000E+01  1.00800000E+00  1.00800000E+00  0.00000000E+00
  1.60000000E+01  1.00800000E+00  1.00800000E+00  0.00000000E+00  1.60000000E+01
  1.00800000E+00  1.00800000E+00  0.00000000E+00  1.60000000E+01  1.00800000E+00
  1.00800000E+00  0.00000000E+00  1.60000000E+01  1.00800000E+00  1.00800000E+00
  0.00000000E+00  1.60000000E+01  1.00800000E+00  1.00800000E+00  0.00000000E+00
  1.60000000E+01  1.00800000E+00  1.00800000E+00  0.00000000E+00  1.60000000E+01
  1.00800000E+00  1.00800000E+00  0.00000000E+00  1.60000000E+01  1.00800000E+00
  1.00800000E+00  0.00000000E+00  1.60000000E+01  1.00800000E+00  1.00800000E+00
  0.00000000E+00  1.60000000E+01  1.00800000E+00  1.00800000E+00  0.00000000E+00
  1.60000000E+01  1.00800000E+00  1.00800000E+00  0.00000000E+00  1.60000000E+01
  1.00800000E+00  1.00800000E+00  0.00000000E+00  1.60000000E+01  1.00800000E+00
  1.00800000E+00  0.00000000E+00  1.60000000E+01  1.00800000E+00  1.00800000E+00
  0.00000000E+00  1.60000000E+01  1.00800000E+00  1.00800000E+00  0.00000000E+00
  1.60000000E+01  1.00800000E+00  1.00800000E+00  0.00000000E+00  1.60000000E+01
  1.00800000E+00  1.00800000E+00  0.00000000E+00  1.60000000E+01  1.00800000E+00
  1.00800000E+00  0.00000000E+00  1.60000000E+01  1.00800000E+00  1.00800000E+00
  0.00000000E+00  1.60000000E+01  1.00800000E+00  1.00800000E+00  0.00000000E+00
  1.60000000E+01  1.00800000E+00  1.00800000E+00  0.00000000E+00  1.60000000E+01
  1.00800000E+00  1.00800000E+00  0.00000000E+00  1.60000000E+01  1.00800000E+00
  1.00800000E+00  0.00000000E+00  1.60000000E+01  1.00800000E+00  1.00800000E+00
  0.00000000E+00  1.60000000E+01  1.00800000E+00  1.00800000E+00  0.00000000E+00
  1.60000000E+01  1.00800000E+00  1.00800000E+00  0.00000000E+00  1.60000000E+01
  1.00800000E+00  1.00800000E+00  0.00000000E+00  1.60000000E+01  1.00800000E+00
  1.00800000E+00  0.00000000E+00  1.60000000E+01  1.00800000E+00  1.00800000E+00
  0.00000000E+00  1.60000000E+01  1.00800000E+00  1.00800000E+00  0.00000000E+00
  1.60000000E+01  1.00800000E+00  1.00800000E+00  0.00000000E+00  1.60000000E+01
  1.00800000E+00  1.00800000E+00  0.00000000E+00  1.60000000E+01  1.00800000E+00
  1.00800000E+00  0.00000000E+00  1.60000000E+01  1.00800000E+00  1.00800000E+00
  0.00000000E+00  1.60000000E+01  1.00800000E+00  1.00800000E+00  0.00000000E+00
  1.60000000E+01  1.00800000E+00  1.00800000E+00  0.00000000E+00  1.60000000E+01
  1.00800000E+00  1.00800000E+00  0.00000000E+00  1.60000000E+01  1.00800000E+00
  1.00800000E+00  0.00000000E+00  1.60000000E+01  1.00800000E+00  1.00800000E+00
  0.00000000E+00  1.60000000E+01  1.00800000E+00  1.00800000E+00  0.00000000E+00
  1.60000000E+01  1.00800000E+00  1.00800000E+00  0.00000000E+00  1.60000000E+01
  1.00800000E+00  1.00800000E+00  0.00000000E+00  1.60000000E+01  1.00800000E+00
  1.00800000E+00  0.00000000E+00  1.60000000E+01  1.00800000E+00  1.00800000E+00
  0.00000000E+00  1.60000000E+01  1.00800000E+00  1.00800000E+00  0.00000000E+00
  1.60000000E+01  1.00800000E+00  1.00800000E+00  0.00000000E+00  1.60000000E+01
  1.00800000E+00  1.00800000E+00  0.00000000E+00  1.60000000E+01  1.00800000E+00
  1.00800000E+00  0.00000000E+00  1.60000000E+01  1.00800000E+00  1.00800000E+00
  0.00000000E+00  1.60000000E+01  1.00800000E+00  1.00800000E+00  0.00000000E+00
  1.60000000E+01  1.00800000E+00  1.00800000E+00  0.00000000E+00  1.60000000E+01
  1.00800000E+00  1.00800000E+00  0.00000000E+00  1.60000000E+01  1.00800000E+00
  1.00800000E+00  0.00000000E+00  1.60000000E+01  1.00800000E+00  1.00800000E+00
  0.00000000E+00  1.60000000E+01  1.00800000E+00  1.00800000E+00  0.00000000E+00
  1.60000000E+01  1.00800000E+00  1.00800000E+00  0.00000000E+00  1.60000000E+01
  1.00800000E+00  1.00800000E+00  0.00000000E+00  1.60000000E+01  1.00800000E+00
  1.00800000E+00  0.00000000E+00  1.60000000E+01  1.00800000E+00  1.00800000E+00
  0.00000000E+00  1.60000000E+01  1.00800000E+00  1.00800000E+00  0.00000000E+00
  1.60000000E+01  1.00800000E+00  1.00800000E+00  0.00000000E+00  1.60000000E+01
  1.00800000E+00  1.00800000E+00  0.00000000E+00  1.60000000E+01  1.00800000E+00
  1.00800000E+00  0.00000000E+00  1.60000000E+01  1.00800000E+00  1.00800000E+00
  0.00000000E+00  1.60000000E+01  1.00800000E+00  1.00800000E+00  0.00000000E+00
  1.60000000E+01  1.00800000E+00  1.00800000E+00  0.00000000E+00  1.60000000E+01
  1.00800000E+00  1.00800000E+00  0.00000000E+00  1.60000000E+01  1.00800000E+00
  1.00800000E+00  0.00000000E+00  1.60000000E+01  1.00800000E+00  1.00800000E+00
  0.00000000E+00  1.60000000E+01  1.00800000E+00  1.00800000E+00  0.00000000E+00
  1.60000000E+01  1.00800000E+00  1.00800000E+00  0.00000000E+00  1.60000000E+01
  1.00800000E+00  1.00800000E+00  0.00000000E+00  1.60000000E+01  1.00800000E+00
  1.00800000E+00  0.00000000E+00  1.60000000E+01  1.00800000E+00  1.00800000E+00
  0.00000000E+00  1.60000000E+01  1.00800000E+00  1.00800000E+00  0.00000000E+00
  1.60000000E+01  1.00800000E+00  1.00800000E+00  0.00000000E+00  1.60000000E+01
  1.00800000E+00  1.00800000E+00  0.00000000E+00  1.60000000E+01  1.00800000E+00
  1.00800000E+00  0.00000000E+00  1.60000000E+01  1.00800000E+00  1.00800000E+00
  0.00000000E+00  1.60000000E+01  1.00800000E+00  1.00800000E+00  0.00000000E+00
  1.60000000E+01  1.00800000E+00  1.00800000E+00  0.00000000E+00  1.60000000E+01
  1.00800000E+00  1.00800000E+00  0.00000000E+00  1.60000000E+01  1.00800000E+00
  1.00800000E+00  0.00000000E+00  1.60000000E+01  1.00800000E+00  1.00800000E+00
  0.00000000E+00  1.60000000E+01  1.00800000E+00  1.00800000E+00  0.00000000E+00
  1.60000000E+01  1.00800000E+00  1.00800000E+00  0.00000000E+00  1.60000000E+01
  1.00800000E+00  1.00800000E+00  0.00000000E+00  1.60000000E+01  1.00800000E+00
  1.00800000E+00  0.00000000E+00  1.60000000E+01  1.00800000E+00  1.00800000E+00
  0.00000000E+00  1.60000000E+01  1.00800000E+00  1.00800000E+00  0.00000000E+00
  1.60000000E+01  1.00800000E+00  1.00800000E+00  0.00000000E+00  1.60000000E+01
  1.00800000E+00  1.00800000E+00  0.00000000E+00  1.60000000E+01  1.00800000E+00
  1.00800000E+00  0.00000000E+00  1.60000000E+01  1.00800000E+00  1.00800000E+00
  0.00000000E+00  1.60000000E+01  1.00800000E+00  1.00800000E+00  0.00000000E+00
  1.60000000E+01  1.00800000E+00  1.00800000E+00  0.00000000E+00  1.60000000E+01
  1.00800000E+00  1.00800000E+00  0.00000000E+00  1.60000000E+01  1.00800000E+00
  1.00800000E+00  0.00000000E+00  1.60000000E+01  1.00800000E+00  1.00800000E+00
  0.00000000E+00  1.60000000E+01  1.00800000E+00  1.00800000E+00  0.00000000E+00
  1.60000000E+01  1.00800000E+00  1.00800000E+00  0.00000000E+00  1.60000000E+01
  1.00800000E+00  1.00800000E+00  0.00000000E+00  1.60000000E+01  1.00800000E+00
  1.00800000E+00  0.00000000E+00  1.60000000E+01  1.00800000E+00  1.00800000E+00
  0.00000000E+00  1.60000000E+01  1.00800000E+00  1.00800000E+00  0.00000000E+00
  1.60000000E+01  1.00800000E+00  1.00800000E+00  0.00000000E+00  1.60000000E+01
  1.00800000E+00  1.00800000E+00  0.00000000E+00  1.60000000E+01  1.00800000E+00
  1.00800000E+00  0.00000000E+00  1.60000000E+01  1.00800000E+00  1.00800000E+00
  0.00000000E+00  1.60000000E+01  1.00800000E+00  1.00800000E+00  0.00000000E+00
  1.60000000E+01  1.00800000E+00  1.00800000E+00  0.00000000E+00  1.60000000E+01
  1.00800000E+00  1.00800000E+00  0.00000000E+00  1.60000000E+01  1.00800000E+00
  1.00800000E+00  0.00000000E+00  1.60000000E+01  1.00800000E+00  1.00800000E+00
  0.00000000E+00  1.60000000E+01  1.00800000E+00  1.00800000E+00  0.00000000E+00
  1.60000000E+01  1.00800000E+00  1.00800000E+00  0.00000000E+00  1.60000000E+01
  1.00800000E+00  1.00800000E+00  0.00000000E+00  1.60000000E+01  1.00800000E+00
  1.00800000E+00  0.00000000E+00  1.60000000E+01  1.00800000E+00  1.00800000E+00
  0.00000000E+00  1.60000000E+01  1.00800000E+00  1.00800000E+00  0.00000000E+00
  1.60000000E+01  1.00800000E+00  1.00800000E+00  0.00000000E+00  1.60000000E+01
  1.00800000E+00  1.00800000E+00  0.00000000E+00  1.60000000E+01  1.00800000E+00
  1.00800000E+00  0.00000000E+00  1.60000000E+01  1.00800000E+00  1.00800000E+00
  0.00000000E+00  1.60000000E+01  1.00800000E+00  1.00800000E+00  0.00000000E+00
  1.60000000E+01  1.00800000E+00  1.00800000E+00  0.00000000E+00  1.60000000E+01
  1.00800000E+00  1.00800000E+00  0.00000000E+00  1.60000000E+01  1.00800000E+00
  1.00800000E+00  0.00000000E+00  1.60000000E+01  1.00800000E+00  1.00800000E+00
  0.00000000E+00  1.60000000E+01  1.00800000E+00  1.00800000E+00  0.00000000E+00
  1.60000000E+01  1.00800000E+00  1.00800000E+00  0.00000000E+00  1.60000000E+01
  1.00800000E+00  1.00800000E+00  0.00000000E+00  1.60000000E+01  1.00800000E+00
  1.00800000E+00  0.00000000E+00  1.60000000E+01  1.00800000E+00  1.00800000E+00
  0.00000000E+00  1.60000000E+01  1.00800000E+00  1.00800000E+00  0.00000000E+00
  1.60000000E+01  1.00800000E+00  1.00800000E+00  0.00000000E+00  1.60000000E+01
  1.00800000E+00  1.00800000E+00  0.00000000E+00  1.60000000E+01  1.00800000E+00
  1.00800000E+00  0.00000000E+00  1.60000000E+01  1.00800000E+00  1.00800000E+00
  0.00000000E+00  1.60000000E+01  1.00800000E+00  1.00800000E+00  0.00000000E+00
  1.60000000E+01  1.00800000E+00  1.00800000E+00  0.00000000E+00  1.60000000E+01
  1.00800000E+00  1.00800000E+00  0.00000000E+00  1.60000000E+01  1.00800000E+00
  1.00800000E+00  0.00000000E+00  1.60000000E+01  1.00800000E+00  1.00800000E+00
  0.00000000E+00  1.60000000E+01  1.00800000E+00  1.00800000E+00  0.00000000E+00
  1.60000000E+01  1.00800000E+00  1.00800000E+00  0.00000000E+00  1.60000000E+01
  1.00800000E+00  1.00800000E+00  0.00000000E+00  1.60000000E+01  1.00800000E+00
  1.00800000E+00  0.00000000E+00  1.60000000E+01  1.00800000E+00  1.00800000E+00
  0.00000000E+00  1.60000000E+01  1.00800000E+00  1.00800000E+00  0.00000000E+00
  1.60000000E+01  1.00800000E+00  1.00800000E+00  0.00000000E+00  1.60000000E+01
  1.00800000E+00  1.00800000E+00  0.00000000E+00  1.60000000E+01  1.00800000E+00
  1.00800000E+00  0.00000000E+00  1.60000000E+01  1.00800000E+00  1.00800000E+00
  0.00000000E+00  1.60000000E+01  1.00800000E+00  1.00800000E+00  0.00000000E+00
  1.60000000E+01  1.00800000E+00  1.00800000E+00  0.00000000E+00  1.60000000E+01
  1.00800000E+00  1.00800000E+00  0.00000000E+00  1.60000000E+01  1.00800000E+00
  1.00800000E+00  0.00000000E+00  1.60000000E+01  1.00800000E+00  1.00800000E+00
  0.00000000E+00  1.60000000E+01  1.00800000E+00  1.00800000E+00  0.00000000E+00
  1.60000000E+01  1.00800000E+00  1.00800000E+00  0.00000000E+00  1.60000000E+01
  1.00800000E+00  1.00800000E+00  0.00000000E+00  1.60000000E+01  1.00800000E+00
  1.00800000E+00  0.00000000E+00  1.60000000E+01  1.00800000E+00  1.00800000E+00
  0.00000000E+00  1.60000000E+01  1.00800000E+00  1.00800000E+00  0.00000000E+00
  1.60000000E+01  1.00800000E+00  1.00800000E+00  0.00000000E+00  1.60000000E+01
  1.00800000E+00  1.00800000E+00  0.00000000E+00  1.60000000E+01  1.00800000E+00
  1.00800000E+00  0.00000000E+00  1.60000000E+01  1.00800000E+00  1.00800000E+00
  0.00000000E+00  1.60000000E+01  1.00800000E+00  1.00800000E+00  0.00000000E+00
  1.60000000E+01  1.00800000E+00  1.00800000E+00  0.00000000E+00  1.60000000E+01
  1.00800000E+00  1.00800000E+00  0.00000000E+00  1.60000000E+01  1.00800000E+00
  1.00800000E+00  0.00000000E+00  1.60000000E+01  1.00800000E+00  1.00800000E+00
  0.00000000E+00  1.60000000E+01  1.00800000E+00  1.00800000E+00  0.00000000E+00
  1.60000000E+01  1.00800000E+00  1.00800000E+00  0.00000000E+00  1.60000000E+01
  1.00800000E+00  1.00800000E+00  0.00000000E+00  1.60000000E+01  1.00800000E+00
  1.00800000E+00  0.00000000E+00  1.60000000E+01  1.00800000E+00  1.00800000E+00
  0.00000000E+00  1.60000000E+01  1.00800000E+00  1.00800000E+00  0.00000000E+00
  1.60000000E+01  1.00800000E+00  1.00800000E+00  0.00000000E+00  1.60000000E+01
  1.00800000E+00  1.00800000E+00  0.00000000E+00  1.60000000E+01  1.00800000E+00
  1.00800000E+00  0.00000000E+00  1.60000000E+01  1.00800000E+00  1.00800000E+00
  0.00000000E+00  1.60000000E+01  1.00800000E+00  1.00800000E+00  0.00000000E+00
  1.60000000E+01  1.00800000E+00  1.00800000E+00  0.00000000E+00  1.60000000E+01
  1.00800000E+00  1.00800000E+00  0.00000000E+00  1.60000000E+01  1.00800000E+00
  1.00800000E+00  0.00000000E+00  1.60000000E+01  1.00800000E+00  1.00800000E+00
  0.00000000E+00  1.60000000E+01  1.00800000E+00  1.00800000E+00  0.00000000E+00
  1.60000000E+01  1.00800000E+00  1.00800000E+00  0.00000000E+00  1.60000000E+01
  1.00800000E+00  1.00800000E+00  0.00000000E+00  1.60000000E+01  1.00800000E+00
  1.00800000E+00  0.00000000E+00  1.60000000E+01  1.00800000E+00  1.00800000E+00
  0.00000000E+00  1.60000000E+01  1.00800000E+00  1.00800000E+00  0.00000000E+00
  1.60000000E+01  1.00800000E+00  1.00800000E+00  0.00000000E+00  1.60000000E+01
  1.00800000E+00  1.00800000E+00  0.00000000E+00  1.60000000E+01  1.00800000E+00
  1.00800000E+00  0.00000000E+00  1.60000000E+01  1.00800000E+00  1.00800000E+00
  0.00000000E+00  1.60000000E+01  1.00800000E+00  1.00800000E+00  0.00000000E+00
  1.60000000E+01  1.00800000E+00  1.00800000E+00  0.00000000E+00  1.60000000E+01
  1.00800000E+00  1.00800000E+00  0.00000000E+00  1.60000000E+01  1.00800000E+00
  1.00800000E+00  0.00000000E+00  1.60000000E+01  1.00800000E+00  1.00800000E+00
  0.00000000E+00  1.60000000E+01  1.00800000E+00  1.00800000E+00  0.00000000E+00
  1.60000000E+01  1.00800000E+00  1.00800000E+00  0.00000000E+00  1.60000000E+01
  1.00800000E+00  1.00800000E+00  0.00000000E+00  1.60000000E+01  1.00800000E+00
  1.00800000E+00  0.00000000E+00  1.60000000E+01  1.00800000E+00  1.00800000E+00
  0.00000000E+00  1.60000000E+01  1.00800000E+00  1.00800000E+00  0.00000000E+00
  1.60000000E+01  1.00800000E+00  1.00800000E+00  0.00000000E+00  1.60000000E+01
  1.00800000E+00  1.00800000E+00  0.00000000E+00  1.60000000E+01  1.00800000E+00
  1.00800000E+00  0.00000000E+00  1.60000000E+01  1.00800000E+00  1.00800000E+00
  0.00000000E+00  1.60000000E+01  1.00800000E+00  1.00800000E+00  0.00000000E+00
  1.60000000E+01  1.00800000E+00  1.00800000E+00  0.00000000E+00  1.60000000E+01
  1.00800000E+00  1.00800000E+00  0.00000000E+00  1.60000000E+01  1.00800000E+00
  1.00800000E+00  0.00000000E+00  1.60000000E+01  1.00800000E+00  1.00800000E+00
  0.00000000E+00  1.60000000E+01  1.00800000E+00  1.00800000E+00  0.00000000E+00
  1.60000000E+01  1.00800000E+00  1.00800000E+00  0.00000000E+00  1.60000000E+01
  1.00800000E+00  1.00800000E+00  0.00000000E+00  1.60000000E+01  1.00800000E+00
  1.00800000E+00  0.00000000E+00  1.60000000E+01  1.00800000E+00  1.00800000E+00
  0.00000000E+00  1.60000000E+01  1.00800000E+00  1.00800000E+00  0.00000000E+00
  1.60000000E+01  1.00800000E+00  1.00800000E+00  0.00000000E+00  1.60000000E+01
  1.00800000E+00  1.00800000E+00  0.00000000E+00  1.60000000E+01  1.00800000E+00
  1.00800000E+00  0.00000000E+00  1.60000000E+01  1.00800000E+00  1.00800000E+00
  0.00000000E+00  1.60000000E+01  1.00800000E+00  1.00800000E+00  0.00000000E+00
  1.60000000E+01  1.00800000E+00  1.00800000E+00  0.00000000E+00  1.60000000E+01
  1.00800000E+00  1.00800000E+00  0.00000000E+00  1.60000000E+01  1.00800000E+00
  1.00800000E+00  0.00000000E+00  1.60000000E+01  1.00800000E+00  1.00800000E+00
  0.00000000E+00  1.60000000E+01  1.00800000E+00  1.00800000E+00  0.00000000E+00
  1.60000000E+01  1.00800000E+00  1.00800000E+00  0.00000000E+00  1.60000000E+01
  1.00800000E+00  1.00800000E+00  0.00000000E+00  1.60000000E+01  1.00800000E+00
  1.00800000E+00  0.00000000E+00  1.60000000E+01  1.00800000E+00  1.00800000E+00
  0.00000000E+00  1.60000000E+01  1.00800000E+00  1.00800000E+00  0.00000000E+00
  1.60000000E+01  1.00800000E+00  1.00800000E+00  0.00000000E+00  1.60000000E+01
  1.00800000E+00  1.00800000E+00  0.00000000E+00  1.60000000E+01  1.00800000E+00
  1.00800000E+00  0.00000000E+00  1.60000000E+01  1.00800000E+00  1.00800000E+00
  0.00000000E+00  1.60000000E+01  1.00800000E+00  1.00800000E+00  0.00000000E+00
  1.60000000E+01  1.00800000E+00  1.00800000E+00  0.00000000E+00  1.60000000E+01
  1.00800000E+00  1.00800000E+00  0.00000000E+00  1.60000000E+01  1.00800000E+00
  1.00800000E+00  0.00000000E+00  1.60000000E+01  1.00800000E+00  1.00800000E+00
  0.00000000E+00  1.60000000E+01  1.00800000E+00  1.00800000E+00  0.00000000E+00
  1.60000000E+01  1.00800000E+00  1.00800000E+00  0.00000000E+00  1.60000000E+01
  1.00800000E+00  1.00800000E+00  0.00000000E+00  1.60000000E+01  1.00800000E+00
  1.00800000E+00  0.00000000E+00  1.60000000E+01  1.00800000E+00  1.00800000E+00
  0.00000000E+00  1.60000000E+01  1.00800000E+00  1.00800000E+00  0.00000000E+00
  1.60000000E+01  1.00800000E+00  1.00800000E+00  0.00000000E+00  1.60000000E+01
  1.00800000E+00  1.00800000E+00  0.00000000E+00  1.60000000E+01  1.00800000E+00
  1.00800000E+00  0.00000000E+00  1.60000000E+01  1.00800000E+00  1.00800000E+00
  0.00000000E+00  1.60000000E+01  1.00800000E+00  1.00800000E+00  0.00000000E+00
  1.60000000E+01  1.00800000E+00  1.00800000E+00  0.00000000E+00  1.60000000E+01
  1.00800000E+00  1.00800000E+00  0.00000000E+00  1.60000000E+01  1.00800000E+00
  1.00800000E+00  0.00000000E+00  1.60000000E+01  1.00800000E+00  1.00800000E+00
  0.00000000E+00  1.60000000E+01  1.00800000E+00  1.00800000E+00  0.00000000E+00
  1.60000000E+01  1.00800000E+00  1.00800000E+00  0.00000000E+00  1.60000000E+01
  1.00800000E+00  1.00800000E+00  0.00000000E+00  1.60000000E+01  1.00800000E+00
  1.00800000E+00  0.00000000E+00  1.60000000E+01  1.00800000E+00  1.00800000E+00
  0.00000000E+00  1.60000000E+01  1.00800000E+00  1.00800000E+00  0.00000000E+00
  1.60000000E+01  1.00800000E+00  1.00800000E+00  0.00000000E+00  1.60000000E+01
  1.00800000E+00  1.00800000E+00  0.00000000E+00  1.60000000E+01  1.00800000E+00
  1.00800000E+00  0.00000000E+00  1.60000000E+01  1.00800000E+00  1.00800000E+00
  0.00000000E+00  1.60000000E+01  1.00800000E+00  1.00800000E+00  0.00000000E+00
  1.60000000E+01  1.00800000E+00  1.00800000E+00  0.00000000E+00  1.60000000E+01
  1.00800000E+00  1.00800000E+00  0.00000000E+00  1.60000000E+01  1.00800000E+00
  1.00800000E+00  0.00000000E+00  1.60000000E+01  1.00800000E+00  1.00800000E+00
  0.00000000E+00  1.60000000E+01  1.00800000E+00  1.00800000E+00  0.00000000E+00
  1.60000000E+01  1.00800000E+00  1.00800000E+00  0.00000000E+00  1.60000000E+01
  1.00800000E+00  1.00800000E+00  0.00000000E+00  1.60000000E+01  1.00800000E+00
  1.00800000E+00  0.00000000E+00  1.60000000E+01  1.00800000E+00  1.00800000E+00
  0.00000000E+00  1.60000000E+01  1.00800000E+00  1.00800000E+00  0.00000000E+00
  1.60000000E+01  1.00800000E+00  1.00800000E+00  0.00000000E+00  1.60000000E+01
  1.00800000E+00  1.00800000E+00  0.00000000E+00  1.60000000E+01  1.00800000E+00
  1.00800000E+00  0.00000000E+00  1.60000000E+01  1.00800000E+00  1.00800000E+00
  0.00000000E+00  1.60000000E+01  1.00800000E+00  1.00800000E+00  0.00000000E+00
  1.60000000E+01  1.00800000E+00  1.00800000E+00  0.00000000E+00  1.60000000E+01
  1.00800000E+00  1.00800000E+00  0.00000000E+00  1.60000000E+01  1.00800000E+00
  1.00800000E+00  0.00000000E+00  1.60000000E+01  1.00800000E+00  1.00800000E+00
  0.00000000E+00  1.60000000E+01  1.00800000E+00  1.00800000E+00  0.00000000E+00
  1.60000000E+01  1.00800000E+00  1.00800000E+00  0.00000000E+00  1.60000000E+01
  1.00800000E+00  1.00800000E+00  0.00000000E+00  1.60000000E+01  1.00800000E+00
  1.00800000E+00  0.00000000E+00  1.60000000E+01  1.00800000E+00  1.00800000E+00
  0.00000000E+00  1.60000000E+01  1.00800000E+00  1.00800000E+00  0.00000000E+00
  1.60000000E+01  1.00800000E+00  1.00800000E+00  0.00000000E+00  1.60000000E+01
  1.00800000E+00  1.00800000E+00  0.00000000E+00  1.60000000E+01  1.00800000E+00
  1.00800000E+00  0.00000000E+00  1.60000000E+01  1.00800000E+00  1.00800000E+00
  0.00000000E+00  1.60000000E+01  1.00800000E+00  1.00800000E+00  0.00000000E+00
  1.60000000E+01  1.00800000E+00  1.00800000E+00  0.00000000E+00  1.60000000E+01
  1.00800000E+00  1.00800000E+00  0.00000000E+00  1.60000000E+01  1.00800000E+00
  1.00800000E+00  0.00000000E+00  1.60000000E+01  1.00800000E+00  1.00800000E+00
  0.00000000E+00  1.60000000E+01  1.00800000E+00  1.00800000E+00  0.00000000E+00
  1.60000000E+01  1.00800000E+00  1.00800000E+00  0.00000000E+00  1.60000000E+01
  1.00800000E+00  1.00800000E+00  0.00000000E+00  1.60000000E+01  1.00800000E+00
  1.00800000E+00  0.00000000E+00  1.60000000E+01  1.00800000E+00  1.00800000E+00
  0.00000000E+00  1.60000000E+01  1.00800000E+00  1.00800000E+00  0.00000000E+00
  1.60000000E+01  1.00800000E+00  1.00800000E+00  0.00000000E+00  1.60000000E+01
  1.00800000E+00  1.00800000E+00  0.00000000E+00  1.60000000E+01  1.00800000E+00
  1.00800000E+00  0.00000000E+00  1.60000000E+01  1.00800000E+00  1.00800000E+00
  0.00000000E+00  1.60000000E+01  1.00800000E+00  1.00800000E+00  0.00000000E+00
  1.60000000E+01  1.00800000E+00  1.00800000E+00  0.00000000E+00  1.60000000E+01
  1.00800000E+00  1.00800000E+00  0.00000000E+00  1.60000000E+01  1.00800000E+00
  1.00800000E+00  0.00000000E+00  1.60000000E+01  1.00800000E+00  1.00800000E+00
  0.00000000E+00  1.60000000E+01  1.00800000E+00  1.00800000E+00  0.00000000E+00
  1.60000000E+01  1.00800000E+00  1.00800000E+00  0.00000000E+00  1.60000000E+01
  1.00800000E+00  1.00800000E+00  0.00000000E+00  1.60000000E+01  1.00800000E+00
  1.00800000E+00  0.00000000E+00  1.60000000E+01  1.00800000E+00  1.00800000E+00
  0.00000000E+00  1.60000000E+01  1.00800000E+00  1.00800000E+00  0.00000000E+00
  1.60000000E+01  1.00800000E+00  1.00800000E+00  0.00000000E+00  1.60000000E+01
  1.00800000E+00  1.00800000E+00  0.00000000E+00  1.60000000E+01  1.00800000E+00
  1.00800000E+00  0.00000000E+00  1.60000000E+01  1.00800000E+00  1.00800000E+00
  0.00000000E+00  1.60000000E+01  1.00800000E+00  1.00800000E+00  0.00000000E+00
  1.60000000E+01  1.00800000E+00  1.00800000E+00  0.00000000E+00  1.60000000E+01
  1.00800000E+00  1.00800000E+00  0.00000000E+00  1.60000000E+01  1.00800000E+00
  1.00800000E+00  0.00000000E+00  1.60000000E+01  1.00800000E+00  1.00800000E+00
  0.00000000E+00  1.60000000E+01  1.00800000E+00  1.00800000E+00  0.00000000E+00
  1.60000000E+01  1.00800000E+00  1.00800000E+00  0.00000000E+00  1.60000000E+01
  1.00800000E+00  1.00800000E+00  0.00000000E+00  1.60000000E+01  1.00800000E+00
  1.00800000E+00  0.00000000E+00  1.60000000E+01  1.00800000E+00  1.00800000E+00
  0.00000000E+00  1.60000000E+01  1.00800000E+00  1.00800000E+00  0.00000000E+00
  1.60000000E+01  1.00800000E+00  1.00800000E+00  0.00000000E+00  1.60000000E+01
  1.00800000E+00  1.00800000E+00  0.00000000E+00  1.60000000E+01  1.00800000E+00
  1.00800000E+00  0.00000000E+00  1.60000000E+01  1.00800000E+00  1.00800000E+00
  0.00000000E+00  1.60000000E+01  1.00800000E+00  1.00800000E+00  0.00000000E+00
  1.60000000E+01  1.00800000E+00  1.00800000E+00  0.00000000E+00  1.60000000E+01
  1.00800000E+00  1.00800000E+00  0.00000000E+00  1.60000000E+01  1.00800000E+00
  1.00800000E+00  0.00000000E+00  1.60000000E+01  1.00800000E+00  1.00800000E+00
  0.00000000E+00  1.60000000E+01  1.00800000E+00  1.00800000E+00  0.00000000E+00
  1.60000000E+01  1.00800000E+00  1.00800000E+00  0.00000000E+00  1.60000000E+01
  1.00800000E+00  1.00800000E+00  0.00000000E+00  1.60000000E+01  1.00800000E+00
  1.00800000E+00  0.00000000E+00  1.60000000E+01  1.00800000E+00  1.00800000E+00
  0.00000000E+00  1.60000000E+01  1.00800000E+00  1.00800000E+00  0.00000000E+00
  1.60000000E+01  1.00800000E+00  1.00800000E+00  0.00000000E+00  1.60000000E+01
  1.00800000E+00  1.00800000E+00  0.00000000E+00  1.60000000E+01  1.00800000E+00
  1.00800000E+00  0.00000000E+00  1.60000000E+01  1.00800000E+00  1.00800000E+00
  0.00000000E+00  1.60000000E+01  1.00800000E+00  1.00800000E+00  0.00000000E+00
  1.60000000E+01  1.00800000E+00  1.00800000E+00  0.00000000E+00  1.60000000E+01
  1.00800000E+00  1.00800000E+00  0.00000000E+00  1.60000000E+01  1.00800000E+00
  1.00800000E+00  0.00000000E+00  1.60000000E+01  1.00800000E+00  1.00800000E+00
  0.00000000E+00  1.60000000E+01  1.00800000E+00  1.00800000E+00  0.00000000E+00
  1.60000000E+01  1.00800000E+00  1.00800000E+00  0.00000000E+00  1.60000000E+01
  1.00800000E+00  1.00800000E+00  0.00000000E+00  1.60000000E+01  1.00800000E+00
  1.00800000E+00  0.00000000E+00  1.60000000E+01  1.00800000E+00  1.00800000E+00
  0.00000000E+00  1.60000000E+01  1.00800000E+00  1.00800000E+00  0.00000000E+00
  1.60000000E+01  1.00800000E+00  1.00800000E+00  0.00000000E+00  1.60000000E+01
  1.00800000E+00  1.00800000E+00  0.00000000E+00  1.60000000E+01  1.00800000E+00
  1.00800000E+00  0.00000000E+00  1.60000000E+01  1.00800000E+00  1.00800000E+00
  0.00000000E+00  1.60000000E+01  1.00800000E+00  1.00800000E+00  0.00000000E+00
  1.60000000E+01  1.00800000E+00  1.00800000E+00  0.00000000E+00  1.60000000E+01
  1.00800000E+00  1.00800000E+00  0.00000000E+00  1.60000000E+01  1.00800000E+00
  1.00800000E+00  0.00000000E+00  1.60000000E+01  1.00800000E+00  1.00800000E+00
  0.00000000E+00  1.60000000E+01  1.00800000E+00  1.00800000E+00  0.00000000E+00
  1.60000000E+01  1.00800000E+00  1.00800000E+00  0.00000000E+00  1.60000000E+01
  1.00800000E+00  1.00800000E+00  0.00000000E+00  1.60000000E+01  1.00800000E+00
  1.00800000E+00  0.00000000E+00  1.60000000E+01  1.00800000E+00  1.00800000E+00
  0.00000000E+00  1.60000000E+01  1.00800000E+00  1.00800000E+00  0.00000000E+00
  1.60000000E+01  1.00800000E+00  1.00800000E+00  0.00000000E+00  1.60000000E+01
  1.00800000E+00  1.00800000E+00  0.00000000E+00  1.60000000E+01  1.00800000E+00
  1.00800000E+00  0.00000000E+00  1.60000000E+01  1.00800000E+00  1.00800000E+00
  0.00000000E+00  1.60000000E+01  1.00800000E+00  1.00800000E+00  0.00000000E+00
  1.60000000E+01  1.00800000E+00  1.00800000E+00  0.00000000E+00  1.60000000E+01
  1.00800000E+00  1.00800000E+00  0.00000000E+00  1.60000000E+01  1.00800000E+00
  1.00800000E+00  0.00000000E+00  1.60000000E+01  1.00800000E+00  1.00800000E+00
  0.00000000E+00  1.60000000E+01  1.00800000E+00  1.00800000E+00  0.00000000E+00
  1.60000000E+01  1.00800000E+00  1.00800000E+00  0.00000000E+00  1.60000000E+01
  1.00800000E+00  1.00800000E+00  0.00000000E+00  1.60000000E+01  1.00800000E+00
  1.00800000E+00  0.00000000E+00  1.60000000E+01  1.00800000E+00  1.00800000E+00
  0.00000000E+00  1.60000000E+01  1.00800000E+00  1.00800000E+00  0.00000000E+00
  1.60000000E+01  1.00800000E+00  1.00800000E+00  0.00000000E+00  1.60000000E+01
  1.00800000E+00  1.00800000E+00  0.00000000E+00  1.60000000E+01  1.00800000E+00
  1.00800000E+00  0.00000000E+00  1.60000000E+01  1.00800000E+00  1.00800000E+00
  0.00000000E+00  1.60000000E+01  1.00800000E+00  1.00800000E+00  0.00000000E+00
  1.60000000E+01  1.00800000E+00  1.00800000E+00  0.00000000E+00  1.60000000E+01
  1.00800000E+00  1.00800000E+00  0.00000000E+00  1.60000000E+01  1.00800000E+00
  1.00800000E+00  0.00000000E+00  1.60000000E+01  1.00800000E+00  1.00800000E+00
  0.00000000E+00  1.60000000E+01  1.00800000E+00  1.00800000E+00  0.00000000E+00
  1.60000000E+01  1.00800000E+00  1.00800000E+00  0.00000000E+00  1.60000000E+01
  1.00800000E+00  1.00800000E+00  0.00000000E+00  1.60000000E+01  1.00800000E+00
  1.00800000E+00  0.00000000E+00  1.60000000E+01  1.00800000E+00  1.00800000E+00
  0.00000000E+00  1.60000000E+01  1.00800000E+00  1.00800000E+00  0.00000000E+00
  1.60000000E+01  1.00800000E+00  1.00800000E+00  0.00000000E+00  1.60000000E+01
  1.00800000E+00  1.00800000E+00  0.00000000E+00  1.60000000E+01  1.00800000E+00
  1.00800000E+00  0.00000000E+00  1.60000000E+01  1.00800000E+00  1.00800000E+00
  0.00000000E+00  1.60000000E+01  1.00800000E+00  1.00800000E+00  0.00000000E+00
  1.60000000E+01  1.00800000E+00  1.00800000E+00  0.00000000E+00  1.60000000E+01
  1.00800000E+00  1.00800000E+00  0.00000000E+00  1.60000000E+01  1.00800000E+00
  1.00800000E+00  0.00000000E+00  1.60000000E+01  1.00800000E+00  1.00800000E+00
  0.00000000E+00  1.60000000E+01  1.00800000E+00  1.00800000E+00  0.00000000E+00
  1.60000000E+01  1.00800000E+00  1.00800000E+00  0.00000000E+00  1.60000000E+01
  1.00800000E+00  1.00800000E+00  0.00000000E+00  1.60000000E+01  1.00800000E+00
  1.00800000E+00  0.00000000E+00  1.60000000E+01  1.00800000E+00  1.00800000E+00
  0.00000000E+00  1.60000000E+01  1.00800000E+00  1.00800000E+00  0.00000000E+00
  1.60000000E+01  1.00800000E+00  1.00800000E+00  0.00000000E+00  1.60000000E+01
  1.00800000E+00  1.00800000E+00  0.00000000E+00  1.60000000E+01  1.00800000E+00
  1.00800000E+00  0.00000000E+00  1.60000000E+01  1.00800000E+00  1.00800000E+00
  0.00000000E+00  1.60000000E+01  1.00800000E+00  1.00800000E+00  0.00000000E+00
  1.60000000E+01  1.00800000E+00  1.00800000E+00  0.00000000E+00  1.60000000E+01
  1.00800000E+00  1.00800000E+00  0.00000000E+00  1.60000000E+01  1.00800000E+00
  1.00800000E+00  0.00000000E+00  1.60000000E+01  1.00800000E+00  1.00800000E+00
  0.00000000E+00  1.60000000E+01  1.00800000E+00  1.00800000E+00  0.00000000E+00
  1.60000000E+01  1.00800000E+00  1.00800000E+00  0.00000000E+00  1.60000000E+01
  1.00800000E+00  1.00800000E+00  0.00000000E+00  1.60000000E+01  1.00800000E+00
  1.00800000E+00  0.00000000E+00  1.60000000E+01  1.00800000E+00  1.00800000E+00
  0.00000000E+00  1.60000000E+01  1.00800000E+00  1.00800000E+00  0.00000000E+00
  1.60000000E+01  1.00800000E+00  1.00800000E+00  0.00000000E+00  1.60000000E+01
  1.00800000E+00  1.00800000E+00  0.00000000E+00  1.60000000E+01  1.00800000E+00
  1.00800000E+00  0.00000000E+00  1.60000000E+01  1.00800000E+00  1.00800000E+00
  0.00000000E+00  1.60000000E+01  1.00800000E+00  1.00800000E+00  0.00000000E+00
  1.60000000E+01  1.00800000E+00  1.00800000E+00  0.00000000E+00  1.60000000E+01
  1.00800000E+00  1.00800000E+00  0.00000000E+00  1.60000000E+01  1.00800000E+00
  1.00800000E+00  0.00000000E+00  1.60000000E+01  1.00800000E+00  1.00800000E+00
  0.00000000E+00  1.60000000E+01  1.00800000E+00  1.00800000E+00  0.00000000E+00
  1.60000000E+01  1.00800000E+00  1.00800000E+00  0.00000000E+00  1.60000000E+01
  1.00800000E+00  1.00800000E+00  0.00000000E+00  1.60000000E+01  1.00800000E+00
  1.00800000E+00  0.00000000E+00  1.60000000E+01  1.00800000E+00  1.00800000E+00
  0.00000000E+00  1.60000000E+01  1.00800000E+00  1.00800000E+00  0.00000000E+00
  1.60000000E+01  1.00800000E+00  1.00800000E+00  0.00000000E+00  1.60000000E+01
  1.00800000E+00  1.00800000E+00  0.00000000E+00  1.60000000E+01  1.00800000E+00
  1.00800000E+00  0.00000000E+00  1.60000000E+01  1.00800000E+00  1.00800000E+00
  0.00000000E+00  1.60000000E+01  1.00800000E+00  1.00800000E+00  0.00000000E+00
  1.60000000E+01  1.00800000E+00  1.00800000E+00  0.00000000E+00  1.60000000E+01
  1.00800000E+00  1.00800000E+00  0.00000000E+00  1.60000000E+01  1.00800000E+00
  1.00800000E+00  0.00000000E+00  1.60000000E+01  1.00800000E+00  1.00800000E+00
  0.00000000E+00  1.60000000E+01  1.00800000E+00  1.00800000E+00  0.00000000E+00
  1.60000000E+01  1.00800000E+00  1.00800000E+00  0.00000000E+00  1.60000000E+01
  1.00800000E+00  1.00800000E+00  0.00000000E+00  1.60000000E+01  1.00800000E+00
  1.00800000E+00  0.00000000E+00  1.60000000E+01  1.00800000E+00  1.00800000E+00
  0.00000000E+00  1.60000000E+01  1.00800000E+00  1.00800000E+00  0.00000000E+00
  1.60000000E+01  1.00800000E+00  1.00800000E+00  0.00000000E+00  1.60000000E+01
  1.00800000E+00  1.00800000E+00  0.00000000E+00  1.60000000E+01  1.00800000E+00
  1.00800000E+00  0.00000000E+00  1.60000000E+01  1.00800000E+00  1.00800000E+00
  0.00000000E+00  1.60000000E+01  1.00800000E+00  1.00800000E+00  0.00000000E+00
  1.60000000E+01  1.00800000E+00  1.00800000E+00  0.00000000E+00  1.60000000E+01
  1.00800000E+00  1.00800000E+00  0.00000000E+00  1.60000000E+01  1.00800000E+00
  1.00800000E+00  0.00000000E+00  1.60000000E+01  1.00800000E+00  1.00800000E+00
  0.00000000E+00  1.60000000E+01  1.00800000E+00  1.00800000E+00  0.00000000E+00
  1.60000000E+01  1.00800000E+00  1.00800000E+00  0.00000000E+00  1.60000000E+01
  1.00800000E+00  1.00800000E+00  0.00000000E+00  1.60000000E+01  1.00800000E+00
  1.00800000E+00  0.00000000E+00  1.60000000E+01  1.00800000E+00  1.00800000E+00
  0.00000000E+00  1.60000000E+01  1.00800000E+00  1.00800000E+00  0.00000000E+00
  1.60000000E+01  1.00800000E+00  1.00800000E+00  0.00000000E+00  1.60000000E+01
  1.00800000E+00  1.00800000E+00  0.00000000E+00  1.60000000E+01  1.00800000E+00
  1.00800000E+00  0.00000000E+00  1.60000000E+01  1.00800000E+00  1.00800000E+00
  0.00000000E+00  1.60000000E+01  1.00800000E+00  1.00800000E+00  0.00000000E+00
  1.60000000E+01  1.00800000E+00  1.00800000E+00  0.00000000E+00  1.60000000E+01
  1.00800000E+00  1.00800000E+00  0.00000000E+00  1.60000000E+01  1.00800000E+00
  1.00800000E+00  0.00000000E+00  1.60000000E+01  1.00800000E+00  1.00800000E+00
  0.00000000E+00  1.60000000E+01  1.00800000E+00  1.00800000E+00  0.00000000E+00
  1.60000000E+01  1.00800000E+00  1.00800000E+00  0.00000000E+00  1.60000000E+01
  1.00800000E+00  1.00800000E+00  0.00000000E+00  1.60000000E+01  1.00800000E+00
  1.00800000E+00  0.00000000E+00  1.60000000E+01  1.00800000E+00  1.00800000E+00
  0.00000000E+00  1.60000000E+01  1.00800000E+00  1.00800000E+00  0.00000000E+00
  1.60000000E+01  1.00800000E+00  1.00800000E+00  0.00000000E+00  1.60000000E+01
  1.00800000E+00  1.00800000E+00  0.00000000E+00  1.60000000E+01  1.00800000E+00
  1.00800000E+00  0.00000000E+00  1.60000000E+01  1.00800000E+00  1.00800000E+00
  0.00000000E+00  1.60000000E+01  1.00800000E+00  1.00800000E+00  0.00000000E+00
  1.60000000E+01  1.00800000E+00  1.00800000E+00  0.00000000E+00  1.60000000E+01
  1.00800000E+00  1.00800000E+00  0.00000000E+00  1.60000000E+01  1.00800000E+00
  1.00800000E+00  0.00000000E+00  1.60000000E+01  1.00800000E+00  1.00800000E+00
  0.00000000E+00  1.60000000E+01  1.00800000E+00  1.00800000E+00  0.00000000E+00
  1.60000000E+01  1.00800000E+00  1.00800000E+00  0.00000000E+00  1.60000000E+01
  1.00800000E+00  1.00800000E+00  0.00000000E+00  1.60000000E+01  1.00800000E+00
  1.00800000E+00  0.00000000E+00  1.60000000E+01  1.00800000E+00  1.00800000E+00
  0.00000000E+00  1.60000000E+01  1.00800000E+00  1.00800000E+00  0.00000000E+00
  1.60000000E+01  1.00800000E+00  1.00800000E+00  0.00000000E+00  1.60000000E+01
  1.00800000E+00  1.00800000E+00  0.00000000E+00  1.60000000E+01  1.00800000E+00
  1.00800000E+00  0.00000000E+00  1.60000000E+01  1.00800000E+00  1.00800000E+00
  0.00000000E+00  1.60000000E+01  1.00800000E+00  1.00800000E+00  0.00000000E+00
  1.60000000E+01  1.00800000E+00  1.00800000E+00  0.00000000E+00  1.60000000E+01
  1.00800000E+00  1.00800000E+00  0.00000000E+00  1.60000000E+01  1.00800000E+00
  1.00800000E+00  0.00000000E+00  1.60000000E+01  1.00800000E+00  1.00800000E+00
  0.00000000E+00  1.60000000E+01  1.00800000E+00  1.00800000E+00  0.00000000E+00
  1.60000000E+01  1.00800000E+00  1.00800000E+00  0.00000000E+00  1.60000000E+01
  1.00800000E+00  1.00800000E+00  0.00000000E+00  1.60000000E+01  1.00800000E+00
  1.00800000E+00  0.00000000E+00  1.60000000E+01  1.00800000E+00  1.00800000E+00
  0.00000000E+00  1.60000000E+01  1.00800000E+00  1.00800000E+00  0.00000000E+00
  1.60000000E+01  1.00800000E+00  1.00800000E+00  0.00000000E+00  1.60000000E+01
  1.00800000E+00  1.00800000E+00  0.00000000E+00  1.60000000E+01  1.00800000E+00
  1.00800000E+00  0.00000000E+00  1.60000000E+01  1.00800000E+00  1.00800000E+00
  0.00000000E+00  1.60000000E+01  1.00800000E+00  1.00800000E+00  0.00000000E+00
  1.60000000E+01  1.00800000E+00  1.00800000E+00  0.00000000E+00  1.60000000E+01
  1.00800000E+00  1.00800000E+00  0.00000000E+00  1.60000000E+01  1.00800000E+00
  1.00800000E+00  0.00000000E+00  1.60000000E+01  1.00800000E+00  1.00800000E+00
  0.00000000E+00  1.60000000E+01  1.00800000E+00  1.00800000E+00  0.00000000E+00
  1.60000000E+01  1.00800000E+00  1.00800000E+00  0.00000000E+00  1.60000000E+01
  1.00800000E+00  1.00800000E+00  0.00000000E+00  1.60000000E+01  1.00800000E+00
  1.00800000E+00  0.00000000E+00  1.60000000E+01  1.00800000E+00  1.00800000E+00
  0.00000000E+00  1.60000000E+01  1.00800000E+00  1.00800000E+00  0.00000000E+00
  1.60000000E+01  1.00800000E+00  1.00800000E+00  0.00000000E+00  1.60000000E+01
  1.00800000E+00  1.00800000E+00  0.00000000E+00  1.60000000E+01  1.00800000E+00
  1.00800000E+00  0.00000000E+00  1.60000000E+01  1.00800000E+00  1.00800000E+00
  0.00000000E+00  1.60000000E+01  1.00800000E+00  1.00800000E+00  0.00000000E+00
  1.60000000E+01  1.00800000E+00  1.00800000E+00  0.00000000E+00  1.60000000E+01
  1.00800000E+00  1.00800000E+00  0.00000000E+00  1.60000000E+01  1.00800000E+00
  1.00800000E+00  0.00000000E+00  1.60000000E+01  1.00800000E+00  1.00800000E+00
  0.00000000E+00  1.60000000E+01  1.00800000E+00  1.00800000E+00  0.00000000E+00
  1.60000000E+01  1.00800000E+00  1.00800000E+00  0.00000000E+00  1.60000000E+01
  1.00800000E+00  1.00800000E+00  0.00000000E+00  1.60000000E+01  1.00800000E+00
  1.00800000E+00  0.00000000E+00  1.60000000E+01  1.00800000E+00  1.00800000E+00
  0.00000000E+00  1.60000000E+01  1.00800000E+00  1.00800000E+00  0.00000000E+00
  1.60000000E+01  1.00800000E+00  1.00800000E+00  0.00000000E+00  1.60000000E+01
  1.00800000E+00  1.00800000E+00  0.00000000E+00  1.60000000E+01  1.00800000E+00
  1.00800000E+00  0.00000000E+00  1.60000000E+01  1.00800000E+00  1.00800000E+00
  0.00000000E+00  1.60000000E+01  1.00800000E+00  1.00800000E+00  0.00000000E+00
  1.60000000E+01  1.00800000E+00  1.00800000E+00  0.00000000E+00  1.60000000E+01
  1.00800000E+00  1.00800000E+00  0.00000000E+00  1.60000000E+01  1.00800000E+00
  1.00800000E+00  0.00000000E+00  1.60000000E+01  1.00800000E+00  1.00800000E+00
  0.00000000E+00  1.60000000E+01  1.00800000E+00  1.00800000E+00  0.00000000E+00
  1.60000000E+01  1.00800000E+00  1.00800000E+00  0.00000000E+00  1.60000000E+01
  1.00800000E+00  1.00800000E+00  0.00000000E+00  1.60000000E+01  1.00800000E+00
  1.00800000E+00  0.00000000E+00  1.60000000E+01  1.00800000E+00  1.00800000E+00
  0.00000000E+00  1.60000000E+01  1.00800000E+00  1.00800000E+00  0.00000000E+00
  1.60000000E+01  1.00800000E+00  1.00800000E+00  0.00000000E+00  1.60000000E+01
  1.00800000E+00  1.00800000E+00  0.00000000E+00  1.60000000E+01  1.00800000E+00
  1.00800000E+00  0.00000000E+00  1.60000000E+01  1.00800000E+00  1.00800000E+00
  0.00000000E+00  1.60000000E+01  1.00800000E+00  1.00800000E+00  0.00000000E+00
  1.60000000E+01  1.00800000E+00  1.00800000E+00  0.00000000E+00  1.60000000E+01
  1.00800000E+00  1.00800000E+00  0.00000000E+00  1.60000000E+01  1.00800000E+00
  1.00800000E+00  0.00000000E+00  1.60000000E+01  1.00800000E+00  1.00800000E+00
  0.00000000E+00  1.60000000E+01  1.00800000E+00  1.00800000E+00  0.00000000E+00
  1.60000000E+01  1.00800000E+00  1.00800000E+00  0.00000000E+00  1.60000000E+01
  1.00800000E+00  1.00800000E+00  0.00000000E+00  1.60000000E+01  1.00800000E+00
  1.00800000E+00  0.00000000E+00  1.60000000E+01  1.00800000E+00  1.00800000E+00
  0.00000000E+00  1.60000000E+01  1.00800000E+00  1.00800000E+00  0.00000000E+00
  1.60000000E+01  1.00800000E+00  1.00800000E+00  0.00000000E+00  1.60000000E+01
  1.00800000E+00  1.00800000E+00  0.00000000E+00  1.60000000E+01  1.00800000E+00
  1.00800000E+00  0.00000000E+00  1.60000000E+01  1.00800000E+00  1.00800000E+00
  0.00000000E+00  1.60000000E+01  1.00800000E+00  1.00800000E+00  0.00000000E+00
  1.60000000E+01  1.00800000E+00  1.00800000E+00  0.00000000E+00  1.60000000E+01
  1.00800000E+00  1.00800000E+00  0.00000000E+00  1.60000000E+01  1.00800000E+00
  1.00800000E+00  0.00000000E+00  1.60000000E+01  1.00800000E+00  1.00800000E+00
  0.00000000E+00  1.60000000E+01  1.00800000E+00  1.00800000E+00  0.00000000E+00
  1.60000000E+01  1.00800000E+00  1.00800000E+00  0.00000000E+00  1.60000000E+01
  1.00800000E+00  1.00800000E+00  0.00000000E+00  1.60000000E+01  1.00800000E+00
  1.00800000E+00  0.00000000E+00  1.60000000E+01  1.00800000E+00  1.00800000E+00
  0.00000000E+00  1.60000000E+01  1.00800000E+00  1.00800000E+00  0.00000000E+00
  1.60000000E+01  1.00800000E+00  1.00800000E+00  0.00000000E+00  1.60000000E+01
  1.00800000E+00  1.00800000E+00  0.00000000E+00  1.60000000E+01  1.00800000E+00
  1.00800000E+00  0.00000000E+00  1.60000000E+01  1.00800000E+00  1.00800000E+00
  0.00000000E+00  1.60000000E+01  1.00800000E+00  1.00800000E+00  0.00000000E+00
  1.60000000E+01  1.00800000E+00  1.00800000E+00  0.00000000E+00  1.60000000E+01
  1.00800000E+00  1.00800000E+00  0.00000000E+00  1.60000000E+01  1.00800000E+00
  1.00800000E+00  0.00000000E+00  1.60000000E+01  1.00800000E+00  1.00800000E+00
  0.00000000E+00  1.60000000E+01  1.00800000E+00  1.00800000E+00  0.00000000E+00
  1.60000000E+01  1.00800000E+00  1.00800000E+00  0.00000000E+00  1.60000000E+01
  1.00800000E+00  1.00800000E+00  0.00000000E+00  1.60000000E+01  1.00800000E+00
  1.00800000E+00  0.00000000E+00  1.60000000E+01  1.00800000E+00  1.00800000E+00
  0.00000000E+00  1.60000000E+01  1.00800000E+00  1.00800000E+00  0.00000000E+00
  1.60000000E+01  1.00800000E+00  1.00800000E+00  0.00000000E+00  1.60000000E+01
  1.00800000E+00  1.00800000E+00  0.00000000E+00  1.60000000E+01  1.00800000E+00
  1.00800000E+00  0.00000000E+00  1.60000000E+01  1.00800000E+00  1.00800000E+00
  0.00000000E+00  1.60000000E+01  1.00800000E+00  1.00800000E+00  0.00000000E+00
  1.60000000E+01  1.00800000E+00  1.00800000E+00  0.00000000E+00  1.60000000E+01
  1.00800000E+00  1.00800000E+00  0.00000000E+00  1.60000000E+01  1.00800000E+00
  1.00800000E+00  0.00000000E+00  1.60000000E+01  1.00800000E+00  1.00800000E+00
  0.00000000E+00  1.60000000E+01  1.00800000E+00  1.00800000E+00  0.00000000E+00
  1.60000000E+01  1.00800000E+00  1.00800000E+00  0.00000000E+00  1.60000000E+01
  1.00800000E+00  1.00800000E+00  0.00000000E+00  1.60000000E+01  1.00800000E+00
  1.00800000E+00  0.00000000E+00  1.60000000E+01  1.00800000E+00  1.00800000E+00
  0.00000000E+00  1.60000000E+01  1.00800000E+00  1.00800000E+00  0.00000000E+00
  1.60000000E+01  1.00800000E+00  1.00800000E+00  0.00000000E+00  1.60000000E+01
  1.00800000E+00  1.00800000E+00  0.00000000E+00  1.60000000E+01  1.00800000E+00
  1.00800000E+00  0.00000000E+00  1.60000000E+01  1.00800000E+00  1.00800000E+00
  0.00000000E+00  1.60000000E+01  1.00800000E+00  1.00800000E+00  0.00000000E+00
  1.60000000E+01  1.00800000E+00  1.00800000E+00  0.00000000E+00  1.60000000E+01
  1.00800000E+00  1.00800000E+00  0.00000000E+00  1.60000000E+01  1.00800000E+00
  1.00800000E+00  0.00000000E+00  1.60000000E+01  1.00800000E+00  1.00800000E+00
  0.00000000E+00  1.60000000E+01  1.00800000E+00  1.00800000E+00  0.00000000E+00
  1.60000000E+01  1.00800000E+00  1.00800000E+00  0.00000000E+00  1.60000000E+01
  1.00800000E+00  1.00800000E+00  0.00000000E+00  1.60000000E+01  1.00800000E+00
  1.00800000E+00  0.00000000E+00  1.60000000E+01  1.00800000E+00  1.00800000E+00
  0.00000000E+00  1.60000000E+01  1.00800000E+00  1.00800000E+00  0.00000000E+00
  1.60000000E+01  1.00800000E+00  1.00800000E+00  0.00000000E+00  1.60000000E+01
  1.00800000E+00  1.00800000E+00  0.00000000E+00  1.60000000E+01  1.00800000E+00
  1.00800000E+00  0.00000000E+00  1.60000000E+01  1.00800000E+00  1.00800000E+00
  0.00000000E+00  1.60000000E+01  1.00800000E+00  1.00800000E+00  0.00000000E+00
  1.60000000E+01  1.00800000E+00  1.00800000E+00  0.00000000E+00  1.60000000E+01
  1.00800000E+00  1.00800000E+00  0.00000000E+00  1.60000000E+01  1.00800000E+00
  1.00800000E+00  0.00000000E+00  1.60000000E+01  1.00800000E+00  1.00800000E+00
  0.00000000E+00  1.60000000E+01  1.00800000E+00  1.00800000E+00  0.00000000E+00
  1.60000000E+01  1.00800000E+00  1.00800000E+00  0.00000000E+00  1.60000000E+01
  1.00800000E+00  1.00800000E+00  0.00000000E+00  1.60000000E+01  1.00800000E+00
  1.00800000E+00  0.00000000E+00  1.60000000E+01  1.00800000E+00  1.00800000E+00
  0.00000000E+00  1.60000000E+01  1.00800000E+00  1.00800000E+00  0.00000000E+00
  1.60000000E+01  1.00800000E+00  1.00800000E+00  0.00000000E+00  1.60000000E+01
  1.00800000E+00  1.00800000E+00  0.00000000E+00  1.60000000E+01  1.00800000E+00
  1.00800000E+00  0.00000000E+00  1.60000000E+01  1.00800000E+00  1.00800000E+00
  0.00000000E+00  1.60000000E+01  1.00800000E+00  1.00800000E+00  0.00000000E+00
  1.60000000E+01  1.00800000E+00  1.00800000E+00  0.00000000E+00  1.60000000E+01
  1.00800000E+00  1.00800000E+00  0.00000000E+00  1.60000000E+01  1.00800000E+00
  1.00800000E+00  0.00000000E+00  1.60000000E+01  1.00800000E+00  1.00800000E+00
  0.00000000E+00  1.60000000E+01  1.00800000E+00  1.00800000E+00  0.00000000E+00
  1.60000000E+01  1.00800000E+00  1.00800000E+00  0.00000000E+00  1.60000000E+01
  1.00800000E+00  1.00800000E+00  0.00000000E+00  1.60000000E+01  1.00800000E+00
  1.00800000E+00  0.00000000E+00  1.60000000E+01  1.00800000E+00  1.00800000E+00
  0.00000000E+00  1.60000000E+01  1.00800000E+00  1.00800000E+00  0.00000000E+00
  1.60000000E+01  1.00800000E+00  1.00800000E+00  0.00000000E+00  1.60000000E+01
  1.00800000E+00  1.00800000E+00  0.00000000E+00  1.60000000E+01  1.00800000E+00
  1.00800000E+00  0.00000000E+00  1.60000000E+01  1.00800000E+00  1.00800000E+00
  0.00000000E+00  1.60000000E+01  1.00800000E+00  1.00800000E+00  0.00000000E+00
  1.60000000E+01  1.00800000E+00  1.00800000E+00  0.00000000E+00  1.60000000E+01
  1.00800000E+00  1.00800000E+00  0.00000000E+00  1.60000000E+01  1.00800000E+00
  1.00800000E+00  0.00000000E+00  1.60000000E+01  1.00800000E+00  1.00800000E+00
  0.00000000E+00  1.60000000E+01  1.00800000E+00  1.00800000E+00  0.00000000E+00
  1.60000000E+01  1.00800000E+00  1.00800000E+00  0.00000000E+00  1.60000000E+01
  1.00800000E+00  1.00800000E+00  0.00000000E+00  1.60000000E+01  1.00800000E+00
  1.00800000E+00  0.00000000E+00  1.60000000E+01  1.00800000E+00  1.00800000E+00
  0.00000000E+00  1.60000000E+01  1.00800000E+00  1.00800000E+00  0.00000000E+00
  1.60000000E+01  1.00800000E+00  1.00800000E+00  0.00000000E+00  1.60000000E+01
  1.00800000E+00  1.00800000E+00  0.00000000E+00  1.60000000E+01  1.00800000E+00
  1.00800000E+00  0.00000000E+00  1.60000000E+01  1.00800000E+00  1.00800000E+00
  0.00000000E+00  1.60000000E+01  1.00800000E+00  1.00800000E+00  0.00000000E+00
  1.60000000E+01  1.00800000E+00  1.00800000E+00  0.00000000E+00  1.60000000E+01
  1.00800000E+00  1.00800000E+00  0.00000000E+00  1.60000000E+01  1.00800000E+00
  1.00800000E+00  0.00000000E+00  1.60000000E+01  1.00800000E+00  1.00800000E+00
  0.00000000E+00  1.60000000E+01  1.00800000E+00  1.00800000E+00  0.00000000E+00
  1.60000000E+01  1.00800000E+00  1.00800000E+00  0.00000000E+00  1.60000000E+01
  1.00800000E+00  1.00800000E+00  0.00000000E+00  1.60000000E+01  1.00800000E+00
  1.00800000E+00  0.00000000E+00  1.60000000E+01  1.00800000E+00  1.00800000E+00
  0.00000000E+00  1.60000000E+01  1.00800000E+00  1.00800000E+00  0.00000000E+00
  1.60000000E+01  1.00800000E+00  1.00800000E+00  0.00000000E+00  1.60000000E+01
  1.00800000E+00  1.00800000E+00  0.00000000E+00  1.60000000E+01  1.00800000E+00
  1.00800000E+00  0.00000000E+00  1.60000000E+01  1.00800000E+00  1.00800000E+00
  0.00000000E+00  1.60000000E+01  1.00800000E+00  1.00800000E+00  0.00000000E+00
  1.60000000E+01  1.00800000E+00  1.00800000E+00  0.00000000E+00  1.60000000E+01
  1.00800000E+00  1.00800000E+00  0.00000000E+00  1.60000000E+01  1.00800000E+00
  1.00800000E+00  0.00000000E+00  1.60000000E+01  1.00800000E+00  1.00800000E+00
  0.00000000E+00  1.60000000E+01  1.00800000E+00  1.00800000E+00  0.00000000E+00
  1.60000000E+01  1.00800000E+00  1.00800000E+00  0.00000000E+00  1.60000000E+01
  1.00800000E+00  1.00800000E+00  0.00000000E+00  1.60000000E+01  1.00800000E+00
  1.00800000E+00  0.00000000E+00  1.60000000E+01  1.00800000E+00  1.00800000E+00
  0.00000000E+00  1.60000000E+01  1.00800000E+00  1.00800000E+00  0.00000000E+00
  1.60000000E+01  1.00800000E+00  1.00800000E+00  0.00000000E+00  1.60000000E+01
  1.00800000E+00  1.00800000E+00  0.00000000E+00  1.60000000E+01  1.00800000E+00
  1.00800000E+00  0.00000000E+00  1.60000000E+01  1.00800000E+00  1.00800000E+00
  0.00000000E+00  1.60000000E+01  1.00800000E+00  1.00800000E+00  0.00000000E+00
  1.60000000E+01  1.00800000E+00  1.00800000E+00  0.00000000E+00  1.60000000E+01
  1.00800000E+00  1.00800000E+00  0.00000000E+00  1.60000000E+01  1.00800000E+00
  1.00800000E+00  0.00000000E+00  1.60000000E+01  1.00800000E+00  1.00800000E+00
  0.00000000E+00  1.60000000E+01  1.00800000E+00  1.00800000E+00  0.00000000E+00
  1.60000000E+01  1.00800000E+00  1.00800000E+00  0.00000000E+00  1.60000000E+01
  1.00800000E+00  1.00800000E+00  0.00000000E+00  1.60000000E+01  1.00800000E+00
  1.00800000E+00  0.00000000E+00  1.60000000E+01  1.00800000E+00  1.00800000E+00
  0.00000000E+00  1.60000000E+01  1.00800000E+00  1.00800000E+00  0.00000000E+00
  1.60000000E+01  1.00800000E+00  1.00800000E+00  0.00000000E+00  1.60000000E+01
  1.00800000E+00  1.00800000E+00  0.00000000E+00  1.60000000E+01  1.00800000E+00
  1.00800000E+00  0.00000000E+00  1.60000000E+01  1.00800000E+00  1.00800000E+00
  0.00000000E+00  1.60000000E+01  1.00800000E+00  1.00800000E+00  0.00000000E+00
  1.60000000E+01  1.00800000E+00  1.00800000E+00  0.00000000E+00  1.60000000E+01
  1.00800000E+00  1.00800000E+00  0.00000000E+00  1.60000000E+01  1.00800000E+00
  1.00800000E+00  0.00000000E+00  1.60000000E+01  1.00800000E+00  1.00800000E+00
  0.00000000E+00  1.60000000E+01  1.00800000E+00  1.00800000E+00  0.00000000E+00
  1.60000000E+01  1.00800000E+00  1.00800000E+00  0.00000000E+00  1.60000000E+01
  1.00800000E+00  1.00800000E+00  0.00000000E+00  1.60000000E+01  1.00800000E+00
  1.00800000E+00  0.00000000E+00  1.60000000E+01  1.00800000E+00  1.00800000E+00
  0.00000000E+00  1.60000000E+01  1.00800000E+00  1.00800000E+00  0.00000000E+00
  1.60000000E+01  1.00800000E+00  1.00800000E+00  0.00000000E+00  1.60000000E+01
  1.00800000E+00  1.00800000E+00  0.00000000E+00  1.60000000E+01  1.00800000E+00
  1.00800000E+00  0.00000000E+00  1.60000000E+01  1.00800000E+00  1.00800000E+00
  0.00000000E+00  1.60000000E+01  1.00800000E+00  1.00800000E+00  0.00000000E+00
  1.60000000E+01  1.00800000E+00  1.00800000E+00  0.00000000E+00  1.60000000E+01
  1.00800000E+00  1.00800000E+00  0.00000000E+00  1.60000000E+01  1.00800000E+00
  1.00800000E+00  0.00000000E+00  1.60000000E+01  1.00800000E+00  1.00800000E+00
  0.00000000E+00  1.60000000E+01  1.00800000E+00  1.00800000E+00  0.00000000E+00
  1.60000000E+01  1.00800000E+00  1.00800000E+00  0.00000000E+00  1.60000000E+01
  1.00800000E+00  1.00800000E+00  0.00000000E+00  1.60000000E+01  1.00800000E+00
  1.00800000E+00  0.00000000E+00  1.60000000E+01  1.00800000E+00  1.00800000E+00
  0.00000000E+00  1.60000000E+01  1.00800000E+00  1.00800000E+00  0.00000000E+00
  1.60000000E+01  1.00800000E+00  1.00800000E+00  0.00000000E+00  1.60000000E+01
  1.00800000E+00  1.00800000E+00  0.00000000E+00  1.60000000E+01  1.00800000E+00
  1.00800000E+00  0.00000000E+00  1.60000000E+01  1.00800000E+00  1.00800000E+00
  0.00000000E+00  1.60000000E+01  1.00800000E+00  1.00800000E+00  0.00000000E+00
  1.60000000E+01  1.00800000E+00  1.00800000E+00  0.00000000E+00  1.60000000E+01
  1.00800000E+00  1.00800000E+00  0.00000000E+00  1.60000000E+01  1.00800000E+00
  1.00800000E+00  0.00000000E+00  1.60000000E+01  1.00800000E+00  1.00800000E+00
  0.00000000E+00  1.60000000E+01  1.00800000E+00  1.00800000E+00  0.00000000E+00
  1.60000000E+01  1.00800000E+00  1.00800000E+00  0.00000000E+00  1.60000000E+01
  1.00800000E+00  1.00800000E+00  0.00000000E+00  1.60000000E+01  1.00800000E+00
  1.00800000E+00  0.00000000E+00  1.60000000E+01  1.00800000E+00  1.00800000E+00
  0.00000000E+00  1.60000000E+01  1.00800000E+00  1.00800000E+00  0.00000000E+00
  1.60000000E+01  1.00800000E+00  1.00800000E+00  0.00000000E+00  1.60000000E+01
  1.00800000E+00  1.00800000E+00  0.00000000E+00  1.60000000E+01  1.00800000E+00
  1.00800000E+00  0.00000000E+00  1.60000000E+01  1.00800000E+00  1.00800000E+00
  0.00000000E+00  1.60000000E+01  1.00800000E+00  1.00800000E+00  0.00000000E+00
  1.60000000E+01  1.00800000E+00  1.00800000E+00  0.00000000E+00  1.60000000E+01
  1.00800000E+00  1.00800000E+00  0.00000000E+00  1.60000000E+01  1.00800000E+00
  1.00800000E+00  0.00000000E+00  1.60000000E+01  1.00800000E+00  1.00800000E+00
  0.00000000E+00  1.60000000E+01  1.00800000E+00  1.00800000E+00  0.00000000E+00
  1.60000000E+01  1.00800000E+00  1.00800000E+00  0.00000000E+00  1.60000000E+01
  1.00800000E+00  1.00800000E+00  0.00000000E+00  1.60000000E+01  1.00800000E+00
  1.00800000E+00  0.00000000E+00  1.60000000E+01  1.00800000E+00  1.00800000E+00
  0.00000000E+00  1.60000000E+01  1.00800000E+00  1.00800000E+00  0.00000000E+00
  1.60000000E+01  1.00800000E+00  1.00800000E+00  0.00000000E+00  1.60000000E+01
  1.00800000E+00  1.00800000E+00  0.00000000E+00  1.60000000E+01  1.00800000E+00
  1.00800000E+00  0.00000000E+00  1.60000000E+01  1.00800000E+00  1.00800000E+00
  0.00000000E+00  1.60000000E+01  1.00800000E+00  1.00800000E+00  0.00000000E+00
  1.60000000E+01  1.00800000E+00  1.00800000E+00  0.00000000E+00  1.60000000E+01
  1.00800000E+00  1.00800000E+00  0.00000000E+00  1.60000000E+01  1.00800000E+00
  1.00800000E+00  0.00000000E+00  1.60000000E+01  1.00800000E+00  1.00800000E+00
  0.00000000E+00  1.60000000E+01  1.00800000E+00  1.00800000E+00  0.00000000E+00
  1.60000000E+01  1.00800000E+00  1.00800000E+00  0.00000000E+00  1.60000000E+01
  1.00800000E+00  1.00800000E+00  0.00000000E+00  1.60000000E+01  1.00800000E+00
  1.00800000E+00  0.00000000E+00  1.60000000E+01  1.00800000E+00  1.00800000E+00
  0.00000000E+00  1.60000000E+01  1.00800000E+00  1.00800000E+00  0.00000000E+00
  1.60000000E+01  1.00800000E+00  1.00800000E+00  0.00000000E+00  1.60000000E+01
  1.00800000E+00  1.00800000E+00  0.00000000E+00  1.60000000E+01  1.00800000E+00
  1.00800000E+00  0.00000000E+00  1.60000000E+01  1.00800000E+00  1.00800000E+00
  0.00000000E+00  1.60000000E+01  1.00800000E+00  1.00800000E+00  0.00000000E+00
  1.60000000E+01  1.00800000E+00  1.00800000E+00  0.00000000E+00  1.60000000E+01
  1.00800000E+00  1.00800000E+00  0.00000000E+00  1.60000000E+01  1.00800000E+00
  1.00800000E+00  0.00000000E+00  1.60000000E+01  1.00800000E+00  1.00800000E+00
  0.00000000E+00  1.60000000E+01  1.00800000E+00  1.00800000E+00  0.00000000E+00
  1.60000000E+01  1.00800000E+00  1.00800000E+00  0.00000000E+00  1.60000000E+01
  1.00800000E+00  1.00800000E+00  0.00000000E+00  1.60000000E+01  1.00800000E+00
  1.00800000E+00  0.00000000E+00  1.60000000E+01  1.00800000E+00  1.00800000E+00
  0.00000000E+00  1.60000000E+01  1.00800000E+00  1.00800000E+00  0.00000000E+00
  1.60000000E+01  1.00800000E+00  1.00800000E+00  0.00000000E+00  1.60000000E+01
  1.00800000E+00  1.00800000E+00  0.00000000E+00  1.60000000E+01  1.00800000E+00
  1.00800000E+00  0.00000000E+00  1.60000000E+01  1.00800000E+00  1.00800000E+00
  0.00000000E+00  1.60000000E+01  1.00800000E+00  1.00800000E+00  0.00000000E+00
  1.60000000E+01  1.00800000E+00  1.00800000E+00  0.00000000E+00  1.60000000E+01
  1.00800000E+00  1.00800000E+00  0.00000000E+00  1.60000000E+01  1.00800000E+00
  1.00800000E+00  0.00000000E+00  1.60000000E+01  1.00800000E+00  1.00800000E+00
  0.00000000E+00  1.60000000E+01  1.00800000E+00  1.00800000E+00  0.00000000E+00
  1.60000000E+01  1.00800000E+00  1.00800000E+00  0.00000000E+00  1.60000000E+01
  1.00800000E+00  1.00800000E+00  0.00000000E+00  1.60000000E+01  1.00800000E+00
  1.00800000E+00  0.00000000E+00  1.60000000E+01  1.00800000E+00  1.00800000E+00
  0.00000000E+00  1.60000000E+01  1.00800000E+00  1.00800000E+00  0.00000000E+00
  1.60000000E+01  1.00800000E+00  1.00800000E+00  0.00000000E+00  1.60000000E+01
  1.00800000E+00  1.00800000E+00  0.00000000E+00  1.60000000E+01  1.00800000E+00
  1.00800000E+00  0.00000000E+00  1.60000000E+01  1.00800000E+00  1.00800000E+00
  0.00000000E+00  1.60000000E+01  1.00800000E+00  1.00800000E+00  0.00000000E+00
  1.60000000E+01  1.00800000E+00  1.00800000E+00  0.00000000E+00  1.60000000E+01
  1.00800000E+00  1.00800000E+00  0.00000000E+00  1.60000000E+01  1.00800000E+00
  1.00800000E+00  0.00000000E+00  1.60000000E+01  1.00800000E+00  1.00800000E+00
  0.00000000E+00  1.60000000E+01  1.00800000E+00  1.00800000E+00  0.00000000E+00
  1.60000000E+01  1.00800000E+00  1.00800000E+00  0.00000000E+00  1.60000000E+01
  1.00800000E+00  1.00800000E+00  0.00000000E+00  1.60000000E+01  1.00800000E+00
  1.00800000E+00  0.00000000E+00  1.60000000E+01  1.00800000E+00  1.00800000E+00
  0.00000000E+00  1.60000000E+01  1.00800000E+00  1.00800000E+00  0.00000000E+00
  1.60000000E+01  1.00800000E+00  1.00800000E+00  0.00000000E+00  1.60000000E+01
  1.00800000E+00  1.00800000E+00  0.00000000E+00  1.60000000E+01  1.00800000E+00
  1.00800000E+00  0.00000000E+00  1.60000000E+01  1.00800000E+00  1.00800000E+00
  0.00000000E+00  1.60000000E+01  1.00800000E+00  1.00800000E+00  0.00000000E+00
  1.60000000E+01  1.00800000E+00  1.00800000E+00  0.00000000E+00  1.60000000E+01
  1.00800000E+00  1.00800000E+00  0.00000000E+00  1.60000000E+01  1.00800000E+00
  1.00800000E+00  0.00000000E+00  1.60000000E+01  1.00800000E+00  1.00800000E+00
  0.00000000E+00  1.60000000E+01  1.00800000E+00  1.00800000E+00  0.00000000E+00
  1.60000000E+01  1.00800000E+00  1.00800000E+00  0.00000000E+00  1.60000000E+01
  1.00800000E+00  1.00800000E+00  0.00000000E+00  1.60000000E+01  1.00800000E+00
  1.00800000E+00  0.00000000E+00  1.60000000E+01  1.00800000E+00  1.00800000E+00
  0.00000000E+00  1.60000000E+01  1.00800000E+00  1.00800000E+00  0.00000000E+00
  1.60000000E+01  1.00800000E+00  1.00800000E+00  0.00000000E+00  1.60000000E+01
  1.00800000E+00  1.00800000E+00  0.00000000E+00  1.60000000E+01  1.00800000E+00
  1.00800000E+00  0.00000000E+00  1.60000000E+01  1.00800000E+00  1.00800000E+00
  0.00000000E+00  1.60000000E+01  1.00800000E+00  1.00800000E+00  0.00000000E+00
  1.60000000E+01  1.00800000E+00  1.00800000E+00  0.00000000E+00  1.60000000E+01
  1.00800000E+00  1.00800000E+00  0.00000000E+00  1.60000000E+01  1.00800000E+00
  1.00800000E+00  0.00000000E+00  1.60000000E+01  1.00800000E+00  1.00800000E+00
  0.00000000E+00  1.60000000E+01  1.00800000E+00  1.00800000E+00  0.00000000E+00
  1.60000000E+01  1.00800000E+00  1.00800000E+00  0.00000000E+00  1.60000000E+01
  1.00800000E+00  1.00800000E+00  0.00000000E+00  1.60000000E+01  1.00800000E+00
  1.00800000E+00  0.00000000E+00  1.60000000E+01  1.00800000E+00  1.00800000E+00
  0.00000000E+00  1.60000000E+01  1.00800000E+00  1.00800000E+00  0.00000000E+00
  1.60000000E+01  1.00800000E+00  1.00800000E+00  0.00000000E+00  1.60000000E+01
  1.00800000E+00  1.00800000E+00  0.00000000E+00  1.60000000E+01  1.00800000E+00
  1.00800000E+00  0.00000000E+00  1.60000000E+01  1.00800000E+00  1.00800000E+00
  0.00000000E+00  1.60000000E+01  1.00800000E+00  1.00800000E+00  0.00000000E+00
  1.60000000E+01  1.00800000E+00  1.00800000E+00  0.00000000E+00  1.60000000E+01
  1.00800000E+00  1.00800000E+00  0.00000000E+00  1.60000000E+01  1.00800000E+00
  1.00800000E+00  0.00000000E+00  1.60000000E+01  1.00800000E+00  1.00800000E+00
  0.00000000E+00  1.60000000E+01  1.00800000E+00  1.00800000E+00  0.00000000E+00
  1.60000000E+01  1.00800000E+00  1.00800000E+00  0.00000000E+00  1.60000000E+01
  1.00800000E+00  1.00800000E+00  0.00000000E+00  1.60000000E+01  1.00800000E+00
  1.00800000E+00  0.00000000E+00  1.60000000E+01  1.00800000E+00  1.00800000E+00
  0.00000000E+00  1.60000000E+01  1.00800000E+00  1.00800000E+00  0.00000000E+00
  1.60000000E+01  1.00800000E+00  1.00800000E+00  0.00000000E+00  1.60000000E+01
  1.00800000E+00  1.00800000E+00  0.00000000E+00  1.60000000E+01  1.00800000E+00
  1.00800000E+00  0.00000000E+00  1.60000000E+01  1.00800000E+00  1.00800000E+00
  0.00000000E+00  1.60000000E+01  1.00800000E+00  1.00800000E+00  0.00000000E+00
  1.60000000E+01  1.00800000E+00  1.00800000E+00  0.00000000E+00  1.60000000E+01
  1.00800000E+00  1.00800000E+00  0.00000000E+00  1.60000000E+01  1.00800000E+00
  1.00800000E+00  0.00000000E+00  1.60000000E+01  1.00800000E+00  1.00800000E+00
  0.00000000E+00  1.60000000E+01  1.00800000E+00  1.00800000E+00  0.00000000E+00
  1.60000000E+01  1.00800000E+00  1.00800000E+00  0.00000000E+00  1.60000000E+01
  1.00800000E+00  1.00800000E+00  0.00000000E+00  1.60000000E+01  1.00800000E+00
  1.00800000E+00  0.00000000E+00  1.60000000E+01  1.00800000E+00  1.00800000E+00
  0.00000000E+00  1.60000000E+01  1.00800000E+00  1.00800000E+00  0.00000000E+00
  1.60000000E+01  1.00800000E+00  1.00800000E+00  0.00000000E+00  1.60000000E+01
  1.00800000E+00  1.00800000E+00  0.00000000E+00  1.60000000E+01  1.00800000E+00
  1.00800000E+00  0.00000000E+00  1.60000000E+01  1.00800000E+00  1.00800000E+00
  0.00000000E+00  1.60000000E+01  1.00800000E+00  1.00800000E+00  0.00000000E+00
  1.60000000E+01  1.00800000E+00  1.00800000E+00  0.00000000E+00  1.60000000E+01
  1.00800000E+00  1.00800000E+00  0.00000000E+00  1.60000000E+01  1.00800000E+00
  1.00800000E+00  0.00000000E+00  1.60000000E+01  1.00800000E+00  1.00800000E+00
  0.00000000E+00  1.60000000E+01  1.00800000E+00  1.00800000E+00  0.00000000E+00
  1.60000000E+01  1.00800000E+00  1.00800000E+00  0.00000000E+00  1.60000000E+01
  1.00800000E+00  1.00800000E+00  0.00000000E+00  1.60000000E+01  1.00800000E+00
  1.00800000E+00  0.00000000E+00  1.60000000E+01  1.00800000E+00  1.00800000E+00
  0.00000000E+00  1.60000000E+01  1.00800000E+00  1.00800000E+00  0.00000000E+00
  1.60000000E+01  1.00800000E+00  1.00800000E+00  0.00000000E+00  1.60000000E+01
  1.00800000E+00  1.00800000E+00  0.00000000E+00  1.60000000E+01  1.00800000E+00
  1.00800000E+00  0.00000000E+00  1.60000000E+01  1.00800000E+00  1.00800000E+00
  0.00000000E+00  1.60000000E+01  1.00800000E+00  1.00800000E+00  0.00000000E+00
  1.60000000E+01  1.00800000E+00  1.00800000E+00  0.00000000E+00  1.60000000E+01
  1.00800000E+00  1.00800000E+00  0.00000000E+00  1.60000000E+01  1.00800000E+00
  1.00800000E+00  0.00000000E+00  1.60000000E+01  1.00800000E+00  1.00800000E+00
  0.00000000E+00  1.60000000E+01  1.00800000E+00  1.00800000E+00  0.00000000E+00
  1.60000000E+01  1.00800000E+00  1.00800000E+00  0.00000000E+00  1.60000000E+01
  1.00800000E+00  1.00800000E+00  0.00000000E+00  1.60000000E+01  1.00800000E+00
  1.00800000E+00  0.00000000E+00  1.60000000E+01  1.00800000E+00  1.00800000E+00
  0.00000000E+00  1.60000000E+01  1.00800000E+00  1.00800000E+00  0.00000000E+00
  1.60000000E+01  1.00800000E+00  1.00800000E+00  0.00000000E+00  1.60000000E+01
  1.00800000E+00  1.00800000E+00  0.00000000E+00  1.60000000E+01  1.00800000E+00
  1.00800000E+00  0.00000000E+00  1.60000000E+01  1.00800000E+00  1.00800000E+00
  0.00000000E+00  1.60000000E+01  1.00800000E+00  1.00800000E+00  0.00000000E+00
  1.60000000E+01  1.00800000E+00  1.00800000E+00  0.00000000E+00  1.60000000E+01
  1.00800000E+00  1.00800000E+00  0.00000000E+00  1.60000000E+01  1.00800000E+00
  1.00800000E+00  0.00000000E+00  1.60000000E+01  1.00800000E+00  1.00800000E+00
  0.00000000E+00  1.60000000E+01  1.00800000E+00  1.00800000E+00  0.00000000E+00
  1.60000000E+01  1.00800000E+00  1.00800000E+00  0.00000000E+00  1.60000000E+01
  1.00800000E+00  1.00800000E+00  0.00000000E+00  1.60000000E+01  1.00800000E+00
  1.00800000E+00  0.00000000E+00  1.60000000E+01  1.00800000E+00  1.00800000E+00
  0.00000000E+00  1.60000000E+01  1.00800000E+00  1.00800000E+00  0.00000000E+00
  1.60000000E+01  1.00800000E+00  1.00800000E+00  0.00000000E+00  1.60000000E+01
  1.00800000E+00  1.00800000E+00  0.00000000E+00  1.60000000E+01  1.00800000E+00
  1.00800000E+00  0.00000000E+00  1.60000000E+01  1.00800000E+00  1.00800000E+00
  0.00000000E+00  1.60000000E+01  1.00800000E+00  1.00800000E+00  0.00000000E+00
  1.60000000E+01  1.00800000E+00  1.00800000E+00  0.00000000E+00  1.60000000E+01
  1.00800000E+00  1.00800000E+00  0.00000000E+00  1.60000000E+01  1.00800000E+00
  1.00800000E+00  0.00000000E+00  1.60000000E+01  1.00800000E+00  1.00800000E+00
  0.00000000E+00  1.60000000E+01  1.00800000E+00  1.00800000E+00  0.00000000E+00
  1.60000000E+01  1.00800000E+00  1.00800000E+00  0.00000000E+00  1.60000000E+01
  1.00800000E+00  1.00800000E+00  0.00000000E+00  1.60000000E+01  1.00800000E+00
  1.00800000E+00  0.00000000E+00  1.60000000E+01  1.00800000E+00  1.00800000E+00
  0.00000000E+00  1.60000000E+01  1.00800000E+00  1.00800000E+00  0.00000000E+00
  1.60000000E+01  1.00800000E+00  1.00800000E+00  0.00000000E+00  1.60000000E+01
  1.00800000E+00  1.00800000E+00  0.00000000E+00  1.60000000E+01  1.00800000E+00
  1.00800000E+00  0.00000000E+00  1.60000000E+01  1.00800000E+00  1.00800000E+00
  0.00000000E+00  1.60000000E+01  1.00800000E+00  1.00800000E+00  0.00000000E+00
  1.60000000E+01  1.00800000E+00  1.00800000E+00  0.00000000E+00  1.60000000E+01
  1.00800000E+00  1.00800000E+00  0.00000000E+00  1.60000000E+01  1.00800000E+00
  1.00800000E+00  0.00000000E+00  1.60000000E+01  1.00800000E+00  1.00800000E+00
  0.00000000E+00  1.60000000E+01  1.00800000E+00  1.00800000E+00  0.00000000E+00
  1.60000000E+01  1.00800000E+00  1.00800000E+00  0.00000000E+00  1.60000000E+01
  1.00800000E+00  1.00800000E+00  0.00000000E+00  1.60000000E+01  1.00800000E+00
  1.00800000E+00  0.00000000E+00  1.60000000E+01  1.00800000E+00  1.00800000E+00
  0.00000000E+00  1.60000000E+01  1.00800000E+00  1.00800000E+00  0.00000000E+00
  1.60000000E+01  1.00800000E+00  1.00800000E+00  0.00000000E+00  1.60000000E+01
  1.00800000E+00  1.00800000E+00  0.00000000E+00  1.60000000E+01  1.00800000E+00
  1.00800000E+00  0.00000000E+00  1.60000000E+01  1.00800000E+00  1.00800000E+00
  0.00000000E+00  1.60000000E+01  1.00800000E+00  1.00800000E+00  0.00000000E+00
  1.60000000E+01  1.00800000E+00  1.00800000E+00  0.00000000E+00  1.60000000E+01
  1.00800000E+00  1.00800000E+00  0.00000000E+00  1.60000000E+01  1.00800000E+00
  1.00800000E+00  0.00000000E+00  1.60000000E+01  1.00800000E+00  1.00800000E+00
  0.00000000E+00  1.60000000E+01  1.00800000E+00  1.00800000E+00  0.00000000E+00
  1.60000000E+01  1.00800000E+00  1.00800000E+00  0.00000000E+00  1.60000000E+01
  1.00800000E+00  1.00800000E+00  0.00000000E+00  1.60000000E+01  1.00800000E+00
  1.00800000E+00  0.00000000E+00  1.60000000E+01  1.00800000E+00  1.00800000E+00
  0.00000000E+00  1.60000000E+01  1.00800000E+00  1.00800000E+00  0.00000000E+00
  1.60000000E+01  1.00800000E+00  1.00800000E+00  0.00000000E+00  1.60000000E+01
  1.00800000E+00  1.00800000E+00  0.00000000E+00  1.60000000E+01  1.00800000E+00
  1.00800000E+00  0.00000000E+00  1.60000000E+01  1.00800000E+00  1.00800000E+00
  0.00000000E+00  1.60000000E+01  1.00800000E+00  1.00800000E+00  0.00000000E+00
  1.60000000E+01  1.00800000E+00  1.00800000E+00  0.00000000E+00  1.60000000E+01
  1.00800000E+00  1.00800000E+00  0.00000000E+00  1.60000000E+01  1.00800000E+00
  1.00800000E+00  0.00000000E+00  1.60000000E+01  1.00800000E+00  1.00800000E+00
  0.00000000E+00  1.60000000E+01  1.00800000E+00  1.00800000E+00  0.00000000E+00
  1.60000000E+01  1.00800000E+00  1.00800000E+00  0.00000000E+00  1.60000000E+01
  1.00800000E+00  1.00800000E+00  0.00000000E+00  1.60000000E+01  1.00800000E+00
  1.00800000E+00  0.00000000E+00  1.60000000E+01  1.00800000E+00  1.00800000E+00
  0.00000000E+00  1.60000000E+01  1.00800000E+00  1.00800000E+00  0.00000000E+00
  1.60000000E+01  1.00800000E+00  1.00800000E+00  0.00000000E+00  1.60000000E+01
  1.00800000E+00  1.00800000E+00  0.00000000E+00  1.60000000E+01  1.00800000E+00
  1.00800000E+00  0.00000000E+00  1.60000000E+01  1.00800000E+00  1.00800000E+00
  0.00000000E+00  1.60000000E+01  1.00800000E+00  1.00800000E+00  0.00000000E+00
  1.60000000E+01  1.00800000E+00  1.00800000E+00  0.00000000E+00  1.60000000E+01
  1.00800000E+00  1.00800000E+00  0.00000000E+00  1.60000000E+01  1.00800000E+00
  1.00800000E+00  0.00000000E+00  1.60000000E+01  1.00800000E+00  1.00800000E+00
  0.00000000E+00  1.60000000E+01  1.00800000E+00  1.00800000E+00  0.00000000E+00
  1.60000000E+01  1.00800000E+00  1.00800000E+00  0.00000000E+00  1.60000000E+01
  1.00800000E+00  1.00800000E+00  0.00000000E+00  1.60000000E+01  1.00800000E+00
  1.00800000E+00  0.00000000E+00  1.60000000E+01  1.00800000E+00  1.00800000E+00
  0.00000000E+00  1.60000000E+01  1.00800000E+00  1.00800000E+00  0.00000000E+00
  1.60000000E+01  1.00800000E+00  1.00800000E+00  0.00000000E+00  1.60000000E+01
  1.00800000E+00  1.00800000E+00  0.00000000E+00  1.60000000E+01  1.00800000E+00
  1.00800000E+00  0.00000000E+00  1.60000000E+01  1.00800000E+00  1.00800000E+00
  0.00000000E+00  1.60000000E+01  1.00800000E+00  1.00800000E+00  0.00000000E+00
  1.60000000E+01  1.00800000E+00  1.00800000E+00  0.00000000E+00  1.60000000E+01
  1.00800000E+00  1.00800000E+00  0.00000000E+00  1.60000000E+01  1.00800000E+00
  1.00800000E+00  0.00000000E+00  1.60000000E+01  1.00800000E+00  1.00800000E+00
  0.00000000E+00  1.60000000E+01  1.00800000E+00  1.00800000E+00  0.00000000E+00
  1.60000000E+01  1.00800000E+00  1.00800000E+00  0.00000000E+00  1.60000000E+01
  1.00800000E+00  1.00800000E+00  0.00000000E+00  1.60000000E+01  1.00800000E+00
  1.00800000E+00  0.00000000E+00  1.60000000E+01  1.00800000E+00  1.00800000E+00
  0.00000000E+00  1.60000000E+01  1.00800000E+00  1.00800000E+00  0.00000000E+00
  1.60000000E+01  1.00800000E+00  1.00800000E+00  0.00000000E+00  1.60000000E+01
  1.00800000E+00  1.00800000E+00  0.00000000E+00  1.60000000E+01  1.00800000E+00
  1.00800000E+00  0.00000000E+00  1.60000000E+01  1.00800000E+00  1.00800000E+00
  0.00000000E+00  1.60000000E+01  1.00800000E+00  1.00800000E+00  0.00000000E+00
  1.60000000E+01  1.00800000E+00  1.00800000E+00  0.00000000E+00  1.60000000E+01
  1.00800000E+00  1.00800000E+00  0.00000000E+00  1.60000000E+01  1.00800000E+00
  1.00800000E+00  0.00000000E+00  1.60000000E+01  1.00800000E+00  1.00800000E+00
  0.00000000E+00  1.60000000E+01  1.00800000E+00  1.00800000E+00  0.00000000E+00
  1.60000000E+01  1.00800000E+00  1.00800000E+00  0.00000000E+00  1.60000000E+01
  1.00800000E+00  1.00800000E+00  0.00000000E+00  1.60000000E+01  1.00800000E+00
  1.00800000E+00  0.00000000E+00  1.60000000E+01  1.00800000E+00  1.00800000E+00
  0.00000000E+00  1.60000000E+01  1.00800000E+00  1.00800000E+00  0.00000000E+00
  1.60000000E+01  1.00800000E+00  1.00800000E+00  0.00000000E+00  1.60000000E+01
  1.00800000E+00  1.00800000E+00  0.00000000E+00  1.60000000E+01  1.00800000E+00
  1.00800000E+00  0.00000000E+00  1.60000000E+01  1.00800000E+00  1.00800000E+00
  0.00000000E+00  1.60000000E+01  1.00800000E+00  1.00800000E+00  0.00000000E+00
  1.60000000E+01  1.00800000E+00  1.00800000E+00  0.00000000E+00  1.60000000E+01
  1.00800000E+00  1.00800000E+00  0.00000000E+00  1.60000000E+01  1.00800000E+00
  1.00800000E+00  0.00000000E+00  1.60000000E+01  1.00800000E+00  1.00800000E+00
  0.00000000E+00  1.60000000E+01  1.00800000E+00  1.00800000E+00  0.00000000E+00
  1.60000000E+01  1.00800000E+00  1.00800000E+00  0.00000000E+00  1.60000000E+01
  1.00800000E+00  1.00800000E+00  0.00000000E+00  1.60000000E+01  1.00800000E+00
  1.00800000E+00  0.00000000E+00  1.60000000E+01  1.00800000E+00  1.00800000E+00
  0.00000000E+00  1.60000000E+01  1.00800000E+00  1.00800000E+00  0.00000000E+00
  1.60000000E+01  1.00800000E+00  1.00800000E+00  0.00000000E+00  1.60000000E+01
  1.00800000E+00  1.00800000E+00  0.00000000E+00  1.60000000E+01  1.00800000E+00
  1.00800000E+00  0.00000000E+00  1.60000000E+01  1.00800000E+00  1.00800000E+00
  0.00000000E+00  1.60000000E+01  1.00800000E+00  1.00800000E+00  0.00000000E+00
  1.60000000E+01  1.00800000E+00  1.00800000E+00  0.00000000E+00  1.60000000E+01
  1.00800000E+00  1.00800000E+00  0.00000000E+00  1.60000000E+01  1.00800000E+00
  1.00800000E+00  0.00000000E+00  1.60000000E+01  1.00800000E+00  1.00800000E+00
  0.00000000E+00  1.60000000E+01  1.00800000E+00  1.00800000E+00  0.00000000E+00
  1.60000000E+01  1.00800000E+00  1.00800000E+00  0.00000000E+00  1.60000000E+01
  1.00800000E+00  1.00800000E+00  0.00000000E+00  1.60000000E+01  1.00800000E+00
  1.00800000E+00  0.00000000E+00  1.60000000E+01  1.00800000E+00  1.00800000E+00
  0.00000000E+00  1.60000000E+01  1.00800000E+00  1.00800000E+00  0.00000000E+00
  1.60000000E+01  1.00800000E+00  1.00800000E+00  0.00000000E+00  1.60000000E+01
  1.00800000E+00  1.00800000E+00  0.00000000E+00  1.60000000E+01  1.00800000E+00
  1.00800000E+00  0.00000000E+00  1.60000000E+01  1.00800000E+00  1.00800000E+00
  0.00000000E+00  1.60000000E+01  1.00800000E+00  1.00800000E+00  0.00000000E+00
  1.60000000E+01  1.00800000E+00  1.00800000E+00  0.00000000E+00  1.60000000E+01
  1.00800000E+00  1.00800000E+00  0.00000000E+00  1.60000000E+01  1.00800000E+00
  1.00800000E+00  0.00000000E+00  1.60000000E+01  1.00800000E+00  1.00800000E+00
  0.00000000E+00  1.60000000E+01  1.00800000E+00  1.00800000E+00  0.00000000E+00
  1.60000000E+01  1.00800000E+00  1.00800000E+00  0.00000000E+00  1.60000000E+01
  1.00800000E+00  1.00800000E+00  0.00000000E+00  1.60000000E+01  1.00800000E+00
  1.00800000E+00  0.00000000E+00  1.60000000E+01  1.00800000E+00  1.00800000E+00
  0.00000000E+00  1.60000000E+01  1.00800000E+00  1.00800000E+00  0.00000000E+00
  1.60000000E+01  1.00800000E+00  1.00800000E+00  0.00000000E+00  1.60000000E+01
  1.00800000E+00  1.00800000E+00  0.00000000E+00  1.60000000E+01  1.00800000E+00
  1.00800000E+00  0.00000000E+00  1.60000000E+01  1.00800000E+00  1.00800000E+00
  0.00000000E+00  1.60000000E+01  1.00800000E+00  1.00800000E+00  0.00000000E+00
  1.60000000E+01  1.00800000E+00  1.00800000E+00  0.00000000E+00  1.60000000E+01
  1.00800000E+00  1.00800000E+00  0.00000000E+00  1.60000000E+01  1.00800000E+00
  1.00800000E+00  0.00000000E+00  1.60000000E+01  1.00800000E+00  1.00800000E+00
  0.00000000E+00
%FLAG ATOM_TYPE_INDEX                                                           
%FORMAT(10I8)                                                                   
       1       2       1       1       3       4       5       6       2       7
       2       1       1       1       3       4       5       6       2       7
       2       1       1       1       3       4       5       6       2       7
       2       1       1       1       3       4       5       6       2       7
       7       7       8       9       9      10       8       9       9      10
       8       9       9      10       8       9       9      10       8       9
       9      10       8       9       9      10       8       9       9      10
       8       9       9      10       8       9       9      10       8       9
       9      10       8       9       9      10       8       9       9      10
       8       9       9      10       8       9       9      10       8       9
       9      10       8       9       9      10       8       9       9      10
       8       9       9      10       8       9       9      10       8       9
       9      10       8       9       9      10       8       9       9      10
       8       9       9      10       8       9       9      10       8       9
       9      10       8       9       9      10       8       9       9      10
       8       9       9      10       8       9       9      10       8       9
       9      10       8       9       9      10       8       9       9      10
       8       9       9      10       8       9       9      10       8       9
       9      10       8       9       9      10       8       9       9      10
       8       9       9      10       8       9       9      10       8       9
       9      10       8       9       9      10       8       9       9      10
       8       9       9      10       8       9       9      10       8       9
       9      10       8       9       9      10       8       9       9      10
       8       9       9      10       8       9       9      10       8       9
       9      10       8       9       9      10       8       9       9      10
       8       9       9      10       8       9       9      10       8       9
       9      10       8       9       9      10       8       9       9      10
       8       9       9      10       8       9       9      10       8       9
       9      10       8       9       9      10       8       9       9      10
       8       9       9      10       8       9       9      10       8       9
       9      10       8       9       9      10       8       9       9      10
       8       9       9      10       8       9       9      10       8       9
       9      10       8       9       9      10       8       9       9      10
       8       9       9      10       8       9       9      10       8       9
       9      10       8       9       9      10       8       9       9      10
       8       9       9      10       8       9       9      10       8       9
       9      10       8       9       9      10       8       9       9      10
       8       9       9      10       8       9       9      10       8       9
       9      10       8       9       9      10       8       9       9      10
       8       9       9      10       8       9       9      10       8       9
       9      10       8       9       9      10       8       9       9      10
       8       9       9      10       8       9       9      10       8       9
       9      10       8       9       9      10       8       9       9      10
       8       9       9      10       8       9       9      10       8       9
       9      10       8       9       9      10       8       9       9      10
       8       9       9      10       8       9       9      10       8       9
       9      10       8       9       9      10       8       9       9      10
       8       9       9      10       8       9       9      10       8       9
       9      10       8       9       9      10       8       9       9      10
       8       9       9      10       8       9       9      10       8       9
       9      10       8       9       9      10       8       9       9      10
       8       9       9      10       8       9       9      10       8       9
       9      10       8       9       9      10       8       9       9      10
       8       9       9      10       8       9       9      10       8       9
       9      10       8       9       9      10       8       9       9      10
       8       9       9      10       8       9       9      10       8       9
       9      10       8       9       9      10       8       9       9      10
       8       9       9      10       8       9       9      10       8       9
       9      10       8       9       9      10       8       9       9      10
       8       9       9      10       8       9       9      10       8       9
       9      10       8       9       9      10       8       9       9      10
       8       9       9      10       8       9       9      10       8       9
       9      10       8       9       9      10       8       9       9      10
       8       9       9      10       8       9       9      10       8       9
       9      10       8       9       9      10       8       9       9      10
       8       9       9      10       8       9       9      10       8       9
       9      10       8       9       9      10       8       9       9      10
       8       9       9      10       8       9       9      10       8       9
       9      10       8       9       9      10       8       9       9      10
       8       9       9      10       8       9       9      10       8       9
       9      10       8       9       9      10       8       9       9      10
       8       9       9      10       8       9       9      10       8       9
       9      10       8       9       9      10       8       9       9      10
       8       9       9      10       8       9       9      10       8       9
       9      10       8       9       9      10       8       9       9      10
       8       9       9      10       8       9       9      10       8       9
       9      10       8       9       9      10       8       9       9      10
       8       9       9      10       8       9       9      10       8       9
       9      10       8       9       9      10       8       9       9      10
       8       9       9      10       8       9       9      10       8       9
       9      10       8       9       9      10       8       9       9      10
       8       9       9      10       8       9       9      10       8       9
       9      10       8       9       9      10       8       9       9      10
       8       9       9      10       8       9       9      10       8       9
       9      10       8       9       9      10       8       9       9      10
       8       9       9      10       8       9       9      10       8       9
       9      10       8       9       9      10       8       9       9      10
       8       9       9      10       8       9       9      10       8       9
       9      10       8       9       9      10       8       9       9      10
       8       9       9      10       8       9       9      10       8       9
       9      10       8       9       9      10       8       9       9      10
       8       9       9      10       8       9       9      10       8       9
       9      10       8       9       9      10       8       9       9      10
       8       9       9      10       8       9       9      10       8       9
       9      10       8       9       9      10       8       9       9      10
       8       9       9      10       8       9       9      10       8       9
       9      10       8       9       9      10       8       9       9      10
       8       9       9      10       8       9       9      10       8       9
       9      10       8       9       9      10       8       9       9      10
       8       9       9      10       8       9       9      10       8       9
       9      10       8       9       9      10       8       9       9      10
       8       9       9      10       8       9       9      10       8       9
       9      10       8       9       9      10       8       9       9      10
       8       9       9      10       8       9       9      10       8       9
       9      10       8       9       9      10       8       9       9      10
       8       9       9      10       8       9       9      10       8       9
       9      10       8       9       9      10       8       9       9      10
       8       9       9      10       8       9       9      10       8       9
       9      10       8       9       9      10       8       9       9      10
       8       9       9      10       8       9       9      10       8       9
       9      10       8       9       9      10       8       9       9      10
       8       9       9      10       8       9       9      10       8       9
       9      10       8       9       9      10       8       9       9      10
       8       9       9      10       8       9       9      10       8       9
       9      10       8       9       9      10       8       9       9      10
       8       9       9      10       8       9       9      10       8       9
       9      10       8       9       9      10       8       9       9      10
       8       9       9      10       8       9       9      10       8       9
       9      10       8       9       9      10       8       9       9      10
       8       9       9      10       8       9       9      10       8       9
       9      10       8       9       9      10       8       9       9      10
       8       9       9      10       8       9       9      10       8       9
       9      10       8       9       9      10       8       9       9      10
       8       9       9      10       8       9       9      10       8       9
       9      10       8       9       9      10       8       9       9      10
       8       9       9      10       8       9       9      10       8       9
       9      10       8       9       9      10       8       9       9      10
       8       9       9      10       8       9       9      10       8       9
       9      10       8       9       9      10       8       9       9      10
       8       9       9      10       8       9       9      10       8       9
       9      10       8       9       9      10       8       9       9      10
       8       9       9      10       8       9       9      10       8       9
       9      10       8       9       9      10       8       9       9      10
       8       9       9      10       8       9       9      10       8       9
       9      10       8       9       9      10       8       9       9      10
       8       9       9      10       8       9       9      10       8       9
       9      10       8       9       9      10       8       9       9      10
       8       9       9      10       8       9       9      10       8       9
       9      10       8       9       9      10       8       9       9      10
       8       9       9      10       8       9       9      10       8       9
       9      10       8       9       9      10       8       9       9      10
       8       9       9      10       8       9       9      10       8       9
       9      10       8       9       9      10       8       9       9      10
       8       9       9      10       8       9       9      10       8       9
       9      10       8       9       9      10       8       9       9      10
       8       9       9      10       8       9       9      10       8       9
       9      10       8       9       9      10       8       9       9      10
       8       9       9      10       8       9       9      10       8       9
       9      10       8       9       9      10       8       9       9      10
       8       9       9      10       8       9       9      10       8       9
       9      10       8       9       9      10       8       9       9      10
       8       9       9      10       8       9       9      10       8       9
       9      10       8       9       9      10       8       9       9      10
       8       9       9      10       8       9       9      10       8       9
       9      10       8       9       9      10       8       9       9      10
       8       9       9      10       8       9       9      10       8       9
       9      10       8       9       9      10       8       9       9      10
       8       9       9      10       8       9       9      10       8       9
       9      10       8       9       9      10       8       9       9      10
       8       9       9      10       8       9       9      10       8       9
       9      10       8       9       9      10       8       9       9      10
       8       9       9      10       8       9       9      10       8       9
       9      10       8       9       9      10       8       9       9      10
       8       9       9      10       8       9       9      10       8       9
       9      10       8       9       9      10       8       9       9      10
       8       9       9      10       8       9       9      10       8       9
       9      10       8       9       9      10       8       9       9      10
       8       9       9      10       8       9       9      10       8       9
       9      10       8       9       9      10       8       9       9      10
       8       9       9      10       8       9       9      10       8       9
       9      10       8       9       9      10       8       9       9      10
       8       9       9      10       8       9       9      10       8       9
       9      10       8       9       9      10       8       9       9      10
       8       9       9      10       8       9       9      10       8       9
       9      10       8       9       9      10       8       9       9      10
       8       9       9      10       8       9       9      10       8       9
       9      10       8       9       9      10       8       9       9      10
       8       9       9      10       8       9       9      10       8       9
       9      10       8       9       9      10       8       9       9      10
       8       9       9      10       8       9       9      10       8       9
       9      10       8       9       9      10       8       9       9      10
       8       9       9      10       8       9       9      10       8       9
       9      10       8       9       9      10       8       9       9      10
       8       9       9      10       8       9       9      10       8       9
       9      10       8       9       9      10       8       9       9      10
       8       9       9      10       8       9       9      10       8       9
       9      10       8       9       9      10       8       9       9      10
       8       9       9      10       8       9       9      10       8       9
       9      10       8       9       9      10       8       9       9      10
       8       9       9      10       8       9       9      10       8       9
       9      10       8       9       9      10       8       9       9      10
       8       9       9      10       8       9       9      10       8       9
       9      10       8       9       9      10       8       9       9      10
       8       9       9      10       8       9       9      10       8       9
       9      10       8       9       9      10       8       9       9      10
       8       9       9      10       8       9       9      10       8       9
       9      10       8       9       9      10       8       9       9      10
       8       9       9      10       8       9       9      10       8       9
       9      10       8       9       9      10       8       9       9      10
       8       9       9      10       8       9       9      10       8       9
       9      10       8       9       9      10       8       9       9      10
       8       9       9      10       8       9       9      10       8       9
       9      10       8       9       9      10       8       9       9      10
       8       9       9      10       8       9       9      10       8       9
       9      10       8       9       9      10       8       9       9      10
       8       9       9      10       8       9       9      10       8       9
       9      10       8       9       9      10       8       9       9      10
       8       9       9      10       8       9       9      10       8       9
       9      10       8       9       9      10       8       9       9      10
       8       9       9      10       8       9       9      10       8       9
       9      10       8       9       9      10       8       9       9      10
       8       9       9      10       8       9       9      10       8       9
       9      10       8       9       9      10       8       9       9      10
       8       9       9      10       8       9       9      10       8       9
       9      10       8       9       9      10       8       9       9      10
       8       9       9      10       8       9       9      10       8       9
       9      10       8       9       9      10       8       9       9      10
       8       9       9      10       8       9       9      10       8       9
       9      10       8       9       9      10       8       9       9      10
       8       9       9      10       8       9       9      10       8       9
       9      10       8       9       9      10       8       9       9      10
       8       9       9      10       8       9       9      10       8       9
       9      10       8       9       9      10       8       9       9      10
       8       9       9      10       8       9       9      10       8       9
       9      10       8       9       9      10       8       9       9      10
       8       9       9      10       8       9       9      10       8       9
       9      10       8       9       9      10       8       9       9      10
       8       9       9      10       8       9       9      10       8       9
       9      10       8       9       9      10       8       9       9      10
       8       9       9      10       8       9       9      10       8       9
       9      10       8       9       9      10       8       9       9      10
       8       9       9      10       8       9       9      10       8       9
       9      10       8       9       9      10       8       9       9      10
       8       9       9      10       8       9       9      10       8       9
       9      10       8       9       9      10       8       9       9      10
       8       9       9      10       8       9       9      10       8       9
       9      10       8       9       9      10       8       9       9      10
       8       9       9      10       8       9       9      10       8       9
       9      10       8       9       9      10       8       9       9      10
       8       9       9      10       8       9       9      10       8       9
       9      10       8       9       9      10       8       9       9      10
       8       9       9      10       8       9       9      10       8       9
       9      10       8       9       9      10       8       9       9      10
       8       9       9      10       8       9       9      10       8       9
       9      10       8       9       9      10       8       9       9      10
       8       9       9      10       8       9       9      10       8       9
       9      10       8       9       9      10       8       9       9      10
       8       9       9      10       8       9       9      10       8       9
       9      10       8       9       9      10       8       9       9      10
       8       9       9      10       8       9       9      10       8       9
       9      10       8       9       9      10       8       9       9      10
       8       9       9      10       8       9       9      10       8       9
       9      10       8       9       9      10       8       9       9      10
       8       9       9      10       8       9       9      10       8       9
       9      10       8       9       9      10       8       9       9      10
       8       9       9      10       8       9       9      10       8       9
       9      10       8       9       9      10       8       9       9      10
       8       9       9      10       8       9       9      10       8       9
       9      10       8       9       9      10       8       9       9      10
       8       9       9      10       8       9       9      10       8       9
       9      10       8       9       9      10       8       9       9      10
       8       9       9      10       8       9       9      10       8       9
       9      10       8       9       9      10       8       9       9      10
       8       9       9      10       8       9       9      10       8       9
       9      10       8       9       9      10       8       9       9      10
       8       9       9      10       8       9       9      10       8       9
       9      10       8       9       9      10       8       9       9      10
       8       9       9      10       8       9       9      10       8       9
       9      10       8       9       9      10       8       9       9      10
       8       9       9      10       8       9       9      10       8       9
       9      10       8       9       9      10       8       9       9      10
       8       9       9      10       8       9       9      10       8       9
       9      10       8       9       9      10       8       9       9      10
       8       9       9      10       8       9       9      10       8       9
       9      10       8       9       9      10       8       9       9      10
       8       9       9      10       8       9       9      10       8       9
       9      10       8       9       9      10       8       9       9      10
       8       9       9      10       8       9       9      10       8       9
       9      10       8       9       9      10       8       9       9      10
       8       9       9      10       8       9       9      10       8       9
       9      10       8       9       9      10       8       9       9      10
       8       9       9      10       8       9       9      10       8       9
       9      10       8       9       9      10       8       9       9      10
       8       9       9      10       8       9       9      10       8       9
       9      10       8       9       9      10       8       9       9      10
       8       9       9      10       8       9       9      10       8       9
       9      10       8       9       9      10       8       9       9      10
       8       9       9      10       8       9       9      10       8       9
       9      10       8       9       9      10       8       9       9      10
       8       9       9      10       8       9       9      10       8       9
       9      10       8       9       9      10       8       9       9      10
       8       9       9      10       8       9       9      10       8       9
       9      10       8       9       9      10       8       9       9      10
       8       9       9      10       8       9       9      10       8       9
       9      10       8       9       9      10       8       9       9      10
       8       9       9      10       8       9       9      10       8       9
       9      10       8       9       9      10       8       9       9      10
       8       9       9      10       8       9       9      10       8       9
       9      10       8       9       9      10       8       9       9      10
       8       9       9      10       8       9       9      10       8       9
       9      10       8       9       9      10       8       9       9      10
       8       9       9      10       8       9       9      10       8       9
       9      10       8       9       9      10       8       9       9      10
       8       9       9      10       8       9       9      10       8       9
       9      10       8       9       9      10       8       9       9      10
       8       9       9      10       8       9       9      10       8       9
       9      10       8       9       9      10       8       9       9      10
       8       9       9      10       8       9       9      10       8       9
       9      10       8       9       9      10       8       9       9      10
       8       9       9      10       8       9       9      10       8       9
       9      10       8       9       9      10       8       9       9      10
       8       9       9      10       8       9       9      10       8       9
       9      10       8       9       9      10       8       9       9      10
       8       9       9      10       8       9       9      10       8       9
       9      10       8       9       9      10       8       9       9      10
       8       9       9      10       8       9       9      10       8       9
       9      10       8       9       9      10       8       9       9      10
       8       9       9      10       8       9       9      10       8       9
       9      10       8       9       9      10       8       9       9      10
       8       9       9      10       8       9       9      10       8       9
       9      10       8       9       9      10       8       9       9      10
       8       9       9      10       8       9       9      10       8       9
       9      10       8       9       9      10       8       9       9      10
       8       9       9      10       8       9       9      10       8       9
       9      10       8       9       9      10       8       9       9      10
       8       9       9      10       8       9       9      10       8       9
       9      10       8       9       9      10       8       9       9      10
       8       9       9      10       8       9       9      10       8       9
       9      10       8       9       9      10       8       9       9      10
       8       9       9      10       8       9       9      10       8       9
       9      10       8       9       9      10       8       9       9      10
       8       9       9      10       8       9       9      10       8       9
       9      10       8       9       9      10       8       9       9      10
       8       9       9      10       8       9       9      10       8       9
       9      10       8       9       9      10       8       9       9      10
       8       9       9      10       8       9       9      10       8       9
       9      10       8       9       9      10       8       9       9      10
       8       9       9      10       8       9       9      10       8       9
       9      10       8       9       9      10       8       9       9      10
       8       9       9      10       8       9       9      10       8       9
       9      10       8       9       9      10       8       9       9      10
       8       9       9      10       8       9       9      10       8       9
       9      10       8       9       9      10       8       9       9      10
       8       9       9      10       8       9       9      10       8       9
       9      10       8       9       9      10       8       9       9      10
       8       9       9      10       8       9       9      10       8       9
       9      10       8       9       9      10       8       9       9      10
       8       9       9      10       8       9       9      10       8       9
       9      10       8       9       9      10       8       9       9      10
       8       9       9      10       8       9       9      10       8       9
       9      10       8       9       9      10       8       9       9      10
       8       9       9      10       8       9       9      10       8       9
       9      10       8       9       9      10       8       9       9      10
       8       9       9      10       8       9       9      10       8       9
       9      10       8       9       9      10       8       9       9      10
       8       9       9      10       8       9       9      10       8       9
       9      10       8       9       9      10       8       9       9      10
       8       9       9      10       8       9       9      10       8       9
       9      10       8       9       9      10       8       9       9      10
       8       9       9      10       8       9       9      10       8       9
       9      10       8       9       9      10       8       9       9      10
       8       9       9      10       8       9       9      10       8       9
       9      10       8       9       9      10       8       9       9      10
       8       9       9      10       8       9       9      10       8       9
       9      10       8       9       9      10       8       9       9      10
       8       9       9      10       8       9       9      10       8       9
       9      10       8       9       9      10       8       9       9      10
       8       9       9      10       8       9       9      10       8       9
       9      10       8       9       9      10       8       9       9      10
       8       9       9      10       8       9       9      10       8       9
       9      10       8       9       9      10       8       9       9      10
       8       9       9      10       8       9       9      10       8       9
       9      10       8       9       9      10       8       9       9      10
       8       9       9      10       8       9       9      10       8       9
       9      10       8       9       9      10       8       9       9      10
       8       9       9      10       8       9       9      10       8       9
       9      10       8       9       9      10       8       9       9      10
       8       9       9      10       8       9       9      10       8       9
       9      10       8       9       9      10       8       9       9      10
       8       9       9      10       8       9       9      10       8       9
       9      10       8       9       9      10       8       9       9      10
       8       9       9      10       8       9       9      10       8       9
       9      10       8       9       9      10       8       9       9      10
       8       9       9      10       8       9       9      10       8       9
       9      10       8       9       9      10       8       9       9      10
       8       9       9      10       8       9       9      10       8       9
       9      10       8       9       9      10       8       9       9      10
       8       9       9      10       8       9       9      10       8       9
       9      10       8       9       9      10       8       9       9      10
       8       9       9      10       8       9       9      10       8       9
       9      10       8       9       9      10       8       9       9      10
       8       9       9      10       8       9       9      10       8       9
       9      10       8       9       9      10       8       9       9      10
       8       9       9      10       8       9       9      10       8       9
       9      10       8       9       9      10       8       9       9      10
       8       9       9      10       8       9       9      10       8       9
       9      10       8       9       9      10       8       9       9      10
       8       9       9      10       8       9       9      10       8       9
       9      10       8       9       9      10       8       9       9      10
       8       9       9      10       8       9       9      10       8       9
       9      10       8       9       9      10       8       9       9      10
       8       9       9      10       8       9       9      10       8       9
       9      10       8       9       9      10       8       9       9      10
       8       9       9      10       8       9       9      10       8       9
       9      10       8       9       9      10       8       9       9      10
       8       9       9      10       8       9       9      10       8       9
       9      10       8       9       9      10       8       9       9      10
       8       9       9      10       8       9       9      10       8       9
       9      10       8       9       9      10       8       9       9      10
       8       9       9      10       8       9       9      10       8       9
       9      10       8       9       9      10       8       9       9      10
       8       9       9      10       8       9       9      10       8       9
       9      10       8       9       9      10       8       9       9      10
       8       9       9      10       8       9       9      10       8       9
       9      10       8       9       9      10       8       9       9      10
       8       9       9      10       8       9       9      10       8       9
       9      10       8       9       9      10       8       9       9      10
       8       9       9      10       8       9       9      10       8       9
       9      10       8       9       9      10       8       9       9      10
       8       9       9      10       8       9       9      10       8       9
       9      10       8       9       9      10       8       9       9      10
       8       9       9      10       8       9       9      10       8       9
       9      10       8       9       9      10       8       9       9      10
       8       9       9      10       8       9       9      10       8       9
       9      10       8       9       9      10       8       9       9      10
       8       9       9      10       8       9       9      10       8       9
       9      10       8       9       9      10       8       9       9      10
       8       9       9      10       8       9       9      10       8       9
       9      10       8       9       9      10       8       9       9      10
       8       9       9      10       8       9       9      10       8       9
       9      10       8       9       9      10       8       9       9      10
       8       9       9      10       8       9       9      10       8       9
       9      10       8       9       9      10       8       9       9      10
       8       9       9      10       8       9       9      10       8       9
       9      10       8       9       9      10       8       9       9      10
       8       9       9      10       8       9       9      10       8       9
       9      10       8       9       9      10       8       9       9      10
       8       9       9      10       8       9       9      10       8       9
       9      10       8       9       9      10       8       9       9      10
       8       9       9      10       8       9       9      10       8       9
       9      10       8       9       9      10       8       9       9      10
       8       9       9      10       8       9       9      10       8       9
       9      10       8       9       9      10       8       9       9      10
       8       9       9      10       8       9       9      10       8       9
       9      10       8       9       9      10       8       9       9      10
       8       9       9      10       8       9       9      10       8       9
       9      10       8       9       9      10       8       9       9      10
       8       9       9      10       8       9       9      10       8       9
       9      10       8       9       9      10       8       9       9      10
       8       9       9      10       8       9       9      10       8       9
       9      10       8       9       9      10       8       9       9      10
       8       9       9      10       8       9       9      10       8       9
       9      10       8       9       9      10       8       9       9      10
       8       9       9      10       8       9       9      10       8       9
       9      10       8       9       9      10       8       9       9      10
       8       9       9      10       8       9       9      10       8       9
       9      10       8       9       9      10       8       9       9      10
       8       9       9      10       8       9       9      10       8       9
       9      10       8       9       9      10       8       9       9      10
       8       9       9      10       8       9       9      10       8       9
       9      10       8       9       9      10       8       9       9      10
       8       9       9      10       8       9       9      10       8       9
       9      10       8       9       9      10       8       9       9      10
       8       9       9      10       8       9       9      10       8       9
       9      10       8       9       9      10       8       9       9      10
       8       9       9      10       8       9       9      10       8       9
       9      10       8       9       9      10       8       9       9      10
       8       9       9      10       8       9       9      10       8       9
       9      10       8       9       9      10       8       9       9      10
       8       9       9      10       8       9       9      10       8       9
       9      10       8       9       9      10       8       9       9      10
       8       9       9      10       8       9       9      10       8       9
       9      10       8       9       9      10       8       9       9      10
       8       9       9      10       8       9       9      10       8       9
       9      10       8       9       9      10       8       9       9      10
       8       9       9      10       8       9       9      10       8       9
       9      10       8       9       9      10       8       9       9      10
       8       9       9      10       8       9       9      10       8       9
       9      10       8       9       9      10       8       9       9      10
       8       9       9      10       8       9       9      10       8       9
       9      10       8       9       9      10       8       9       9      10
       8       9       9      10       8       9       9      10       8       9
       9      10       8       9       9      10       8       9       9      10
       8       9       9      10       8       9       9      10       8       9
       9      10       8       9       9      10       8       9       9      10
       8       9       9      10       8       9       9      10       8       9
       9      10       8       9       9      10       8       9       9      10
       8       9       9      10       8       9       9      10       8       9
       9      10       8       9       9      10       8       9       9      10
       8       9       9      10       8       9       9      10       8       9
       9      10       8       9       9      10       8       9       9      10
       8       9       9      10       8       9       9      10       8       9
       9      10       8       9       9      10       8       9       9      10
       8       9       9      10       8       9       9      10       8       9
       9      10       8       9       9      10       8       9       9      10
       8       9       9      10       8       9       9      10       8       9
       9      10       8       9       9      10       8       9       9      10
       8       9       9      10       8       9       9      10       8       9
       9      10       8       9       9      10       8       9       9      10
       8       9       9      10       8       9       9      10       8       9
       9      10       8       9       9      10       8       9       9      10
       8       9       9      10       8       9       9      10       8       9
       9      10       8       9       9      10       8       9       9      10
       8       9       9      10       8       9       9      10       8       9
       9      10       8       9       9      10       8       9       9      10
       8       9       9      10       8       9       9      10       8       9
       9      10       8       9       9      10       8       9       9      10
       8       9       9      10       8       9       9      10       8       9
       9      10       8       9       9      10       8       9       9      10
       8       9       9      10       8       9       9      10       8       9
       9      10       8       9       9      10       8       9       9      10
       8       9       9      10       8       9       9      10       8       9
       9      10       8       9       9      10       8       9       9      10
       8       9       9      10       8       9       9      10       8       9
       9      10       8       9       9      10       8       9       9      10
       8       9       9      10       8       9       9      10       8       9
       9      10       8       9       9      10       8       9       9      10
       8       9       9      10       8       9       9      10       8       9
       9      10       8       9       9      10       8       9       9      10
       8       9       9      10       8       9       9      10       8       9
       9      10       8       9       9      10       8       9       9      10
       8       9       9      10       8       9       9      10       8       9
       9      10       8       9       9      10       8       9       9      10
       8       9       9      10       8       9       9      10       8       9
       9      10       8       9       9      10       8       9       9      10
       8       9       9      10       8       9       9      10       8       9
       9      10       8       9       9      10       8       9       9      10
       8       9       9      10       8       9       9      10       8       9
       9      10       8       9       9      10       8       9       9      10
       8       9       9      10       8       9       9      10       8       9
       9      10       8       9       9      10       8       9       9      10
       8       9       9      10       8       9       9      10       8       9
       9      10       8       9       9      10       8       9       9      10
       8       9       9      10       8       9       9      10       8       9
       9      10       8       9       9      10       8       9       9      10
       8       9       9      10       8       9       9      10       8       9
       9      10       8       9       9      10       8       9       9      10
       8       9       9      10       8       9       9      10       8       9
       9      10       8       9       9      10       8       9       9      10
       8       9       9      10       8       9       9      10       8       9
       9      10       8       9       9      10       8       9       9      10
       8       9       9      10       8       9       9      10       8       9
       9      10       8       9       9      10       8       9       9      10
       8       9       9      10       8       9       9      10       8       9
       9      10       8       9       9      10       8       9       9      10
       8       9       9      10       8       9       9      10       8       9
       9      10       8       9       9      10       8       9       9      10
       8       9       9      10       8       9       9      10       8       9
       9      10       8       9       9      10       8       9       9      10
       8       9       9      10       8       9       9      10       8       9
       9      10       8       9       9      10       8       9       9      10
       8       9       9      10       8       9       9      10       8       9
       9      10       8       9       9      10       8       9       9      10
       8       9       9      10       8       9       9      10       8       9
       9      10       8       9       9      10       8       9       9      10
       8       9       9      10       8       9       9      10       8       9
       9      10       8       9       9      10       8       9       9      10
       8       9       9      10       8       9       9      10       8       9
       9      10       8       9       9      10       8       9       9      10
       8       9       9      10       8       9       9      10       8       9
       9      10       8       9       9      10       8       9       9      10
       8       9       9      10       8       9       9      10       8       9
       9      10       8       9       9      10       8       9       9      10
       8       9       9      10       8       9       9      10       8       9
       9      10       8       9       9      10       8       9       9      10
       8       9       9      10       8       9       9      10       8       9
       9      10       8       9       9      10       8       9       9      10
       8       9       9      10       8       9       9      10       8       9
       9      10       8       9       9      10       8       9       9      10
       8       9       9      10       8       9       9      10       8       9
       9      10       8       9       9      10       8       9       9      10
       8       9       9      10       8       9       9      10       8       9
       9      10       8       9       9      10       8       9       9      10
       8       9       9      10       8       9       9      10       8       9
       9      10       8       9       9      10       8       9       9      10
       8       9       9      10       8       9       9      10       8       9
       9      10       8       9       9      10       8       9       9      10
       8       9       9      10       8       9       9      10       8       9
       9      10       8       9       9      10       8       9       9      10
       8       9       9      10       8       9       9      10       8       9
       9      10       8       9       9      10       8       9       9      10
       8       9       9      10       8       9       9      10       8       9
       9      10       8       9       9      10       8       9       9      10
       8       9       9      10       8       9       9      10       8       9
       9      10       8       9       9      10       8       9       9      10
       8       9       9      10       8       9       9      10       8       9
       9      10       8       9       9      10       8       9       9      10
       8       9       9      10       8       9       9      10       8       9
       9      10       8       9       9      10       8       9       9      10
       8       9       9      10       8       9       9      10       8       9
       9      10       8       9       9      10       8       9       9      10
       8       9       9      10       8       9       9      10       8       9
       9      10       8       9       9      10       8       9       9      10
       8       9       9      10       8       9       9      10       8       9
       9      10       8       9       9      10       8       9       9      10
       8       9       9      10       8       9       9      10       8       9
       9      10       8       9       9      10       8       9       9      10
       8       9       9      10       8       9       9      10       8       9
       9      10       8       9       9      10       8       9       9      10
       8       9       9      10       8       9       9      10       8       9
       9      10       8       9       9      10       8       9       9      10
       8       9       9      10       8       9       9      10       8       9
       9      10       8       9       9      10       8       9       9      10
       8       9       9      10       8       9       9      10       8       9
       9      10       8       9       9      10       8       9       9      10
       8       9       9      10       8       9       9      10       8       9
       9      10       8       9       9      10       8       9       9      10
       8       9       9      10       8       9       9      10       8       9
       9      10       8       9       9      10       8       9       9      10
       8       9       9      10       8       9       9      10       8       9
       9      10       8       9       9      10       8       9       9      10
       8       9       9      10       8       9       9      10       8       9
       9      10       8       9       9      10       8       9       9      10
       8       9       9      10       8       9       9      10       8       9
       9      10       8       9       9      10       8       9       9      10
       8       9       9      10       8       9       9      10       8       9
       9      10       8       9       9      10       8       9       9      10
       8       9       9      10       8       9       9      10       8       9
       9      10       8       9       9      10       8       9       9      10
       8       9       9      10       8       9       9      10       8       9
       9      10       8       9       9      10       8       9       9      10
       8       9       9      10       8       9       9      10       8       9
       9      10       8       9       9      10       8       9       9      10
       8       9       9      10       8       9       9      10       8       9
       9      10       8       9       9      10       8       9       9      10
       8       9       9      10       8       9       9      10       8       9
       9      10       8       9       9      10       8       9       9      10
       8       9       9      10       8       9       9      10       8       9
       9      10       8       9       9      10       8       9       9      10
       8       9       9      10       8       9       9      10       8       9
       9      10       8       9       9      10       8       9       9      10
       8       9       9      10       8       9       9      10       8       9
       9      10       8       9       9      10       8       9       9      10
       8       9       9      10       8       9       9      10       8       9
       9      10       8       9       9      10       8       9       9      10
       8       9       9      10       8       9       9      10       8       9
       9      10       8       9       9      10       8       9       9      10
       8       9       9      10       8       9       9      10       8       9
       9      10       8       9       9      10
%FLAG NUMBER_EXCLUDED_ATOMS                                                     
%FORMAT(10I8)                                                                   
       6       7       4       3       7       3      10       4      10       7
       6       3       2       1       7       3      10       4      10       7
       6       3       2       1       7       3      10       4      10       7
       6       3       2       1       7       3       5       4       3       2
       1       1       3       2       1       1       3       2       1       1
       3       2       1       1       3       2       1       1       3       2
       1       1       3       2       1       1       3       2       1       1
       3       2       1       1       3       2       1       1       3       2
       1       1       3       2       1       1       3       2       1       1
       3       2       1       1       3       2       1       1       3       2
       1       1       3       2       1       1       3       2       1       1
       3       2       1       1       3       2       1       1       3       2
       1       1       3       2       1       1       3       2       1       1
       3       2       1       1       3       2       1       1       3       2
       1       1       3       2       1       1       3       2       1       1
       3       2       1       1       3       2       1       1       3       2
       1       1       3       2       1       1       3       2       1       1
       3       2       1       1       3       2       1       1       3       2
       1       1       3       2       1       1       3       2       1       1
       3       2       1       1       3       2       1       1       3       2
       1       1       3       2       1       1       3       2       1       1
       3       2       1       1       3       2       1       1       3       2
       1       1       3       2       1       1       3       2       1       1
       3       2       1       1       3       2       1       1       3       2
       1       1       3       2       1       1       3       2       1       1
       3       2       1       1       3       2       1       1       3       2
       1       1       3       2       1       1       3       2       1       1
       3       2       1       1       3       2       1       1       3       2
       1       1       3       2       1       1       3       2       1       1
       3       2       1       1       3       2       1       1       3       2
       1       1       3       2       1       1       3       2       1       1
       3       2       1       1       3       2       1       1       3       2
       1       1       3       2       1       1       3       2       1       1
       3       2       1       1       3       2       1       1       3       2
       1       1       3       2       1       1       3       2       1       1
       3       2       1       1       3       2       1       1       3       2
       1       1       3       2       1       1       3       2       1       1
       3       2       1       1       3       2       1       1       3       2
       1       1       3       2       1       1       3       2       1       1
       3       2       1       1       3       2       1       1       3       2
       1       1       3       2       1       1       3       2       1       1
       3       2       1       1       3       2       1       1       3       2
       1       1       3       2       1       1       3       2       1       1
       3       2       1       1       3       2       1       1       3       2
       1       1       3       2       1       1       3       2       1       1
       3       2       1       1       3       2       1       1       3       2
       1       1       3       2       1       1       3       2       1       1
       3       2       1       1       3       2       1       1       3       2
       1       1       3       2       1       1       3       2       1       1
       3       2       1       1       3       2       1       1       3       2
       1       1       3       2       1       1       3       2       1       1
       3       2       1       1       3       2       1       1       3       2
       1       1       3       2       1       1       3       2       1       1
       3       2       1       1       3       2       1       1       3       2
       1       1       3       2       1       1       3       2       1       1
       3       2       1       1       3       2       1       1       3       2
       1       1       3       2       1       1       3       2       1       1
       3       2       1       1       3       2       1       1       3       2
       1       1       3       2       1       1       3       2       1       1
       3       2       1       1       3       2       1       1       3       2
       1       1       3       2       1       1       3       2       1       1
       3       2       1       1       3       2       1       1       3       2
       1       1       3       2       1       1       3       2       1       1
       3       2       1       1       3       2       1       1       3       2
       1       1       3       2       1       1       3       2       1       1
       3       2       1       1       3       2       1       1       3       2
       1       1       3       2       1       1       3       2       1       1
       3       2       1       1       3       2       1       1       3       2
       1       1       3       2       1       1       3       2       1       1
       3       2       1       1       3       2       1       1       3       2
       1       1       3       2       1       1       3       2       1       1
       3       2       1       1       3       2       1       1       3       2
       1       1       3       2       1       1       3       2       1       1
       3       2       1       1       3       2       1       1       3       2
       1       1       3       2       1       1       3       2       1       1
       3       2       1       1       3       2       1       1       3       2
       1       1       3       2       1       1       3       2       1       1
       3       2       1       1       3       2       1       1       3       2
       1       1       3       2       1       1       3       2       1       1
       3       2       1       1       3       2       1       1       3       2
       1       1       3       2       1       1       3       2       1       1
       3       2       1       1       3       2       1       1       3       2
       1       1       3       2       1       1       3       2       1       1
       3       2       1       1       3       2       1       1       3       2
       1       1       3       2       1       1       3       2       1       1
       3       2       1       1       3       2       1       1       3       2
       1       1       3       2       1       1       3       2       1       1
       3       2       1       1       3       2       1       1       3       2
       1       1       3       2       1       1       3       2       1       1
       3       2       1       1       3       2       1       1       3       2
       1       1       3       2       1       1       3       2       1       1
       3       2       1       1       3       2       1       1       3       2
       1       1       3       2       1       1       3       2       1       1
       3       2       1       1       3       2       1       1       3       2
       1       1       3       2       1       1       3       2       1       1
       3       2       1       1       3       2       1       1       3       2
       1       1       3       2       1       1       3       2       1       1
       3       2       1       1       3       2       1       1       3       2
       1       1       3       2       1       1       3       2       1       1
       3       2       1       1       3       2       1       1       3       2
       1       1       3       2       1       1       3       2       1       1
       3       2       1       1       3       2       1       1       3       2
       1       1       3       2       1       1       3       2       1       1
       3       2       1       1       3       2       1       1       3       2
       1       1       3       2       1       1       3       2       1       1
       3       2       1       1       3       2       1       1       3       2
       1       1       3       2       1       1       3       2       1       1
       3       2       1       1       3       2       1       1       3       2
       1       1       3       2       1       1       3       2       1       1
       3       2       1       1       3       2       1       1       3       2
       1       1       3       2       1       1       3       2       1       1
       3       2       1       1       3       2       1       1       3       2
       1       1       3       2       1       1       3       2       1       1
       3       2       1       1       3       2       1       1       3       2
       1       1       3       2       1       1       3       2       1       1
       3       2       1       1       3       2       1       1       3       2
       1       1       3       2       1       1       3       2       1       1
       3       2       1       1       3       2       1       1       3       2
       1       1       3       2       1       1       3       2       1       1
       3       2       1       1       3       2       1       1       3       2
       1       1       3       2       1       1       3       2       1       1
       3       2       1       1       3       2       1       1       3       2
       1       1       3       2       1       1       3       2       1       1
       3       2       1       1       3       2       1       1       3       2
       1       1       3       2       1       1       3       2       1       1
       3       2       1       1       3       2       1       1       3       2
       1       1       3       2       1       1       3       2       1       1
       3       2       1       1       3       2       1       1       3       2
       1       1       3       2       1       1       3       2       1       1
       3       2       1       1       3       2       1       1       3       2
       1       1       3       2       1       1       3       2       1       1
       3       2       1       1       3       2       1       1       3       2
       1       1       3       2       1       1       3       2       1       1
       3       2       1       1       3       2       1       1       3       2
       1       1       3       2       1       1       3       2       1       1
       3       2       1       1       3       2       1       1       3       2
       1       1       3       2       1       1       3       2       1       1
       3       2       1       1       3       2       1       1       3       2
       1       1       3       2       1       1       3       2       1       1
       3       2       1       1       3       2       1       1       3       2
       1       1       3       2       1       1       3       2       1       1
       3       2       1       1       3       2       1       1       3       2
       1       1       3       2       1       1       3       2       1       1
       3       2       1       1       3       2       1       1       3       2
       1       1       3       2       1       1       3       2       1       1
       3       2       1       1       3       2       1       1       3       2
       1       1       3       2       1       1       3       2       1       1
       3       2       1       1       3       2       1       1       3       2
       1       1       3       2       1       1       3       2       1       1
       3       2       1       1       3       2       1       1       3       2
       1       1       3       2       1       1       3       2       1       1
       3       2       1       1       3       2       1       1       3       2
       1       1       3       2       1       1       3       2       1       1
       3       2       1       1       3       2       1       1       3       2
       1       1       3       2       1       1       3       2       1       1
       3       2       1       1       3       2       1       1       3       2
       1       1       3       2       1       1       3       2       1       1
       3       2       1       1       3       2       1       1       3       2
       1       1       3       2       1       1       3       2       1       1
       3       2       1       1       3       2       1       1       3       2
       1       1       3       2       1       1       3       2       1       1
       3       2       1       1       3       2       1       1       3       2
       1       1       3       2       1       1       3       2       1       1
       3       2       1       1       3       2       1       1       3       2
       1       1       3       2       1       1       3       2       1       1
       3       2       1       1       3       2       1       1       3       2
       1       1       3       2       1       1       3       2       1       1
       3       2       1       1       3       2       1       1       3       2
       1       1       3       2       1       1       3       2       1       1
       3       2       1       1       3       2       1       1       3       2
       1       1       3       2       1       1       3       2       1       1
       3       2       1       1       3       2       1       1       3       2
       1       1       3       2       1       1       3       2       1       1
       3       2       1       1       3       2       1       1       3       2
       1       1       3       2       1       1       3       2       1       1
       3       2       1       1       3       2       1       1       3       2
       1       1       3       2       1       1       3       2       1       1
       3       2       1       1       3       2       1       1       3       2
       1       1       3       2       1       1       3       2       1       1
       3       2       1       1       3       2       1       1       3       2
       1       1       3       2       1       1       3       2       1       1
       3       2       1       1       3       2       1       1       3       2
       1       1       3       2       1       1       3       2       1       1
       3       2       1       1       3       2       1       1       3       2
       1       1       3       2       1       1       3       2       1       1
       3       2       1       1       3       2       1       1       3       2
       1       1       3       2       1       1       3       2       1       1
       3       2       1       1       3       2       1       1       3       2
       1       1       3       2       1       1       3       2       1       1
       3       2       1       1       3       2       1       1       3       2
       1       1       3       2       1       1       3       2       1       1
       3       2       1       1       3       2       1       1       3       2
       1       1       3       2       1       1       3       2       1       1
       3       2       1       1       3       2       1       1       3       2
       1       1       3       2       1       1       3       2       1       1
       3       2       1       1       3       2       1       1       3       2
       1       1       3       2       1       1       3       2       1       1
       3       2       1       1       3       2       1       1       3       2
       1       1       3       2       1       1       3       2       1       1
       3       2       1       1       3       2       1       1       3       2
       1       1       3       2       1       1       3       2       1       1
       3       2       1       1       3       2       1       1       3       2
       1       1       3       2       1       1       3       2       1       1
       3       2       1       1       3       2       1       1       3       2
       1       1       3       2       1       1       3       2       1       1
       3       2       1       1       3       2       1       1       3       2
       1       1       3       2       1       1       3       2       1       1
       3       2       1       1       3       2       1       1       3       2
       1       1       3       2       1       1       3       2       1       1
       3       2       1       1       3       2       1       1       3       2
       1       1       3       2       1       1       3       2       1       1
       3       2       1       1       3       2       1       1       3       2
       1       1       3       2       1       1       3       2       1       1
       3       2       1       1       3       2       1       1       3       2
       1       1       3       2       1       1       3       2       1       1
       3       2       1       1       3       2       1       1       3       2
       1       1       3       2       1       1       3       2       1       1
       3       2       1       1       3       2       1       1       3       2
       1       1       3       2       1       1       3       2       1       1
       3       2       1       1       3       2       1       1       3       2
       1       1       3       2       1       1       3       2       1       1
       3       2       1       1       3       2       1       1       3       2
       1       1       3       2       1       1       3       2       1       1
       3       2       1       1       3       2       1       1       3       2
       1       1       3       2       1       1       3       2       1       1
       3       2       1       1       3       2       1       1       3       2
       1       1       3       2       1       1       3       2       1       1
       3       2       1       1       3       2       1       1       3       2
       1       1       3       2       1       1       3       2       1       1
       3       2       1       1       3       2       1       1       3       2
       1       1       3       2       1       1       3       2       1       1
       3       2       1       1       3       2       1       1       3       2
       1       1       3       2       1       1       3       2       1       1
       3       2       1       1       3       2       1       1       3       2
       1       1       3       2       1       1       3       2       1       1
       3       2       1       1       3       2       1       1       3       2
       1       1       3       2       1       1       3       2       1       1
       3       2       1       1       3       2       1       1       3       2
       1       1       3       2       1       1       3       2       1       1
       3       2       1       1       3       2       1       1       3       2
       1       1       3       2       1       1       3       2       1       1
       3       2       1       1       3       2       1       1       3       2
       1       1       3       2       1       1       3       2       1       1
       3       2       1       1       3       2       1       1       3       2
       1       1       3       2       1       1       3       2       1       1
       3       2       1       1       3       2       1       1       3       2
       1       1       3       2       1       1       3       2       1       1
       3       2       1       1       3       2       1       1       3       2
       1       1       3       2       1       1       3       2       1       1
       3       2       1       1       3       2       1       1       3       2
       1       1       3       2       1       1       3       2       1       1
       3       2       1       1       3       2       1       1       3       2
       1       1       3       2       1       1       3       2       1       1
       3       2       1       1       3       2       1       1       3       2
       1       1       3       2       1       1       3       2       1       1
       3       2       1       1       3       2       1       1       3       2
       1       1       3       2       1       1       3       2       1       1
       3       2       1       1       3       2       1       1       3       2
       1       1       3       2       1       1       3       2       1       1
       3       2       1       1       3       2       1       1       3       2
       1       1       3       2       1       1       3       2       1       1
       3       2       1       1       3       2       1       1       3       2
       1       1       3       2       1       1       3       2       1       1
       3       2       1       1       3       2       1       1       3       2
       1       1       3       2       1       1       3       2       1       1
       3       2       1       1       3       2       1       1       3       2
       1       1       3       2       1       1       3       2       1       1
       3       2       1       1       3       2       1       1       3       2
       1       1       3       2       1       1       3       2       1       1
       3       2       1       1       3       2       1       1       3       2
       1       1       3       2       1       1       3       2       1       1
       3       2       1       1       3       2       1       1       3       2
       1       1       3       2       1       1       3       2       1       1
       3       2       1       1       3       2       1       1       3       2
       1       1       3       2       1       1       3       2       1       1
       3       2       1       1       3       2       1       1       3       2
       1       1       3       2       1       1       3       2       1       1
       3       2       1       1       3       2       1       1       3       2
       1       1       3       2       1       1       3       2       1       1
       3       2       1       1       3       2       1       1       3       2
       1       1       3       2       1       1       3       2       1       1
       3       2       1       1       3       2       1       1       3       2
       1       1       3       2       1       1       3       2       1       1
       3       2       1       1       3       2       1       1       3       2
       1       1       3       2       1       1       3       2       1       1
       3       2       1       1       3       2       1       1       3       2
       1       1       3       2       1       1       3       2       1       1
       3       2       1       1       3       2       1       1       3       2
       1       1       3       2       1       1       3       2       1       1
       3       2       1       1       3       2       1       1       3       2
       1       1       3       2       1       1       3       2       1       1
       3       2       1       1       3       2       1       1       3       2
       1       1       3       2       1       1       3       2       1       1
       3       2       1       1       3       2       1       1       3       2
       1       1       3       2       1       1       3       2       1       1
       3       2       1       1       3       2       1       1       3       2
       1       1       3       2       1       1       3       2       1       1
       3       2       1       1       3       2       1       1       3       2
       1       1       3       2       1       1       3       2       1       1
       3       2       1       1       3       2       1       1       3       2
       1       1       3       2       1       1       3       2       1       1
       3       2       1       1       3       2       1       1       3       2
       1       1       3       2       1       1       3       2       1       1
       3       2       1       1       3       2       1       1       3       2
       1       1       3       2       1       1       3       2       1       1
       3       2       1       1       3       2       1       1       3       2
       1       1       3       2       1       1       3       2       1       1
       3       2       1       1       3       2       1       1       3       2
       1       1       3       2       1       1       3       2       1       1
       3       2       1       1       3       2       1       1       3       2
       1       1       3       2       1       1       3       2       1       1
       3       2       1       1       3       2       1       1       3       2
       1       1       3       2       1       1       3       2       1       1
       3       2       1       1       3       2       1       1       3       2
       1       1       3       2       1       1       3       2       1       1
       3       2       1       1       3       2       1       1       3       2
       1       1       3       2       1       1       3       2       1       1
       3       2       1       1       3       2       1       1       3       2
       1       1       3       2       1       1       3       2       1       1
       3       2       1       1       3       2       1       1       3       2
       1       1       3       2       1       1       3       2       1       1
       3       2       1       1       3       2       1       1       3       2
       1       1       3       2       1       1       3       2       1       1
       3       2       1       1       3       2       1       1       3       2
       1       1       3       2       1       1       3       2       1       1
       3       2       1       1       3       2       1       1       3       2
       1       1       3       2       1       1       3       2       1       1
       3       2       1       1       3       2       1       1       3       2
       1       1       3       2       1       1       3       2       1       1
       3       2       1       1       3       2       1       1       3       2
       1       1       3       2       1       1       3       2       1       1
       3       2       1       1       3       2       1       1       3       2
       1       1       3       2       1       1       3       2       1       1
       3       2       1       1       3       2       1       1       3       2
       1       1       3       2       1       1       3       2       1       1
       3       2       1       1       3       2       1       1       3       2
       1       1       3       2       1       1       3       2       1       1
       3       2       1       1       3       2       1       1       3       2
       1       1       3       2       1       1       3       2       1       1
       3       2       1       1       3       2       1       1       3       2
       1       1       3       2       1       1       3       2       1       1
       3       2       1       1       3       2       1       1       3       2
       1       1       3       2       1       1       3       2       1       1
       3       2       1       1       3       2       1       1       3       2
       1       1       3       2       1       1       3       2       1       1
       3       2       1       1       3       2       1       1       3       2
       1       1       3       2       1       1       3       2       1       1
       3       2       1       1       3       2       1       1       3       2
       1       1       3       2       1       1       3       2       1       1
       3       2       1       1       3       2       1       1       3       2
       1       1       3       2       1       1       3       2       1       1
       3       2       1       1       3       2       1       1       3       2
       1       1       3       2       1       1       3       2       1       1
       3       2       1       1       3       2       1       1       3       2
       1       1       3       2       1       1       3       2       1       1
       3       2       1       1       3       2       1       1       3       2
       1       1       3       2       1       1       3       2       1       1
       3       2       1       1       3       2       1       1       3       2
       1       1       3       2       1       1       3       2       1       1
       3       2       1       1       3       2       1       1       3       2
       1       1       3       2       1       1       3       2       1       1
       3       2       1       1       3       2       1       1       3       2
       1       1       3       2       1       1       3       2       1       1
       3       2       1       1       3       2       1       1       3       2
       1       1       3       2       1       1       3       2       1       1
       3       2       1       1       3       2       1       1       3       2
       1       1       3       2       1       1       3       2       1       1
       3       2       1       1       3       2       1       1       3       2
       1       1       3       2       1       1       3       2       1       1
       3       2       1       1       3       2       1       1       3       2
       1       1       3       2       1       1       3       2       1       1
       3       2       1       1       3       2       1       1       3       2
       1       1       3       2       1       1       3       2       1       1
       3       2       1       1       3       2       1       1       3       2
       1       1       3       2       1       1       3       2       1       1
       3       2       1       1       3       2       1       1       3       2
       1       1       3       2       1       1       3       2       1       1
       3       2       1       1       3       2       1       1       3       2
       1       1       3       2       1       1       3       2       1       1
       3       2       1       1       3       2       1       1       3       2
       1       1       3       2       1       1       3       2       1       1
       3       2       1       1       3       2       1       1       3       2
       1       1       3       2       1       1       3       2       1       1
       3       2       1       1       3       2       1       1       3       2
       1       1       3       2       1       1       3       2       1       1
       3       2       1       1       3       2       1       1       3       2
       1       1       3       2       1       1       3       2       1       1
       3       2       1       1       3       2       1       1       3       2
       1       1       3       2       1       1       3       2       1       1
       3       2       1       1       3       2       1       1       3       2
       1       1       3       2       1       1       3       2       1       1
       3       2       1       1       3       2       1       1       3       2
       1       1       3       2       1       1       3       2       1       1
       3       2       1       1       3       2       1       1       3       2
       1       1       3       2       1       1       3       2       1       1
       3       2       1       1       3       2       1       1       3       2
       1       1       3       2       1       1       3       2       1       1
       3       2       1       1       3       2       1       1       3       2
       1       1       3       2       1       1       3       2       1       1
       3       2       1       1       3       2       1       1       3       2
       1       1       3       2       1       1       3       2       1       1
       3       2       1       1       3       2       1       1       3       2
       1       1       3       2       1       1       3       2       1       1
       3       2       1       1       3       2       1       1       3       2
       1       1       3       2       1       1       3       2       1       1
       3       2       1       1       3       2       1       1       3       2
       1       1       3       2       1       1       3       2       1       1
       3       2       1       1       3       2       1       1       3       2
       1       1       3       2       1       1       3       2       1       1
       3       2       1       1       3       2       1       1       3       2
       1       1       3       2       1       1       3       2       1       1
       3       2       1       1       3       2       1       1       3       2
       1       1       3       2       1       1       3       2       1       1
       3       2       1       1       3       2       1       1       3       2
       1       1       3       2       1       1       3       2       1       1
       3       2       1       1       3       2       1       1       3       2
       1       1       3       2       1       1       3       2       1       1
       3       2       1       1       3       2       1       1       3       2
       1       1       3       2       1       1       3       2       1       1
       3       2       1       1       3       2       1       1       3       2
       1       1       3       2       1       1       3       2       1       1
       3       2       1       1       3       2       1       1       3       2
       1       1       3       2       1       1       3       2       1       1
       3       2       1       1       3       2       1       1       3       2
       1       1       3       2       1       1       3       2       1       1
       3       2       1       1       3       2       1       1       3       2
       1       1       3       2       1       1       3       2       1       1
       3       2       1       1       3       2       1       1       3       2
       1       1       3       2       1       1       3       2       1       1
       3       2       1       1       3       2       1       1       3       2
       1       1       3       2       1       1       3       2       1       1
       3       2       1       1       3       2       1       1       3       2
       1       1       3       2       1       1       3       2       1       1
       3       2       1       1       3       2       1       1       3       2
       1       1       3       2       1       1       3       2       1       1
       3       2       1       1       3       2       1       1       3       2
       1       1       3       2       1       1       3       2       1       1
       3       2       1       1       3       2       1       1       3       2
       1       1       3       2       1       1       3       2       1       1
       3       2       1       1       3       2       1       1       3       2
       1       1       3       2       1       1       3       2       1       1
       3       2       1       1       3       2       1       1       3       2
       1       1       3       2       1       1       3       2       1       1
       3       2       1       1       3       2       1       1       3       2
       1       1       3       2       1       1       3       2       1       1
       3       2       1       1       3       2       1       1       3       2
       1       1       3       2       1       1       3       2       1       1
       3       2       1       1       3       2       1       1       3       2
       1       1       3       2       1       1       3       2       1       1
       3       2       1       1       3       2       1       1       3       2
       1       1       3       2       1       1       3       2       1       1
       3       2       1       1       3       2       1       1       3       2
       1       1       3       2       1       1       3       2       1       1
       3       2       1       1       3       2       1       1       3       2
       1       1       3       2       1       1       3       2       1       1
       3       2       1       1       3       2       1       1       3       2
       1       1       3       2       1       1       3       2       1       1
       3       2       1       1       3       2       1       1       3       2
       1       1       3       2       1       1       3       2       1       1
       3       2       1       1       3       2       1       1       3       2
       1       1       3       2       1       1       3       2       1       1
       3       2       1       1       3       2       1       1       3       2
       1       1       3       2       1       1       3       2       1       1
       3       2       1       1       3       2       1       1       3       2
       1       1       3       2       1       1       3       2       1       1
       3       2       1       1       3       2       1       1       3       2
       1       1       3       2       1       1       3       2       1       1
       3       2       1       1       3       2       1       1       3       2
       1       1       3       2       1       1       3       2       1       1
       3       2       1       1       3       2       1       1       3       2
       1       1       3       2       1       1       3       2       1       1
       3       2       1       1       3       2       1       1       3       2
       1       1       3       2       1       1       3       2       1       1
       3       2       1       1       3       2       1       1       3       2
       1       1       3       2       1       1       3       2       1       1
       3       2       1       1       3       2       1       1       3       2
       1       1       3       2       1       1       3       2       1       1
       3       2       1       1       3       2       1       1       3       2
       1       1       3       2       1       1       3       2       1       1
       3       2       1       1       3       2       1       1       3       2
       1       1       3       2       1       1       3       2       1       1
       3       2       1       1       3       2       1       1       3       2
       1       1       3       2       1       1       3       2       1       1
       3       2       1       1       3       2       1       1       3       2
       1       1       3       2       1       1       3       2       1       1
       3       2       1       1       3       2       1       1       3       2
       1       1       3       2       1       1       3       2       1       1
       3       2       1       1       3       2       1       1       3       2
       1       1       3       2       1       1       3       2       1       1
       3       2       1       1       3       2       1       1       3       2
       1       1       3       2       1       1       3       2       1       1
       3       2       1       1       3       2       1       1       3       2
       1       1       3       2       1       1       3       2       1       1
       3       2       1       1       3       2       1       1       3       2
       1       1       3       2       1       1       3       2       1       1
       3       2       1       1       3       2       1       1       3       2
       1       1       3       2       1       1       3       2       1       1
       3       2       1       1       3       2       1       1       3       2
       1       1       3       2       1       1       3       2       1       1
       3       2       1       1       3       2       1       1       3       2
       1       1       3       2       1       1       3       2       1       1
       3       2       1       1       3       2       1       1       3       2
       1       1       3       2       1       1       3       2       1       1
       3       2       1       1       3       2       1       1       3       2
       1       1       3       2       1       1       3       2       1       1
       3       2       1       1       3       2       1       1       3       2
       1       1       3       2       1       1       3       2       1       1
       3       2       1       1       3       2       1       1       3       2
       1       1       3       2       1       1       3       2       1       1
       3       2       1       1       3       2       1       1       3       2
       1       1       3       2       1       1       3       2       1       1
       3       2       1       1       3       2       1       1       3       2
       1       1       3       2       1       1       3       2       1       1
       3       2       1       1       3       2       1       1       3       2
       1       1       3       2       1       1       3       2       1       1
       3       2       1       1       3       2       1       1       3       2
       1       1       3       2       1       1       3       2       1       1
       3       2       1       1       3       2       1       1       3       2
       1       1       3       2       1       1       3       2       1       1
       3       2       1       1       3       2       1       1       3       2
       1       1       3       2       1       1       3       2       1       1
       3       2       1       1       3       2       1       1       3       2
       1       1       3       2       1       1       3       2       1       1
       3       2       1       1       3       2       1       1       3       2
       1       1       3       2       1       1       3       2       1       1
       3       2       1       1       3       2       1       1       3       2
       1       1       3       2       1       1       3       2       1       1
       3       2       1       1       3       2       1       1       3       2
       1       1       3       2       1       1       3       2       1       1
       3       2       1       1       3       2       1       1       3       2
       1       1       3       2       1       1       3       2       1       1
       3       2       1       1       3       2       1       1       3       2
       1       1       3       2       1       1       3       2       1       1
       3       2       1       1       3       2       1       1       3       2
       1       1       3       2       1       1       3       2       1       1
       3       2       1       1       3       2       1       1       3       2
       1       1       3       2       1       1       3       2       1       1
       3       2       1       1       3       2       1       1       3       2
       1       1       3       2       1       1       3       2       1       1
       3       2       1       1       3       2       1       1       3       2
       1       1       3       2       1       1       3       2       1       1
       3       2       1       1       3       2       1       1       3       2
       1       1       3       2       1       1       3       2       1       1
       3       2       1       1       3       2       1       1       3       2
       1       1       3       2       1       1       3       2       1       1
       3       2       1       1       3       2       1       1       3       2
       1       1       3       2       1       1       3       2       1       1
       3       2       1       1       3       2       1       1       3       2
       1       1       3       2       1       1       3       2       1       1
       3       2       1       1       3       2       1       1       3       2
       1       1       3       2       1       1       3       2       1       1
       3       2       1       1       3       2       1       1       3       2
       1       1       3       2       1       1       3       2       1       1
       3       2       1       1       3       2       1       1       3       2
       1       1       3       2       1       1       3       2       1       1
       3       2       1       1       3       2       1       1       3       2
       1       1       3       2       1       1       3       2       1       1
       3       2       1       1       3       2       1       1       3       2
       1       1       3       2       1       1       3       2       1       1
       3       2       1       1       3       2       1       1       3       2
       1       1       3       2       1       1       3       2       1       1
       3       2       1       1       3       2       1       1       3       2
       1       1       3       2       1       1       3       2       1       1
       3       2       1       1       3       2       1       1       3       2
       1       1       3       2       1       1       3       2       1       1
       3       2       1       1       3       2       1       1       3       2
       1       1       3       2       1       1       3       2       1       1
       3       2       1       1       3       2       1       1       3       2
       1       1       3       2       1       1       3       2       1       1
       3       2       1       1       3       2       1       1       3       2
       1       1       3       2       1       1       3       2       1       1
       3       2       1       1       3       2       1       1       3       2
       1       1       3       2       1       1       3       2       1       1
       3       2       1       1       3       2       1       1       3       2
       1       1       3       2       1       1       3       2       1       1
       3       2       1       1       3       2       1       1       3       2
       1       1       3       2       1       1       3       2       1       1
       3       2       1       1       3       2       1       1       3       2
       1       1       3       2       1       1       3       2       1       1
       3       2       1       1       3       2       1       1       3       2
       1       1       3       2       1       1       3       2       1       1
       3       2       1       1       3       2       1       1       3       2
       1       1       3       2       1       1       3       2       1       1
       3       2       1       1       3       2       1       1       3       2
       1       1       3       2       1       1       3       2       1       1
       3       2       1       1       3       2       1       1       3       2
       1       1       3       2       1       1       3       2       1       1
       3       2       1       1       3       2       1       1       3       2
       1       1       3       2       1       1       3       2       1       1
       3       2       1       1       3       2       1       1       3       2
       1       1       3       2       1       1       3       2       1       1
       3       2       1       1       3       2       1       1       3       2
       1       1       3       2       1       1       3       2       1       1
       3       2       1       1       3       2       1       1       3       2
       1       1       3       2       1       1       3       2       1       1
       3       2       1       1       3       2       1       1       3       2
       1       1       3       2       1       1       3       2       1       1
       3       2       1       1       3       2       1       1       3       2
       1       1       3       2       1       1       3       2       1       1
       3       2       1       1       3       2       1       1       3       2
       1       1       3       2       1       1       3       2       1       1
       3       2       1       1       3       2       1       1       3       2
       1       1       3       2       1       1       3       2       1       1
       3       2       1       1       3       2       1       1       3       2
       1       1       3       2       1       1       3       2       1       1
       3       2       1       1       3       2       1       1       3       2
       1       1       3       2       1       1       3       2       1       1
       3       2       1       1       3       2       1       1       3       2
       1       1       3       2       1       1       3       2       1       1
       3       2       1       1       3       2       1       1       3       2
       1       1       3       2       1       1       3       2       1       1
       3       2       1       1       3       2       1       1       3       2
       1       1       3       2       1       1       3       2       1       1
       3       2       1       1       3       2       1       1       3       2
       1       1       3       2       1       1       3       2       1       1
       3       2       1       1       3       2       1       1       3       2
       1       1       3       2       1       1       3       2       1       1
       3       2       1       1       3       2       1       1       3       2
       1       1       3       2       1       1       3       2       1       1
       3       2       1       1       3       2       1       1       3       2
       1       1       3       2       1       1       3       2       1       1
       3       2       1       1       3       2       1       1       3       2
       1       1       3       2       1       1       3       2       1       1
       3       2       1       1       3       2       1       1       3       2
       1       1       3       2       1       1       3       2       1       1
       3       2       1       1       3       2       1       1       3       2
       1       1       3       2       1       1       3       2       1       1
       3       2       1       1       3       2       1       1       3       2
       1       1       3       2       1       1       3       2       1       1
       3       2       1       1       3       2       1       1       3       2
       1       1       3       2       1       1       3       2       1       1
       3       2       1       1       3       2       1       1       3       2
       1       1       3       2       1       1       3       2       1       1
       3       2       1       1       3       2       1       1       3       2
       1       1       3       2       1       1       3       2       1       1
       3       2       1       1       3       2       1       1       3       2
       1       1       3       2       1       1       3       2       1       1
       3       2       1       1       3       2       1       1       3       2
       1       1       3       2       1       1
%FLAG NONBONDED_PARM_INDEX                                                      
%FORMAT(10I8)                                                                   
       1       2       4       7      11      16      22      29      37      46
       2       3       5       8      12      17      23      30      38      47
       4       5       6       9      13      18      24      31      39      48
       7       8       9      10      14      19      25      32      40      49
      11      12      13      14      15      20      26      33      41      50
      16      17      18      19      20      21      27      34      42      51
      22      23      24      25      26      27      28      35      43      52
      29      30      31      32      33      34      35      36      44      53
      37      38      39      40      41      42      43      44      45      54
      46      47      48      49      50      51      52      53      54      55
%FLAG RESIDUE_LABEL                                                             
%FORMAT(20a4)                                                                   
ACE ALA ALA ALA NME WAT WAT WAT WAT WAT WAT WAT WAT WAT WAT WAT WAT WAT WAT WAT 
WAT WAT WAT WAT WAT WAT WAT WAT WAT WAT WAT WAT WAT WAT WAT WAT WAT WAT WAT WAT 
WAT WAT WAT WAT WAT WAT WAT WAT WAT WAT WAT WAT WAT WAT WAT WAT WAT WAT WAT WAT 
WAT WAT WAT WAT WAT WAT WAT WAT WAT WAT WAT WAT WAT WAT WAT WAT WAT WAT WAT WAT 
WAT WAT WAT WAT WAT WAT WAT WAT WAT WAT WAT WAT WAT WAT WAT WAT WAT WAT WAT WAT 
WAT WAT WAT WAT WAT WAT WAT WAT WAT WAT WAT WAT WAT WAT WAT WAT WAT WAT WAT WAT 
WAT WAT WAT WAT WAT WAT WAT WAT WAT WAT WAT WAT WAT WAT WAT WAT WAT WAT WAT WAT 
WAT WAT WAT WAT WAT WAT WAT WAT WAT WAT WAT WAT WAT WAT WAT WAT WAT WAT WAT WAT 
WAT WAT WAT WAT WAT WAT WAT WAT WAT WAT WAT WAT WAT WAT WAT WAT WAT WAT WAT WAT 
WAT WAT WAT WAT WAT WAT WAT WAT WAT WAT WAT WAT WAT WAT WAT WAT WAT WAT WAT WAT 
WAT WAT WAT WAT WAT WAT WAT WAT WAT WAT WAT WAT WAT WAT WAT WAT WAT WAT WAT WAT 
WAT WAT WAT WAT WAT WAT WAT WAT WAT WAT WAT WAT WAT WAT WAT WAT WAT WAT WAT WAT 
WAT WAT WAT WAT WAT WAT WAT WAT WAT WAT WAT WAT WAT WAT WAT WAT WAT WAT WAT WAT 
WAT WAT WAT WAT WAT WAT WAT WAT WAT WAT WAT WAT WAT WAT WAT WAT WAT WAT WAT WAT 
WAT WAT WAT WAT WAT WAT WAT WAT WAT WAT WAT WAT WAT WAT WAT WAT WAT WAT WAT WAT 
WAT WAT WAT WAT WAT WAT WAT WAT WAT WAT WAT WAT WAT WAT WAT WAT WAT WAT WAT WAT 
WAT WAT WAT WAT WAT WAT WAT WAT WAT WAT WAT WAT WAT WAT WAT WAT WAT WAT WAT WAT 
WAT WAT WAT WAT WAT WAT WAT WAT WAT WAT WAT WAT WAT WAT WAT WAT WAT WAT WAT WAT 
WAT WAT WAT WAT WAT WAT WAT WAT WAT WAT WAT WAT WAT WAT WAT WAT WAT WAT WAT WAT 
WAT WAT WAT WAT WAT WAT WAT WAT WAT WAT WAT WAT WAT WAT WAT WAT WAT WAT WAT WAT 
WAT WAT WAT WAT WAT WAT WAT WAT WAT WAT WAT WAT WAT WAT WAT WAT WAT WAT WAT WAT 
WAT WAT WAT WAT WAT WAT WAT WAT WAT WAT WAT WAT WAT WAT WAT WAT WAT WAT WAT WAT 
WAT WAT WAT WAT WAT WAT WAT WAT WAT WAT WAT WAT WAT WAT WAT WAT WAT WAT WAT WAT 
WAT WAT WAT WAT WAT WAT WAT WAT WAT WAT WAT WAT WAT WAT WAT WAT WAT WAT WAT WAT 
WAT WAT WAT WAT WAT WAT WAT WAT WAT WAT WAT WAT WAT WAT WAT WAT WAT WAT WAT WAT 
WAT WAT WAT WAT WAT WAT WAT WAT WAT WAT WAT WAT WAT WAT WAT WAT WAT WAT WAT WAT 
WAT WAT WAT WAT WAT WAT WAT WAT WAT WAT WAT WAT WAT WAT WAT WAT WAT WAT WAT WAT 
WAT WAT WAT WAT WAT WAT WAT WAT WAT WAT WAT WAT WAT WAT WAT WAT WAT WAT WAT WAT 
WAT WAT WAT WAT WAT WAT WAT WAT WAT WAT WAT WAT WAT WAT WAT WAT WAT WAT WAT WAT 
WAT WAT WAT WAT WAT WAT WAT WAT WAT WAT WAT WAT WAT WAT WAT WAT WAT WAT WAT WAT 
WAT WAT WAT WAT WAT WAT WAT WAT WAT WAT WAT WAT WAT WAT WAT WAT WAT WAT WAT WAT 
WAT WAT WAT WAT WAT WAT WAT WAT WAT WAT WAT WAT WAT WAT WAT WAT WAT WAT WAT WAT 
WAT WAT WAT WAT WAT WAT WAT WAT WAT WAT WAT WAT WAT WAT WAT WAT WAT WAT WAT WAT 
WAT WAT WAT WAT WAT WAT WAT WAT WAT WAT WAT WAT WAT WAT WAT WAT WAT WAT WAT WAT 
WAT WAT WAT WAT WAT WAT WAT WAT WAT WAT WAT WAT WAT WAT WAT WAT WAT WAT WAT WAT 
WAT WAT WAT WAT WAT WAT WAT WAT WAT WAT WAT WAT WAT WAT WAT WAT WAT WAT WAT WAT 
WAT WAT WAT WAT WAT WAT WAT WAT WAT WAT WAT WAT WAT WAT WAT WAT WAT WAT WAT WAT 
WAT WAT WAT WAT WAT WAT WAT WAT WAT WAT WAT WAT WAT WAT WAT WAT WAT WAT WAT WAT 
WAT WAT WAT WAT WAT WAT WAT WAT WAT WAT WAT WAT WAT WAT WAT WAT WAT WAT WAT WAT 
WAT WAT WAT WAT WAT WAT WAT WAT WAT WAT WAT WAT WAT WAT WAT WAT WAT WAT WAT WAT 
WAT WAT WAT WAT WAT WAT WAT WAT WAT WAT WAT WAT WAT WAT WAT WAT WAT WAT WAT WAT 
WAT WAT WAT WAT WAT WAT WAT WAT WAT WAT WAT WAT WAT WAT WAT WAT WAT WAT WAT WAT 
WAT WAT WAT WAT WAT WAT WAT WAT WAT WAT WAT WAT WAT WAT WAT WAT WAT WAT WAT WAT 
WAT WAT WAT WAT WAT WAT WAT WAT WAT WAT WAT WAT WAT WAT WAT WAT WAT WAT WAT WAT 
WAT WAT WAT WAT WAT WAT WAT WAT WAT WAT WAT WAT WAT WAT WAT WAT WAT WAT WAT WAT 
WAT WAT WAT WAT WAT WAT WAT WAT WAT WAT WAT WAT WAT WAT WAT WAT WAT WAT WAT WAT 
WAT WAT WAT WAT WAT WAT WAT WAT WAT WAT WAT WAT WAT WAT WAT WAT WAT WAT WAT WAT 
WAT WAT WAT WAT WAT WAT WAT WAT WAT WAT WAT WAT WAT WAT WAT WAT WAT WAT WAT WAT 
WAT WAT WAT WAT WAT WAT WAT WAT WAT WAT WAT WAT WAT WAT WAT WAT WAT WAT WAT WAT 
WAT WAT WAT WAT WAT WAT WAT WAT WAT WAT WAT WAT WAT WAT WAT WAT WAT WAT WAT WAT 
WAT WAT WAT WAT WAT WAT WAT WAT WAT WAT WAT WAT WAT WAT WAT WAT WAT WAT WAT WAT 
WAT WAT WAT WAT WAT WAT WAT WAT WAT WAT WAT WAT WAT WAT WAT WAT WAT WAT WAT WAT 
WAT WAT WAT WAT WAT WAT WAT WAT WAT WAT WAT WAT WAT WAT WAT WAT WAT WAT WAT WAT 
WAT WAT WAT WAT WAT WAT WAT WAT WAT WAT WAT WAT WAT WAT WAT WAT WAT WAT WAT WAT 
WAT WAT WAT WAT WAT WAT WAT WAT WAT WAT WAT WAT WAT WAT WAT WAT WAT WAT WAT WAT 
WAT WAT WAT WAT WAT WAT WAT WAT WAT WAT WAT WAT WAT WAT WAT WAT WAT WAT WAT WAT 
WAT WAT WAT WAT WAT WAT WAT WAT WAT WAT WAT WAT WAT WAT WAT WAT WAT WAT WAT WAT 
WAT WAT WAT WAT WAT WAT WAT WAT WAT WAT WAT WAT WAT WAT WAT WAT WAT WAT WAT WAT 
WAT WAT WAT WAT WAT WAT WAT WAT WAT WAT WAT WAT WAT WAT WAT WAT WAT WAT WAT WAT 
WAT WAT WAT WAT WAT WAT WAT WAT WAT WAT WAT WAT WAT WAT WAT WAT WAT WAT WAT WAT 
WAT WAT WAT WAT WAT WAT WAT WAT WAT WAT WAT WAT WAT WAT WAT WAT WAT WAT WAT WAT 
WAT WAT WAT WAT WAT WAT WAT WAT WAT WAT WAT WAT WAT WAT WAT WAT WAT WAT WAT WAT 
WAT WAT WAT WAT WAT WAT WAT WAT WAT WAT WAT WAT WAT WAT WAT WAT WAT WAT WAT WAT 
WAT WAT WAT WAT WAT WAT WAT WAT WAT WAT WAT WAT WAT WAT WAT WAT WAT WAT WAT WAT 
WAT WAT WAT WAT WAT WAT WAT WAT WAT WAT WAT WAT WAT WAT WAT WAT WAT WAT WAT WAT 
WAT WAT WAT WAT WAT WAT WAT WAT WAT WAT WAT WAT WAT WAT WAT WAT WAT WAT WAT WAT 
WAT WAT WAT WAT WAT WAT WAT WAT WAT WAT WAT WAT WAT WAT WAT WAT WAT WAT WAT WAT 
WAT WAT WAT WAT WAT WAT WAT WAT WAT WAT WAT WAT WAT WAT WAT WAT WAT WAT WAT WAT 
WAT WAT WAT WAT WAT WAT WAT WAT WAT WAT WAT WAT WAT WAT WAT WAT WAT WAT WAT WAT 
WAT WAT WAT WAT WAT WAT WAT WAT WAT WAT WAT WAT WAT WAT WAT WAT WAT WAT WAT WAT 
WAT WAT WAT WAT WAT WAT WAT WAT WAT WAT WAT WAT WAT WAT WAT WAT WAT WAT WAT WAT 
WAT WAT WAT WAT WAT WAT WAT WAT WAT WAT WAT WAT WAT WAT WAT WAT WAT WAT WAT WAT 
WAT WAT WAT WAT WAT WAT WAT WAT WAT WAT WAT WAT WAT WAT WAT WAT WAT WAT WAT WAT 
WAT WAT WAT WAT WAT WAT WAT WAT WAT WAT WAT WAT WAT WAT WAT WAT WAT WAT WAT WAT 
WAT WAT WAT WAT WAT WAT WAT WAT WAT WAT WAT WAT WAT WAT WAT WAT WAT WAT WAT WAT 
WAT WAT WAT WAT WAT WAT WAT WAT WAT WAT WAT WAT WAT WAT WAT WAT WAT WAT WAT WAT 
WAT WAT WAT WAT WAT WAT WAT WAT WAT WAT WAT WAT WAT WAT WAT WAT WAT WAT WAT WAT 
WAT WAT WAT WAT WAT WAT WAT WAT WAT WAT WAT WAT WAT WAT WAT WAT WAT WAT WAT WAT 
WAT WAT WAT WAT WAT WAT WAT WAT WAT WAT WAT WAT WAT WAT WAT WAT WAT WAT WAT WAT 
WAT WAT WAT WAT WAT WAT WAT WAT WAT WAT WAT 
%FLAG RESIDUE_POINTER                                                           
%FORMAT(10I8)                                                                   
       1       7      17      27      37      43      47      51      55      59
      63      67      71      75      79      83      87      91      95      99
     103     107     111     115     119     123     127     131     135     139
     143     147     151     155     159     163     167     171     175     179
     183     187     191     195     199     203     207     211     215     219
     223     227     231     235     239     243     247     251     255     259
     263     267     271     275     279     283     287     291     295     299
     303     307     311     315     319     323     327     331     335     339
     343     347     351     355     359     363     367     371     375     379
     383     387     391     395     399     403     407     411     415     419
     423     427     431     435     439     443     447     451     455     459
     463     467     471     475     479     483     487     491     495     499
     503     507     511     515     519     523     527     531     535     539
     543     547     551     555     559     563     567     571     575     579
     583     587     591     595     599     603     607     611     615     619
     623     627     631     635     639     643     647     651     655     659
     663     667     671     675     679     683     687     691     695     699
     703     707     711     715     719     723     727     731     735     739
     743     747     751     755     759     763     767     771     775     779
     783     787     791     795     799     803     807     811     815     819
     823     827     831     835     839     843     847     851     855     859
     863     867     871     875     879     883     887     891     895     899
     903     907     911     915     919     923     927     931     935     939
     943     947     951     955     959     963     967     971     975     979
     983     987     991     995     999    1003    1007    1011    1015    1019
    1023    1027    1031    1035    1039    1043    1047    1051    1055    1059
    1063    1067    1071    1075    1079    1083    1087    1091    1095    1099
    1103    1107    1111    1115    1119    1123    1127    1131    1135    1139
    1143    1147    1151    1155    1159    1163    1167    1171    1175    1179
    1183    1187    1191    1195    1199    1203    1207    1211    1215    1219
    1223    1227    1231    1235    1239    1243    1247    1251    1255    1259
    1263    1267    1271    1275    1279    1283    1287    1291    1295    1299
    1303    1307    1311    1315    1319    1323    1327    1331    1335    1339
    1343    1347    1351    1355    1359    1363    1367    1371    1375    1379
    1383    1387    1391    1395    1399    1403    1407    1411    1415    1419
    1423    1427    1431    1435    1439    1443    1447    1451    1455    1459
    1463    1467    1471    1475    1479    1483    1487    1491    1495    1499
    1503    1507    1511    1515    1519    1523    1527    1531    1535    1539
    1543    1547    1551    1555    1559    1563    1567    1571    1575    1579
    1583    1587    1591    1595    1599    1603    1607    1611    1615    1619
    1623    1627    1631    1635    1639    1643    1647    1651    1655    1659
    1663    1667    1671    1675    1679    1683    1687    1691    1695    1699
    1703    1707    1711    1715    1719    1723    1727    1731    1735    1739
    1743    1747    1751    1755    1759    1763    1767    1771    1775    1779
    1783    1787    1791    1795    1799    1803    1807    1811    1815    1819
    1823    1827    1831    1835    1839    1843    1847    1851    1855    1859
    1863    1867    1871    1875    1879    1883    1887    1891    1895    1899
    1903    1907    1911    1915    1919    1923    1927    1931    1935    1939
    1943    1947    1951    1955    1959    1963    1967    1971    1975    1979
    1983    1987    1991    1995    1999    2003    2007    2011    2015    2019
    2023    2027    2031    2035    2039    2043    2047    2051    2055    2059
    2063    2067    2071    2075    2079    2083    2087    2091    2095    2099
    2103    2107    2111    2115    2119    2123    2127    2131    2135    2139
    2143    2147    2151    2155    2159    2163    2167    2171    2175    2179
    2183    2187    2191    2195    2199    2203    2207    2211    2215    2219
    2223    2227    2231    2235    2239    2243    2247    2251    2255    2259
    2263    2267    2271    2275    2279    2283    2287    2291    2295    2299
    2303    2307    2311    2315    2319    2323    2327    2331    2335    2339
    2343    2347    2351    2355    2359    2363    2367    2371    2375    2379
    2383    2387    2391    2395    2399    2403    2407    2411    2415    2419
    2423    2427    2431    2435    2439    2443    2447    2451    2455    2459
    2463    2467    2471    2475    2479    2483    2487    2491    2495    2499
    2503    2507    2511    2515    2519    2523    2527    2531    2535    2539
    2543    2547    2551    2555    2559    2563    2567    2571    2575    2579
    2583    2587    2591    2595    2599    2603    2607    2611    2615    2619
    2623    2627    2631    2635    2639    2643    2647    2651    2655    2659
    2663    2667    2671    2675    2679    2683    2687    2691    2695    2699
    2703    2707    2711    2715    2719    2723    2727    2731    2735    2739
    2743    2747    2751    2755    2759    2763    2767    2771    2775    2779
    2783    2787    2791    2795    2799    2803    2807    2811    2815    2819
    2823    2827    2831    2835    2839    2843    2847    2851    2855    2859
    2863    2867    2871    2875    2879    2883    2887    2891    2895    2899
    2903    2907    2911    2915    2919    2923    2927    2931    2935    2939
    2943    2947    2951    2955    2959    2963    2967    2971    2975    2979
    2983    2987    2991    2995    2999    3003    3007    3011    3015    3019
    3023    3027    3031    3035    3039    3043    3047    3051    3055    3059
    3063    3067    3071    3075    3079    3083    3087    3091    3095    3099
    3103    3107    3111    3115    3119    3123    3127    3131    3135    3139
    3143    3147    3151    3155    3159    3163    3167    3171    3175    3179
    3183    3187    3191    3195    3199    3203    3207    3211    3215    3219
    3223    3227    3231    3235    3239    3243    3247    3251    3255    3259
    3263    3267    3271    3275    3279    3283    3287    3291    3295    3299
    3303    3307    3311    3315    3319    3323    3327    3331    3335    3339
    3343    3347    3351    3355    3359    3363    3367    3371    3375    3379
    3383    3387    3391    3395    3399    3403    3407    3411    3415    3419
    3423    3427    3431    3435    3439    3443    3447    3451    3455    3459
    3463    3467    3471    3475    3479    3483    3487    3491    3495    3499
    3503    3507    3511    3515    3519    3523    3527    3531    3535    3539
    3543    3547    3551    3555    3559    3563    3567    3571    3575    3579
    3583    3587    3591    3595    3599    3603    3607    3611    3615    3619
    3623    3627    3631    3635    3639    3643    3647    3651    3655    3659
    3663    3667    3671    3675    3679    3683    3687    3691    3695    3699
    3703    3707    3711    3715    3719    3723    3727    3731    3735    3739
    3743    3747    3751    3755    3759    3763    3767    3771    3775    3779
    3783    3787    3791    3795    3799    3803    3807    3811    3815    3819
    3823    3827    3831    3835    3839    3843    3847    3851    3855    3859
    3863    3867    3871    3875    3879    3883    3887    3891    3895    3899
    3903    3907    3911    3915    3919    3923    3927    3931    3935    3939
    3943    3947    3951    3955    3959    3963    3967    3971    3975    3979
    3983    3987    3991    3995    3999    4003    4007    4011    4015    4019
    4023    4027    4031    4035    4039    4043    4047    4051    4055    4059
    4063    4067    4071    4075    4079    4083    4087    4091    4095    4099
    4103    4107    4111    4115    4119    4123    4127    4131    4135    4139
    4143    4147    4151    4155    4159    4163    4167    4171    4175    4179
    4183    4187    4191    4195    4199    4203    4207    4211    4215    4219
    4223    4227    4231    4235    4239    4243    4247    4251    4255    4259
    4263    4267    4271    4275    4279    4283    4287    4291    4295    4299
    4303    4307    4311    4315    4319    4323    4327    4331    4335    4339
    4343    4347    4351    4355    4359    4363    4367    4371    4375    4379
    4383    4387    4391    4395    4399    4403    4407    4411    4415    4419
    4423    4427    4431    4435    4439    4443    4447    4451    4455    4459
    4463    4467    4471    4475    4479    4483    4487    4491    4495    4499
    4503    4507    4511    4515    4519    4523    4527    4531    4535    4539
    4543    4547    4551    4555    4559    4563    4567    4571    4575    4579
    4583    4587    4591    4595    4599    4603    4607    4611    4615    4619
    4623    4627    4631    4635    4639    4643    4647    4651    4655    4659
    4663    4667    4671    4675    4679    4683    4687    4691    4695    4699
    4703    4707    4711    4715    4719    4723    4727    4731    4735    4739
    4743    4747    4751    4755    4759    4763    4767    4771    4775    4779
    4783    4787    4791    4795    4799    4803    4807    4811    4815    4819
    4823    4827    4831    4835    4839    4843    4847    4851    4855    4859
    4863    4867    4871    4875    4879    4883    4887    4891    4895    4899
    4903    4907    4911    4915    4919    4923    4927    4931    4935    4939
    4943    4947    4951    4955    4959    4963    4967    4971    4975    4979
    4983    4987    4991    4995    4999    5003    5007    5011    5015    5019
    5023    5027    5031    5035    5039    5043    5047    5051    5055    5059
    5063    5067    5071    5075    5079    5083    5087    5091    5095    5099
    5103    5107    5111    5115    5119    5123    5127    5131    5135    5139
    5143    5147    5151    5155    5159    5163    5167    5171    5175    5179
    5183    5187    5191    5195    5199    5203    5207    5211    5215    5219
    5223    5227    5231    5235    5239    5243    5247    5251    5255    5259
    5263    5267    5271    5275    5279    5283    5287    5291    5295    5299
    5303    5307    5311    5315    5319    5323    5327    5331    5335    5339
    5343    5347    5351    5355    5359    5363    5367    5371    5375    5379
    5383    5387    5391    5395    5399    5403    5407    5411    5415    5419
    5423    5427    5431    5435    5439    5443    5447    5451    5455    5459
    5463    5467    5471    5475    5479    5483    5487    5491    5495    5499
    5503    5507    5511    5515    5519    5523    5527    5531    5535    5539
    5543    5547    5551    5555    5559    5563    5567    5571    5575    5579
    5583    5587    5591    5595    5599    5603    5607    5611    5615    5619
    5623    5627    5631    5635    5639    5643    5647    5651    5655    5659
    5663    5667    5671    5675    5679    5683    5687    5691    5695    5699
    5703    5707    5711    5715    5719    5723    5727    5731    5735    5739
    5743    5747    5751    5755    5759    5763    5767    5771    5775    5779
    5783    5787    5791    5795    5799    5803    5807    5811    5815    5819
    5823    5827    5831    5835    5839    5843    5847    5851    5855    5859
    5863    5867    5871    5875    5879    5883    5887    5891    5895    5899
    5903    5907    5911    5915    5919    5923    5927    5931    5935    5939
    5943    5947    5951    5955    5959    5963    5967    5971    5975    5979
    5983    5987    5991    5995    5999    6003    6007    6011    6015    6019
    6023    6027    6031    6035    6039    6043    6047    6051    6055    6059
    6063    6067    6071    6075    6079    6083    6087    6091    6095    6099
    6103    6107    6111    6115    6119    6123    6127    6131    6135    6139
    6143    6147    6151    6155    6159    6163    6167    6171    6175    6179
    6183    6187    6191    6195    6199    6203    6207    6211    6215    6219
    6223    6227    6231    6235    6239    6243    6247    6251    6255    6259
    6263    6267    6271    6275    6279    6283    6287    6291    6295    6299
    6303    6307    6311    6315    6319    6323    6327    6331    6335    6339
    6343    6347    6351    6355    6359    6363    6367    6371    6375    6379
    6383
%FLAG BOND_FORCE_CONSTANT                                                       
%FORMAT(5E16.8)                                                                 
  5.70000000E+02  4.90000000E+02  3.40000000E+02  3.17000000E+02  3.40000000E+02
  3.10000000E+02  3.17000000E+02  4.34000000E+02  3.37000000E+02  3.40000000E+02
  3.37000000E+02  5.53000000E+02  5.53000000E+02  5.53000000E+02
%FLAG BOND_EQUIL_VALUE                                                          
%FORMAT(5E16.8)                                                                 
  1.22900000E+00  1.33500000E+00  1.09000000E+00  1.52200000E+00  1.09000000E+00
  1.52600000E+00  1.52200000E+00  1.01000000E+00  1.44900000E+00  1.09000000E+00
  1.44900000E+00  8.72433130E-01  1.37120510E+00  1.59398330E-01
%FLAG ANGLE_FORCE_CONSTANT                                                      
%FORMAT(5E16.8)                                                                 
  8.00000000E+01  5.00000000E+01  5.00000000E+01  5.00000000E+01  3.50000000E+01
  8.00000000E+01  7.00000000E+01  6.30000000E+01  5.00000000E+01  5.00000000E+01
  5.00000000E+01  8.00000000E+01  7.00000000E+01  5.00000000E+01  5.00000000E+01
  8.00000000E+01  6.30000000E+01  5.00000000E+01  3.50000000E+01  5.00000000E+01
  5.00000000E+01
%FLAG ANGLE_EQUIL_VALUE                                                         
%FORMAT(5E16.8)                                                                 
  2.14501057E+00  2.09439600E+00  2.12755727E+00  1.91113635E+00  1.91113635E+00
  2.10137732E+00  2.03505478E+00  1.93906163E+00  1.91113635E+00  1.91113635E+00
  1.91113635E+00  2.10137732E+00  2.03505478E+00  2.06018753E+00  1.91113635E+00
  1.91462701E+00  1.92160833E+00  2.12755727E+00  1.91113635E+00  2.06018753E+00
  1.91113635E+00
%FLAG DIHEDRAL_FORCE_CONSTANT                                                   
%FORMAT(5E16.8)                                                                 
  2.00000000E+00  2.50000000E+00  0.00000000E+00  0.00000000E+00  0.00000000E+00
  0.00000000E+00  8.00000000E-01  8.00000000E-02  1.55555556E-01  0.00000000E+00
  0.00000000E+00  0.00000000E+00  1.05000000E+01  1.10000000E+00
%FLAG DIHEDRAL_PERIODICITY                                                      
%FORMAT(5E16.8)                                                                 
  1.00000000E+00  2.00000000E+00  2.00000000E+00  1.00000000E+00  3.00000000E+00
  4.00000000E+00  1.00000000E+00  3.00000000E+00  3.00000000E+00  3.00000000E+00
  1.00000000E+00  2.00000000E+00  2.00000000E+00  2.00000000E+00
%FLAG DIHEDRAL_PHASE                                                            
%FORMAT(5E16.8)                                                                 
  0.00000000E+00  3.14159400E+00  0.00000000E+00  0.00000000E+00  0.00000000E+00
  0.00000000E+00  0.00000000E+00  3.14159400E+00  0.00000000E+00  3.14159400E+00
  3.14159400E+00  3.14159400E+00  3.14159400E+00  3.14159400E+00
%FLAG SCEE_SCALE_FACTOR                                                         
%FORMAT(5E16.8)                                                                 
  1.20000000E+00  1.20000000E+00  1.20000000E+00  1.20000000E+00  1.20000000E+00
  1.20000000E+00  1.20000000E+00  1.20000000E+00  1.20000000E+00  1.20000000E+00
  1.20000000E+00  1.20000000E+00  0.00000000E+00  0.00000000E+00
%FLAG SCNB_SCALE_FACTOR                                                         
%FORMAT(5E16.8)                                                                 
  2.00000000E+00  2.00000000E+00  2.00000000E+00  2.00000000E+00  2.00000000E+00
  2.00000000E+00  2.00000000E+00  2.00000000E+00  2.00000000E+00  2.00000000E+00
  2.00000000E+00  2.00000000E+00  0.00000000E+00  0.00000000E+00
%FLAG SOLTY                                                                     
%FORMAT(5E16.8)                                                                 
  0.00000000E+00  0.00000000E+00  0.00000000E+00  0.00000000E+00  0.00000000E+00
  0.00000000E+00  0.00000000E+00  0.00000000E+00  0.00000000E+00  0.00000000E+00
  0.00000000E+00
%FLAG LENNARD_JONES_ACOEF                                                       
%FORMAT(5E16.8)                                                                 
  7.51607703E+03  9.71708117E+04  1.04308023E+06  8.61541883E+04  9.24822270E+05
  8.19971662E+05  5.44261042E+04  6.47841731E+05  5.74393458E+05  3.79876399E+05
  8.96776989E+04  9.95480466E+05  8.82619071E+05  6.06829342E+05  9.44293233E+05
  1.07193646E+02  2.56678134E+03  2.27577561E+03  1.02595236E+03  2.12601181E+03
  1.39982777E-01  4.98586848E+03  6.78771368E+04  6.01816484E+04  3.69471530E+04
  6.20665997E+04  5.94667300E+01  3.25969625E+03  8.45678586E+04  9.57153878E+05
  8.48637713E+05  5.77196189E+05  9.04754248E+05  1.88214625E+03  5.82169798E+04
  8.65113123E+05  0.00000000E+00  0.00000000E+00  0.00000000E+00  0.00000000E+00
  0.00000000E+00  0.00000000E+00  0.00000000E+00  0.00000000E+00  0.00000000E+00
  0.00000000E+00  0.00000000E+00  0.00000000E+00  0.00000000E+00  0.00000000E+00
  0.00000000E+00  0.00000000E+00  0.00000000E+00  0.00000000E+00  0.00000000E+00
%FLAG LENNARD_JONES_BCOEF                                                       
%FORMAT(5E16.8)                                                                 
  2.17257828E+01  1.26919150E+02  6.75612247E+02  1.12529845E+02  5.99015525E+02
  5.31102864E+02  1.11805549E+02  6.26720080E+02  5.55666448E+02  5.64885984E+02
  1.36131731E+02  7.36907417E+02  6.53361429E+02  6.77220874E+02  8.01323529E+02
  2.59456373E+00  2.06278363E+01  1.82891803E+01  1.53505284E+01  2.09604198E+01
  9.37598976E-02  1.76949863E+01  1.06076943E+02  9.40505980E+01  9.21192136E+01
  1.13252061E+02  1.93248820E+00  1.43076527E+01  1.39830173E+02  7.64308217E+02
  6.77655696E+02  6.98618155E+02  8.29661356E+02  2.08605096E+01  1.16017383E+02
  8.58130004E+02  0.00000000E+00  0.00000000E+00  0.00000000E+00  0.00000000E+00
  0.00000000E+00  0.00000000E+00  0.00000000E+00  0.00000000E+00  0.00000000E+00
  0.00000000E+00  0.00000000E+00  0.00000000E+00  0.00000000E+00  0.00000000E+00
  0.00000000E+00  0.00000000E+00  0.00000000E+00  0.00000000E+00  0.00000000E+00
%FLAG BONDS_INC_HYDROGEN                                                        
%FORMAT(10I8)                                                                   
       3       6       3       3       9       3       0       3       3      30
      33       3      30      36       3      30      39       3      24      27
       5      18      21       8      60      63       3      60      66       3
      60      69       3      54      57       5      48      51       8      90
      93       3      90      96       3      90      99       3      84      87
       5      78      81       8     114     117      10     114     120      10
     114     123      10     108     111       8     129     126      12     132
     126      12     132     129      13     141     138      12     144     138
      12     144     141      13     153     150      12     156     150      12
     156     153      13     165     162      12     168     162      12     168
     165      13     177     174      12     180     174      12     180     177
      13     189     186      12     192     186      12     192     189      13
     201     198      12     204     198      12     204     201      13     213
     210      12     216     210      12     216     213      13     225     222
      12     228     222      12     228     225      13     237     234      12
     240     234      12     240     237      13     249     246      12     252
     246      12     252     249      13     261     258      12     264     258
      12     264     261      13     273     270      12     276     270      12
     276     273      13     285     282      12     288     282      12     288
     285      13     297     294      12     300     294      12     300     297
      13     309     306      12     312     306      12     312     309      13
     321     318      12     324     318      12     324     321      13     333
     330      12     336     330      12     336     333      13     345     342
      12     348     342      12     348     345      13     357     354      12
     360     354      12     360     357      13     369     366      12     372
     366      12     372     369      13     381     378      12     384     378
      12     384     381      13     393     390      12     396     390      12
     396     393      13     405     402      12     408     402      12     408
     405      13     417     414      12     420     414      12     420     417
      13     429     426      12     432     426      12     432     429      13
     441     438      12     444     438      12     444     441      13     453
     450      12     456     450      12     456     453      13     465     462
      12     468     462      12     468     465      13     477     474      12
     480     474      12     480     477      13     489     486      12     492
     486      12     492     489      13     501     498      12     504     498
      12     504     501      13     513     510      12     516     510      12
     516     513      13     525     522      12     528     522      12     528
     525      13     537     534      12     540     534      12     540     537
      13     549     546      12     552     546      12     552     549      13
     561     558      12     564     558      12     564     561      13     573
     570      12     576     570      12     576     573      13     585     582
      12     588     582      12     588     585      13     597     594      12
     600     594      12     600     597      13     609     606      12     612
     606      12     612     609      13     621     618      12     624     618
      12     624     621      13     633     630      12     636     630      12
     636     633      13     645     642      12     648     642      12     648
     645      13     657     654      12     660     654      12     660     657
      13     669     666      12     672     666      12     672     669      13
     681     678      12     684     678      12     684     681      13     693
     690      12     696     690      12     696     693      13     705     702
      12     708     702      12     708     705      13     717     714      12
     720     714      12     720     717      13     729     726      12     732
     726      12     732     729      13     741     738      12     744     738
      12     744     741      13     753     750      12     756     750      12
     756     753      13     765     762      12     768     762      12     768
     765      13     777     774      12     780     774      12     780     777
      13     789     786      12     792     786      12     792     789      13
     801     798      12     804     798      12     804     801      13     813
     810      12     816     810      12     816     813      13     825     822
      12     828     822      12     828     825      13     837     834      12
     840     834      12     840     837      13     849     846      12     852
     846      12     852     849      13     861     858      12     864     858
      12     864     861      13     873     870      12     876     870      12
     876     873      13     885     882      12     888     882      12     888
     885      13     897     894      12     900     894      12     900     897
      13     909     906      12     912     906      12     912     909      13
     921     918      12     924     918      12     924     921      13     933
     930      12     936     930      12     936     933      13     945     942
      12     948     942      12     948     945      13     957     954      12
     960     954      12     960     957      13     969     966      12     972
     966      12     972     969      13     981     978      12     984     978
      12     984     981      13     993     990      12     996     990      12
     996     993      13    1005    1002      12    1008    1002      12    1008
    1005      13    1017    1014      12    1020    1014      12    1020    1017
      13    1029    1026      12    1032    1026      12    1032    1029      13
    1041    1038      12    1044    1038      12    1044    1041      13    1053
    1050      12    1056    1050      12    1056    1053      13    1065    1062
      12    1068    1062      12    1068    1065      13    1077    1074      12
    1080    1074      12    1080    1077      13    1089    1086      12    1092
    1086      12    1092    1089      13    1101    1098      12    1104    1098
      12    1104    1101      13    1113    1110      12    1116    1110      12
    1116    1113      13    1125    1122      12    1128    1122      12    1128
    1125      13    1137    1134      12    1140    1134      12    1140    1137
      13    1149    1146      12    1152    1146      12    1152    1149      13
    1161    1158      12    1164    1158      12    1164    1161      13    1173
    1170      12    1176    1170      12    1176    1173      13    1185    1182
      12    1188    1182      12    1188    1185      13    1197    1194      12
    1200    1194      12    1200    1197      13    1209    1206      12    1212
    1206      12    1212    1209      13    1221    1218      12    1224    1218
      12    1224    1221      13    1233    1230      12    1236    1230      12
    1236    1233      13    1245    1242      12    1248    1242      12    1248
    1245      13    1257    1254      12    1260    1254      12    1260    1257
      13    1269    1266      12    1272    1266      12    1272    1269      13
    1281    1278      12    1284    1278      12    1284    1281      13    1293
    1290      12    1296    1290      12    1296    1293      13    1305    1302
      12    1308    1302      12    1308    1305      13    1317    1314      12
    1320    1314      12    1320    1317      13    1329    1326      12    1332
    1326      12    1332    1329      13    1341    1338      12    1344    1338
      12    1344    1341      13    1353    1350      12    1356    1350      12
    1356    1353      13    1365    1362      12    1368    1362      12    1368
    1365      13    1377    1374      12    1380    1374      12    1380    1377
      13    1389    1386      12    1392    1386      12    1392    1389      13
    1401    1398      12    1404    1398      12    1404    1401      13    1413
    1410      12    1416    1410      12    1416    1413      13    1425    1422
      12    1428    1422      12    1428    1425      13    1437    1434      12
    1440    1434      12    1440    1437      13    1449    1446      12    1452
    1446      12    1452    1449      13    1461    1458      12    1464    1458
      12    1464    1461      13    1473    1470      12    1476    1470      12
    1476    1473      13    1485    1482      12    1488    1482      12    1488
    1485      13    1497    1494      12    1500    1494      12    1500    1497
      13    1509    1506      12    1512    1506      12    1512    1509      13
    1521    1518      12    1524    1518      12    1524    1521      13    1533
    1530      12    1536    1530      12    1536    1533      13    1545    1542
      12    1548    1542      12    1548    1545      13    1557    1554      12
    1560    1554      12    1560    1557      13    1569    1566      12    1572
    1566      12    1572    1569      13    1581    1578      12    1584    1578
      12    1584    1581      13    1593    1590      12    1596    1590      12
    1596    1593      13    1605    1602      12    1608    1602      12    1608
    1605      13    1617    1614      12    1620    1614      12    1620    1617
      13    1629    1626      12    1632    1626      12    1632    1629      13
    1641    1638      12    1644    1638      12    1644    1641      13    1653
    1650      12    1656    1650      12    1656    1653      13    1665    1662
      12    1668    1662      12    1668    1665      13    1677    1674      12
    1680    1674      12    1680    1677      13    1689    1686      12    1692
    1686      12    1692    1689      13    1701    1698      12    1704    1698
      12    1704    1701      13    1713    1710      12    1716    1710      12
    1716    1713      13    1725    1722      12    1728    1722      12    1728
    1725      13    1737    1734      12    1740    1734      12    1740    1737
      13    1749    1746      12    1752    1746      12    1752    1749      13
    1761    1758      12    1764    1758      12    1764    1761      13    1773
    1770      12    1776    1770      12    1776    1773      13    1785    1782
      12    1788    1782      12    1788    1785      13    1797    1794      12
    1800    1794      12    1800    1797      13    1809    1806      12    1812
    1806      12    1812    1809      13    1821    1818      12    1824    1818
      12    1824    1821      13    1833    1830      12    1836    1830      12
    1836    1833      13    1845    1842      12    1848    1842      12    1848
    1845      13    1857    1854      12    1860    1854      12    1860    1857
      13    1869    1866      12    1872    1866      12    1872    1869      13
    1881    1878      12    1884    1878      12    1884    1881      13    1893
    1890      12    1896    1890      12    1896    1893      13    1905    1902
      12    1908    1902      12    1908    1905      13    1917    1914      12
    1920    1914      12    1920    1917      13    1929    1926      12    1932
    1926      12    1932    1929      13    1941    1938      12    1944    1938
      12    1944    1941      13    1953    1950      12    1956    1950      12
    1956    1953      13    1965    1962      12    1968    1962      12    1968
    1965      13    1977    1974      12    1980    1974      12    1980    1977
      13    1989    1986      12    1992    1986      12    1992    1989      13
    2001    1998      12    2004    1998      12    2004    2001      13    2013
    2010      12    2016    2010      12    2016    2013      13    2025    2022
      12    2028    2022      12    2028    2025      13    2037    2034      12
    2040    2034      12    2040    2037      13    2049    2046      12    2052
    2046      12    2052    2049      13    2061    2058      12    2064    2058
      12    2064    2061      13    2073    2070      12    2076    2070      12
    2076    2073      13    2085    2082      12    2088    2082      12    2088
    2085      13    2097    2094      12    2100    2094      12    2100    2097
      13    2109    2106      12    2112    2106      12    2112    2109      13
    2121    2118      12    2124    2118      12    2124    2121      13    2133
    2130      12    2136    2130      12    2136    2133      13    2145    2142
      12    2148    2142      12    2148    2145      13    2157    2154      12
    2160    2154      12    2160    2157      13    2169    2166      12    2172
    2166      12    2172    2169      13    2181    2178      12    2184    2178
      12    2184    2181      13    2193    2190      12    2196    2190      12
    2196    2193      13    2205    2202      12    2208    2202      12    2208
    2205      13    2217    2214      12    2220    2214      12    2220    2217
      13    2229    2226      12    2232    2226      12    2232    2229      13
    2241    2238      12    2244    2238      12    2244    2241      13    2253
    2250      12    2256    2250      12    2256    2253      13    2265    2262
      12    2268    2262      12    2268    2265      13    2277    2274      12
    2280    2274      12    2280    2277      13    2289    2286      12    2292
    2286      12    2292    2289      13    2301    2298      12    2304    2298
      12    2304    2301      13    2313    2310      12    2316    2310      12
    2316    2313      13    2325    2322      12    2328    2322      12    2328
    2325      13    2337    2334      12    2340    2334      12    2340    2337
      13    2349    2346      12    2352    2346      12    2352    2349      13
    2361    2358      12    2364    2358      12    2364    2361      13    2373
    2370      12    2376    2370      12    2376    2373      13    2385    2382
      12    2388    2382      12    2388    2385      13    2397    2394      12
    2400    2394      12    2400    2397      13    2409    2406      12    2412
    2406      12    2412    2409      13    2421    2418      12    2424    2418
      12    2424    2421      13    2433    2430      12    2436    2430      12
    2436    2433      13    2445    2442      12    2448    2442      12    2448
    2445      13    2457    2454      12    2460    2454      12    2460    2457
      13    2469    2466      12    2472    2466      12    2472    2469      13
    2481    2478      12    2484    2478      12    2484    2481      13    2493
    2490      12    2496    2490      12    2496    2493      13    2505    2502
      12    2508    2502      12    2508    2505      13    2517    2514      12
    2520    2514      12    2520    2517      13    2529    2526      12    2532
    2526      12    2532    2529      13    2541    2538      12    2544    2538
      12    2544    2541      13    2553    2550      12    2556    2550      12
    2556    2553      13    2565    2562      12    2568    2562      12    2568
    2565      13    2577    2574      12    2580    2574      12    2580    2577
      13    2589    2586      12    2592    2586      12    2592    2589      13
    2601    2598      12    2604    2598      12    2604    2601      13    2613
    2610      12    2616    2610      12    2616    2613      13    2625    2622
      12    2628    2622      12    2628    2625      13    2637    2634      12
    2640    2634      12    2640    2637      13    2649    2646      12    2652
    2646      12    2652    2649      13    2661    2658      12    2664    2658
      12    2664    2661      13    2673    2670      12    2676    2670      12
    2676    2673      13    2685    2682      12    2688    2682      12    2688
    2685      13    2697    2694      12    2700    2694      12    2700    2697
      13    2709    2706      12    2712    2706      12    2712    2709      13
    2721    2718      12    2724    2718      12    2724    2721      13    2733
    2730      12    2736    2730      12    2736    2733      13    2745    2742
      12    2748    2742      12    2748    2745      13    2757    2754      12
    2760    2754      12    2760    2757      13    2769    2766      12    2772
    2766      12    2772    2769      13    2781    2778      12    2784    2778
      12    2784    2781      13    2793    2790      12    2796    2790      12
    2796    2793      13    2805    2802      12    2808    2802      12    2808
    2805      13    2817    2814      12    2820    2814      12    2820    2817
      13    2829    2826      12    2832    2826      12    2832    2829      13
    2841    2838      12    2844    2838      12    2844    2841      13    2853
    2850      12    2856    2850      12    2856    2853      13    2865    2862
      12    2868    2862      12    2868    2865      13    2877    2874      12
    2880    2874      12    2880    2877      13    2889    2886      12    2892
    2886      12    2892    2889      13    2901    2898      12    2904    2898
      12    2904    2901      13    2913    2910      12    2916    2910      12
    2916    2913      13    2925    2922      12    2928    2922      12    2928
    2925      13    2937    2934      12    2940    2934      12    2940    2937
      13    2949    2946      12    2952    2946      12    2952    2949      13
    2961    2958      12    2964    2958      12    2964    2961      13    2973
    2970      12    2976    2970      12    2976    2973      13    2985    2982
      12    2988    2982      12    2988    2985      13    2997    2994      12
    3000    2994      12    3000    2997      13    3009    3006      12    3012
    3006      12    3012    3009      13    3021    3018      12    3024    3018
      12    3024    3021      13    3033    3030      12    3036    3030      12
    3036    3033      13    3045    3042      12    3048    3042      12    3048
    3045      13    3057    3054      12    3060    3054      12    3060    3057
      13    3069    3066      12    3072    3066      12    3072    3069      13
    3081    3078      12    3084    3078      12    3084    3081      13    3093
    3090      12    3096    3090      12    3096    3093      13    3105    3102
      12    3108    3102      12    3108    3105      13    3117    3114      12
    3120    3114      12    3120    3117      13    3129    3126      12    3132
    3126      12    3132    3129      13    3141    3138      12    3144    3138
      12    3144    3141      13    3153    3150      12    3156    3150      12
    3156    3153      13    3165    3162      12    3168    3162      12    3168
    3165      13    3177    3174      12    3180    3174      12    3180    3177
      13    3189    3186      12    3192    3186      12    3192    3189      13
    3201    3198      12    3204    3198      12    3204    3201      13    3213
    3210      12    3216    3210      12    3216    3213      13    3225    3222
      12    3228    3222      12    3228    3225      13    3237    3234      12
    3240    3234      12    3240    3237      13    3249    3246      12    3252
    3246      12    3252    3249      13    3261    3258      12    3264    3258
      12    3264    3261      13    3273    3270      12    3276    3270      12
    3276    3273      13    3285    3282      12    3288    3282      12    3288
    3285      13    3297    3294      12    3300    3294      12    3300    3297
      13    3309    3306      12    3312    3306      12    3312    3309      13
    3321    3318      12    3324    3318      12    3324    3321      13    3333
    3330      12    3336    3330      12    3336    3333      13    3345    3342
      12    3348    3342      12    3348    3345      13    3357    3354      12
    3360    3354      12    3360    3357      13    3369    3366      12    3372
    3366      12    3372    3369      13    3381    3378      12    3384    3378
      12    3384    3381      13    3393    3390      12    3396    3390      12
    3396    3393      13    3405    3402      12    3408    3402      12    3408
    3405      13    3417    3414      12    3420    3414      12    3420    3417
      13    3429    3426      12    3432    3426      12    3432    3429      13
    3441    3438      12    3444    3438      12    3444    3441      13    3453
    3450      12    3456    3450      12    3456    3453      13    3465    3462
      12    3468    3462      12    3468    3465      13    3477    3474      12
    3480    3474      12    3480    3477      13    3489    3486      12    3492
    3486      12    3492    3489      13    3501    3498      12    3504    3498
      12    3504    3501      13    3513    3510      12    3516    3510      12
    3516    3513      13    3525    3522      12    3528    3522      12    3528
    3525      13    3537    3534      12    3540    3534      12    3540    3537
      13    3549    3546      12    3552    3546      12    3552    3549      13
    3561    3558      12    3564    3558      12    3564    3561      13    3573
    3570      12    3576    3570      12    3576    3573      13    3585    3582
      12    3588    3582      12    3588    3585      13    3597    3594      12
    3600    3594      12    3600    3597      13    3609    3606      12    3612
    3606      12    3612    3609      13    3621    3618      12    3624    3618
      12    3624    3621      13    3633    3630      12    3636    3630      12
    3636    3633      13    3645    3642      12    3648    3642      12    3648
    3645      13    3657    3654      12    3660    3654      12    3660    3657
      13    3669    3666      12    3672    3666      12    3672    3669      13
    3681    3678      12    3684    3678      12    3684    3681      13    3693
    3690      12    3696    3690      12    3696    3693      13    3705    3702
      12    3708    3702      12    3708    3705      13    3717    3714      12
    3720    3714      12    3720    3717      13    3729    3726      12    3732
    3726      12    3732    3729      13    3741    3738      12    3744    3738
      12    3744    3741      13    3753    3750      12    3756    3750      12
    3756    3753      13    3765    3762      12    3768    3762      12    3768
    3765      13    3777    3774      12    3780    3774      12    3780    3777
      13    3789    3786      12    3792    3786      12    3792    3789      13
    3801    3798      12    3804    3798      12    3804    3801      13    3813
    3810      12    3816    3810      12    3816    3813      13    3825    3822
      12    3828    3822      12    3828    3825      13    3837    3834      12
    3840    3834      12    3840    3837      13    3849    3846      12    3852
    3846      12    3852    3849      13    3861    3858      12    3864    3858
      12    3864    3861      13    3873    3870      12    3876    3870      12
    3876    3873      13    3885    3882      12    3888    3882      12    3888
    3885      13    3897    3894      12    3900    3894      12    3900    3897
      13    3909    3906      12    3912    3906      12    3912    3909      13
    3921    3918      12    3924    3918      12    3924    3921      13    3933
    3930      12    3936    3930      12    3936    3933      13    3945    3942
      12    3948    3942      12    3948    3945      13    3957    3954      12
    3960    3954      12    3960    3957      13    3969    3966      12    3972
    3966      12    3972    3969      13    3981    3978      12    3984    3978
      12    3984    3981      13    3993    3990      12    3996    3990      12
    3996    3993      13    4005    4002      12    4008    4002      12    4008
    4005      13    4017    4014      12    4020    4014      12    4020    4017
      13    4029    4026      12    4032    4026      12    4032    4029      13
    4041    4038      12    4044    4038      12    4044    4041      13    4053
    4050      12    4056    4050      12    4056    4053      13    4065    4062
      12    4068    4062      12    4068    4065      13    4077    4074      12
    4080    4074      12    4080    4077      13    4089    4086      12    4092
    4086      12    4092    4089      13    4101    4098      12    4104    4098
      12    4104    4101      13    4113    4110      12    4116    4110      12
    4116    4113      13    4125    4122      12    4128    4122      12    4128
    4125      13    4137    4134      12    4140    4134      12    4140    4137
      13    4149    4146      12    4152    4146      12    4152    4149      13
    4161    4158      12    4164    4158      12    4164    4161      13    4173
    4170      12    4176    4170      12    4176    4173      13    4185    4182
      12    4188    4182      12    4188    4185      13    4197    4194      12
    4200    4194      12    4200    4197      13    4209    4206      12    4212
    4206      12    4212    4209      13    4221    4218      12    4224    4218
      12    4224    4221      13    4233    4230      12    4236    4230      12
    4236    4233      13    4245    4242      12    4248    4242      12    4248
    4245      13    4257    4254      12    4260    4254      12    4260    4257
      13    4269    4266      12    4272    4266      12    4272    4269      13
    4281    4278      12    4284    4278      12    4284    4281      13    4293
    4290      12    4296    4290      12    4296    4293      13    4305    4302
      12    4308    4302      12    4308    4305      13    4317    4314      12
    4320    4314      12    4320    4317      13    4329    4326      12    4332
    4326      12    4332    4329      13    4341    4338      12    4344    4338
      12    4344    4341      13    4353    4350      12    4356    4350      12
    4356    4353      13    4365    4362      12    4368    4362      12    4368
    4365      13    4377    4374      12    4380    4374      12    4380    4377
      13    4389    4386      12    4392    4386      12    4392    4389      13
    4401    4398      12    4404    4398      12    4404    4401      13    4413
    4410      12    4416    4410      12    4416    4413      13    4425    4422
      12    4428    4422      12    4428    4425      13    4437    4434      12
    4440    4434      12    4440    4437      13    4449    4446      12    4452
    4446      12    4452    4449      13    4461    4458      12    4464    4458
      12    4464    4461      13    4473    4470      12    4476    4470      12
    4476    4473      13    4485    4482      12    4488    4482      12    4488
    4485      13    4497    4494      12    4500    4494      12    4500    4497
      13    4509    4506      12    4512    4506      12    4512    4509      13
    4521    4518      12    4524    4518      12    4524    4521      13    4533
    4530      12    4536    4530      12    4536    4533      13    4545    4542
      12    4548    4542      12    4548    4545      13    4557    4554      12
    4560    4554      12    4560    4557      13    4569    4566      12    4572
    4566      12    4572    4569      13    4581    4578      12    4584    4578
      12    4584    4581      13    4593    4590      12    4596    4590      12
    4596    4593      13    4605    4602      12    4608    4602      12    4608
    4605      13    4617    4614      12    4620    4614      12    4620    4617
      13    4629    4626      12    4632    4626      12    4632    4629      13
    4641    4638      12    4644    4638      12    4644    4641      13    4653
    4650      12    4656    4650      12    4656    4653      13    4665    4662
      12    4668    4662      12    4668    4665      13    4677    4674      12
    4680    4674      12    4680    4677      13    4689    4686      12    4692
    4686      12    4692    4689      13    4701    4698      12    4704    4698
      12    4704    4701      13    4713    4710      12    4716    4710      12
    4716    4713      13    4725    4722      12    4728    4722      12    4728
    4725      13    4737    4734      12    4740    4734      12    4740    4737
      13    4749    4746      12    4752    4746      12    4752    4749      13
    4761    4758      12    4764    4758      12    4764    4761      13    4773
    4770      12    4776    4770      12    4776    4773      13    4785    4782
      12    4788    4782      12    4788    4785      13    4797    4794      12
    4800    4794      12    4800    4797      13    4809    4806      12    4812
    4806      12    4812    4809      13    4821    4818      12    4824    4818
      12    4824    4821      13    4833    4830      12    4836    4830      12
    4836    4833      13    4845    4842      12    4848    4842      12    4848
    4845      13    4857    4854      12    4860    4854      12    4860    4857
      13    4869    4866      12    4872    4866      12    4872    4869      13
    4881    4878      12    4884    4878      12    4884    4881      13    4893
    4890      12    4896    4890      12    4896    4893      13    4905    4902
      12    4908    4902      12    4908    4905      13    4917    4914      12
    4920    4914      12    4920    4917      13    4929    4926      12    4932
    4926      12    4932    4929      13    4941    4938      12    4944    4938
      12    4944    4941      13    4953    4950      12    4956    4950      12
    4956    4953      13    4965    4962      12    4968    4962      12    4968
    4965      13    4977    4974      12    4980    4974      12    4980    4977
      13    4989    4986      12    4992    4986      12    4992    4989      13
    5001    4998      12    5004    4998      12    5004    5001      13    5013
    5010      12    5016    5010      12    5016    5013      13    5025    5022
      12    5028    5022      12    5028    5025      13    5037    5034      12
    5040    5034      12    5040    5037      13    5049    5046      12    5052
    5046      12    5052    5049      13    5061    5058      12    5064    5058
      12    5064    5061      13    5073    5070      12    5076    5070      12
    5076    5073      13    5085    5082      12    5088    5082      12    5088
    5085      13    5097    5094      12    5100    5094      12    5100    5097
      13    5109    5106      12    5112    5106      12    5112    5109      13
    5121    5118      12    5124    5118      12    5124    5121      13    5133
    5130      12    5136    5130      12    5136    5133      13    5145    5142
      12    5148    5142      12    5148    5145      13    5157    5154      12
    5160    5154      12    5160    5157      13    5169    5166      12    5172
    5166      12    5172    5169      13    5181    5178      12    5184    5178
      12    5184    5181      13    5193    5190      12    5196    5190      12
    5196    5193      13    5205    5202      12    5208    5202      12    5208
    5205      13    5217    5214      12    5220    5214      12    5220    5217
      13    5229    5226      12    5232    5226      12    5232    5229      13
    5241    5238      12    5244    5238      12    5244    5241      13    5253
    5250      12    5256    5250      12    5256    5253      13    5265    5262
      12    5268    5262      12    5268    5265      13    5277    5274      12
    5280    5274      12    5280    5277      13    5289    5286      12    5292
    5286      12    5292    5289      13    5301    5298      12    5304    5298
      12    5304    5301      13    5313    5310      12    5316    5310      12
    5316    5313      13    5325    5322      12    5328    5322      12    5328
    5325      13    5337    5334      12    5340    5334      12    5340    5337
      13    5349    5346      12    5352    5346      12    5352    5349      13
    5361    5358      12    5364    5358      12    5364    5361      13    5373
    5370      12    5376    5370      12    5376    5373      13    5385    5382
      12    5388    5382      12    5388    5385      13    5397    5394      12
    5400    5394      12    5400    5397      13    5409    5406      12    5412
    5406      12    5412    5409      13    5421    5418      12    5424    5418
      12    5424    5421      13    5433    5430      12    5436    5430      12
    5436    5433      13    5445    5442      12    5448    5442      12    5448
    5445      13    5457    5454      12    5460    5454      12    5460    5457
      13    5469    5466      12    5472    5466      12    5472    5469      13
    5481    5478      12    5484    5478      12    5484    5481      13    5493
    5490      12    5496    5490      12    5496    5493      13    5505    5502
      12    5508    5502      12    5508    5505      13    5517    5514      12
    5520    5514      12    5520    5517      13    5529    5526      12    5532
    5526      12    5532    5529      13    5541    5538      12    5544    5538
      12    5544    5541      13    5553    5550      12    5556    5550      12
    5556    5553      13    5565    5562      12    5568    5562      12    5568
    5565      13    5577    5574      12    5580    5574      12    5580    5577
      13    5589    5586      12    5592    5586      12    5592    5589      13
    5601    5598      12    5604    5598      12    5604    5601      13    5613
    5610      12    5616    5610      12    5616    5613      13    5625    5622
      12    5628    5622      12    5628    5625      13    5637    5634      12
    5640    5634      12    5640    5637      13    5649    5646      12    5652
    5646      12    5652    5649      13    5661    5658      12    5664    5658
      12    5664    5661      13    5673    5670      12    5676    5670      12
    5676    5673      13    5685    5682      12    5688    5682      12    5688
    5685      13    5697    5694      12    5700    5694      12    5700    5697
      13    5709    5706      12    5712    5706      12    5712    5709      13
    5721    5718      12    5724    5718      12    5724    5721      13    5733
    5730      12    5736    5730      12    5736    5733      13    5745    5742
      12    5748    5742      12    5748    5745      13    5757    5754      12
    5760    5754      12    5760    5757      13    5769    5766      12    5772
    5766      12    5772    5769      13    5781    5778      12    5784    5778
      12    5784    5781      13    5793    5790      12    5796    5790      12
    5796    5793      13    5805    5802      12    5808    5802      12    5808
    5805      13    5817    5814      12    5820    5814      12    5820    5817
      13    5829    5826      12    5832    5826      12    5832    5829      13
    5841    5838      12    5844    5838      12    5844    5841      13    5853
    5850      12    5856    5850      12    5856    5853      13    5865    5862
      12    5868    5862      12    5868    5865      13    5877    5874      12
    5880    5874      12    5880    5877      13    5889    5886      12    5892
    5886      12    5892    5889      13    5901    5898      12    5904    5898
      12    5904    5901      13    5913    5910      12    5916    5910      12
    5916    5913      13    5925    5922      12    5928    5922      12    5928
    5925      13    5937    5934      12    5940    5934      12    5940    5937
      13    5949    5946      12    5952    5946      12    5952    5949      13
    5961    5958      12    5964    5958      12    5964    5961      13    5973
    5970      12    5976    5970      12    5976    5973      13    5985    5982
      12    5988    5982      12    5988    5985      13    5997    5994      12
    6000    5994      12    6000    5997      13    6009    6006      12    6012
    6006      12    6012    6009      13    6021    6018      12    6024    6018
      12    6024    6021      13    6033    6030      12    6036    6030      12
    6036    6033      13    6045    6042      12    6048    6042      12    6048
    6045      13    6057    6054      12    6060    6054      12    6060    6057
      13    6069    6066      12    6072    6066      12    6072    6069      13
    6081    6078      12    6084    6078      12    6084    6081      13    6093
    6090      12    6096    6090      12    6096    6093      13    6105    6102
      12    6108    6102      12    6108    6105      13    6117    6114      12
    6120    6114      12    6120    6117      13    6129    6126      12    6132
    6126      12    6132    6129      13    6141    6138      12    6144    6138
      12    6144    6141      13    6153    6150      12    6156    6150      12
    6156    6153      13    6165    6162      12    6168    6162      12    6168
    6165      13    6177    6174      12    6180    6174      12    6180    6177
      13    6189    6186      12    6192    6186      12    6192    6189      13
    6201    6198      12    6204    6198      12    6204    6201      13    6213
    6210      12    6216    6210      12    6216    6213      13    6225    6222
      12    6228    6222      12    6228    6225      13    6237    6234      12
    6240    6234      12    6240    6237      13    6249    6246      12    6252
    6246      12    6252    6249      13    6261    6258      12    6264    6258
      12    6264    6261      13    6273    6270      12    6276    6270      12
    6276    6273      13    6285    6282      12    6288    6282      12    6288
    6285      13    6297    6294      12    6300    6294      12    6300    6297
      13    6309    6306      12    6312    6306      12    6312    6309      13
    6321    6318      12    6324    6318      12    6324    6321      13    6333
    6330      12    6336    6330      12    6336    6333      13    6345    6342
      12    6348    6342      12    6348    6345      13    6357    6354      12
    6360    6354      12    6360    6357      13    6369    6366      12    6372
    6366      12    6372    6369      13    6381    6378      12    6384    6378
      12    6384    6381      13    6393    6390      12    6396    6390      12
    6396    6393      13    6405    6402      12    6408    6402      12    6408
    6405      13    6417    6414      12    6420    6414      12    6420    6417
      13    6429    6426      12    6432    6426      12    6432    6429      13
    6441    6438      12    6444    6438      12    6444    6441      13    6453
    6450      12    6456    6450      12    6456    6453      13    6465    6462
      12    6468    6462      12    6468    6465      13    6477    6474      12
    6480    6474      12    6480    6477      13    6489    6486      12    6492
    6486      12    6492    6489      13    6501    6498      12    6504    6498
      12    6504    6501      13    6513    6510      12    6516    6510      12
    6516    6513      13    6525    6522      12    6528    6522      12    6528
    6525      13    6537    6534      12    6540    6534      12    6540    6537
      13    6549    6546      12    6552    6546      12    6552    6549      13
    6561    6558      12    6564    6558      12    6564    6561      13    6573
    6570      12    6576    6570      12    6576    6573      13    6585    6582
      12    6588    6582      12    6588    6585      13    6597    6594      12
    6600    6594      12    6600    6597      13    6609    6606      12    6612
    6606      12    6612    6609      13    6621    6618      12    6624    6618
      12    6624    6621      13    6633    6630      12    6636    6630      12
    6636    6633      13    6645    6642      12    6648    6642      12    6648
    6645      13    6657    6654      12    6660    6654      12    6660    6657
      13    6669    6666      12    6672    6666      12    6672    6669      13
    6681    6678      12    6684    6678      12    6684    6681      13    6693
    6690      12    6696    6690      12    6696    6693      13    6705    6702
      12    6708    6702      12    6708    6705      13    6717    6714      12
    6720    6714      12    6720    6717      13    6729    6726      12    6732
    6726      12    6732    6729      13    6741    6738      12    6744    6738
      12    6744    6741      13    6753    6750      12    6756    6750      12
    6756    6753      13    6765    6762      12    6768    6762      12    6768
    6765      13    6777    6774      12    6780    6774      12    6780    6777
      13    6789    6786      12    6792    6786      12    6792    6789      13
    6801    6798      12    6804    6798      12    6804    6801      13    6813
    6810      12    6816    6810      12    6816    6813      13    6825    6822
      12    6828    6822      12    6828    6825      13    6837    6834      12
    6840    6834      12    6840    6837      13    6849    6846      12    6852
    6846      12    6852    6849      13    6861    6858      12    6864    6858
      12    6864    6861      13    6873    6870      12    6876    6870      12
    6876    6873      13    6885    6882      12    6888    6882      12    6888
    6885      13    6897    6894      12    6900    6894      12    6900    6897
      13    6909    6906      12    6912    6906      12    6912    6909      13
    6921    6918      12    6924    6918      12    6924    6921      13    6933
    6930      12    6936    6930      12    6936    6933      13    6945    6942
      12    6948    6942      12    6948    6945      13    6957    6954      12
    6960    6954      12    6960    6957      13    6969    6966      12    6972
    6966      12    6972    6969      13    6981    6978      12    6984    6978
      12    6984    6981      13    6993    6990      12    6996    6990      12
    6996    6993      13    7005    7002      12    7008    7002      12    7008
    7005      13    7017    7014      12    7020    7014      12    7020    7017
      13    7029    7026      12    7032    7026      12    7032    7029      13
    7041    7038      12    7044    7038      12    7044    7041      13    7053
    7050      12    7056    7050      12    7056    7053      13    7065    7062
      12    7068    7062      12    7068    7065      13    7077    7074      12
    7080    7074      12    7080    7077      13    7089    7086      12    7092
    7086      12    7092    7089      13    7101    7098      12    7104    7098
      12    7104    7101      13    7113    7110      12    7116    7110      12
    7116    7113      13    7125    7122      12    7128    7122      12    7128
    7125      13    7137    7134      12    7140    7134      12    7140    7137
      13    7149    7146      12    7152    7146      12    7152    7149      13
    7161    7158      12    7164    7158      12    7164    7161      13    7173
    7170      12    7176    7170      12    7176    7173      13    7185    7182
      12    7188    7182      12    7188    7185      13    7197    7194      12
    7200    7194      12    7200    7197      13    7209    7206      12    7212
    7206      12    7212    7209      13    7221    7218      12    7224    7218
      12    7224    7221      13    7233    7230      12    7236    7230      12
    7236    7233      13    7245    7242      12    7248    7242      12    7248
    7245      13    7257    7254      12    7260    7254      12    7260    7257
      13    7269    7266      12    7272    7266      12    7272    7269      13
    7281    7278      12    7284    7278      12    7284    7281      13    7293
    7290      12    7296    7290      12    7296    7293      13    7305    7302
      12    7308    7302      12    7308    7305      13    7317    7314      12
    7320    7314      12    7320    7317      13    7329    7326      12    7332
    7326      12    7332    7329      13    7341    7338      12    7344    7338
      12    7344    7341      13    7353    7350      12    7356    7350      12
    7356    7353      13    7365    7362      12    7368    7362      12    7368
    7365      13    7377    7374      12    7380    7374      12    7380    7377
      13    7389    7386      12    7392    7386      12    7392    7389      13
    7401    7398      12    7404    7398      12    7404    7401      13    7413
    7410      12    7416    7410      12    7416    7413      13    7425    7422
      12    7428    7422      12    7428    7425      13    7437    7434      12
    7440    7434      12    7440    7437      13    7449    7446      12    7452
    7446      12    7452    7449      13    7461    7458      12    7464    7458
      12    7464    7461      13    7473    7470      12    7476    7470      12
    7476    7473      13    7485    7482      12    7488    7482      12    7488
    7485      13    7497    7494      12    7500    7494      12    7500    7497
      13    7509    7506      12    7512    7506      12    7512    7509      13
    7521    7518      12    7524    7518      12    7524    7521      13    7533
    7530      12    7536    7530      12    7536    7533      13    7545    7542
      12    7548    7542      12    7548    7545      13    7557    7554      12
    7560    7554      12    7560    7557      13    7569    7566      12    7572
    7566      12    7572    7569      13    7581    7578      12    7584    7578
      12    7584    7581      13    7593    7590      12    7596    7590      12
    7596    7593      13    7605    7602      12    7608    7602      12    7608
    7605      13    7617    7614      12    7620    7614      12    7620    7617
      13    7629    7626      12    7632    7626      12    7632    7629      13
    7641    7638      12    7644    7638      12    7644    7641      13    7653
    7650      12    7656    7650      12    7656    7653      13    7665    7662
      12    7668    7662      12    7668    7665      13    7677    7674      12
    7680    7674      12    7680    7677      13    7689    7686      12    7692
    7686      12    7692    7689      13    7701    7698      12    7704    7698
      12    7704    7701      13    7713    7710      12    7716    7710      12
    7716    7713      13    7725    7722      12    7728    7722      12    7728
    7725      13    7737    7734      12    7740    7734      12    7740    7737
      13    7749    7746      12    7752    7746      12    7752    7749      13
    7761    7758      12    7764    7758      12    7764    7761      13    7773
    7770      12    7776    7770      12    7776    7773      13    7785    7782
      12    7788    7782      12    7788    7785      13    7797    7794      12
    7800    7794      12    7800    7797      13    7809    7806      12    7812
    7806      12    7812    7809      13    7821    7818      12    7824    7818
      12    7824    7821      13    7833    7830      12    7836    7830      12
    7836    7833      13    7845    7842      12    7848    7842      12    7848
    7845      13    7857    7854      12    7860    7854      12    7860    7857
      13    7869    7866      12    7872    7866      12    7872    7869      13
    7881    7878      12    7884    7878      12    7884    7881      13    7893
    7890      12    7896    7890      12    7896    7893      13    7905    7902
      12    7908    7902      12    7908    7905      13    7917    7914      12
    7920    7914      12    7920    7917      13    7929    7926      12    7932
    7926      12    7932    7929      13    7941    7938      12    7944    7938
      12    7944    7941      13    7953    7950      12    7956    7950      12
    7956    7953      13    7965    7962      12    7968    7962      12    7968
    7965      13    7977    7974      12    7980    7974      12    7980    7977
      13    7989    7986      12    7992    7986      12    7992    7989      13
    8001    7998      12    8004    7998      12    8004    8001      13    8013
    8010      12    8016    8010      12    8016    8013      13    8025    8022
      12    8028    8022      12    8028    8025      13    8037    8034      12
    8040    8034      12    8040    8037      13    8049    8046      12    8052
    8046      12    8052    8049      13    8061    8058      12    8064    8058
      12    8064    8061      13    8073    8070      12    8076    8070      12
    8076    8073      13    8085    8082      12    8088    8082      12    8088
    8085      13    8097    8094      12    8100    8094      12    8100    8097
      13    8109    8106      12    8112    8106      12    8112    8109      13
    8121    8118      12    8124    8118      12    8124    8121      13    8133
    8130      12    8136    8130      12    8136    8133      13    8145    8142
      12    8148    8142      12    8148    8145      13    8157    8154      12
    8160    8154      12    8160    8157      13    8169    8166      12    8172
    8166      12    8172    8169      13    8181    8178      12    8184    8178
      12    8184    8181      13    8193    8190      12    8196    8190      12
    8196    8193      13    8205    8202      12    8208    8202      12    8208
    8205      13    8217    8214      12    8220    8214      12    8220    8217
      13    8229    8226      12    8232    8226      12    8232    8229      13
    8241    8238      12    8244    8238      12    8244    8241      13    8253
    8250      12    8256    8250      12    8256    8253      13    8265    8262
      12    8268    8262      12    8268    8265      13    8277    8274      12
    8280    8274      12    8280    8277      13    8289    8286      12    8292
    8286      12    8292    8289      13    8301    8298      12    8304    8298
      12    8304    8301      13    8313    8310      12    8316    8310      12
    8316    8313      13    8325    8322      12    8328    8322      12    8328
    8325      13    8337    8334      12    8340    8334      12    8340    8337
      13    8349    8346      12    8352    8346      12    8352    8349      13
    8361    8358      12    8364    8358      12    8364    8361      13    8373
    8370      12    8376    8370      12    8376    8373      13    8385    8382
      12    8388    8382      12    8388    8385      13    8397    8394      12
    8400    8394      12    8400    8397      13    8409    8406      12    8412
    8406      12    8412    8409      13    8421    8418      12    8424    8418
      12    8424    8421      13    8433    8430      12    8436    8430      12
    8436    8433      13    8445    8442      12    8448    8442      12    8448
    8445      13    8457    8454      12    8460    8454      12    8460    8457
      13    8469    8466      12    8472    8466      12    8472    8469      13
    8481    8478      12    8484    8478      12    8484    8481      13    8493
    8490      12    8496    8490      12    8496    8493      13    8505    8502
      12    8508    8502      12    8508    8505      13    8517    8514      12
    8520    8514      12    8520    8517      13    8529    8526      12    8532
    8526      12    8532    8529      13    8541    8538      12    8544    8538
      12    8544    8541      13    8553    8550      12    8556    8550      12
    8556    8553      13    8565    8562      12    8568    8562      12    8568
    8565      13    8577    8574      12    8580    8574      12    8580    8577
      13    8589    8586      12    8592    8586      12    8592    8589      13
    8601    8598      12    8604    8598      12    8604    8601      13    8613
    8610      12    8616    8610      12    8616    8613      13    8625    8622
      12    8628    8622      12    8628    8625      13    8637    8634      12
    8640    8634      12    8640    8637      13    8649    8646      12    8652
    8646      12    8652    8649      13    8661    8658      12    8664    8658
      12    8664    8661      13    8673    8670      12    8676    8670      12
    8676    8673      13    8685    8682      12    8688    8682      12    8688
    8685      13    8697    8694      12    8700    8694      12    8700    8697
      13    8709    8706      12    8712    8706      12    8712    8709      13
    8721    8718      12    8724    8718      12    8724    8721      13    8733
    8730      12    8736    8730      12    8736    8733      13    8745    8742
      12    8748    8742      12    8748    8745      13    8757    8754      12
    8760    8754      12    8760    8757      13    8769    8766      12    8772
    8766      12    8772    8769      13    8781    8778      12    8784    8778
      12    8784    8781      13    8793    8790      12    8796    8790      12
    8796    8793      13    8805    8802      12    8808    8802      12    8808
    8805      13    8817    8814      12    8820    8814      12    8820    8817
      13    8829    8826      12    8832    8826      12    8832    8829      13
    8841    8838      12    8844    8838      12    8844    8841      13    8853
    8850      12    8856    8850      12    8856    8853      13    8865    8862
      12    8868    8862      12    8868    8865      13    8877    8874      12
    8880    8874      12    8880    8877      13    8889    8886      12    8892
    8886      12    8892    8889      13    8901    8898      12    8904    8898
      12    8904    8901      13    8913    8910      12    8916    8910      12
    8916    8913      13    8925    8922      12    8928    8922      12    8928
    8925      13    8937    8934      12    8940    8934      12    8940    8937
      13    8949    8946      12    8952    8946      12    8952    8949      13
    8961    8958      12    8964    8958      12    8964    8961      13    8973
    8970      12    8976    8970      12    8976    8973      13    8985    8982
      12    8988    8982      12    8988    8985      13    8997    8994      12
    9000    8994      12    9000    8997      13    9009    9006      12    9012
    9006      12    9012    9009      13    9021    9018      12    9024    9018
      12    9024    9021      13    9033    9030      12    9036    9030      12
    9036    9033      13    9045    9042      12    9048    9042      12    9048
    9045      13    9057    9054      12    9060    9054      12    9060    9057
      13    9069    9066      12    9072    9066      12    9072    9069      13
    9081    9078      12    9084    9078      12    9084    9081      13    9093
    9090      12    9096    9090      12    9096    9093      13    9105    9102
      12    9108    9102      12    9108    9105      13    9117    9114      12
    9120    9114      12    9120    9117      13    9129    9126      12    9132
    9126      12    9132    9129      13    9141    9138      12    9144    9138
      12    9144    9141      13    9153    9150      12    9156    9150      12
    9156    9153      13    9165    9162      12    9168    9162      12    9168
    9165      13    9177    9174      12    9180    9174      12    9180    9177
      13    9189    9186      12    9192    9186      12    9192    9189      13
    9201    9198      12    9204    9198      12    9204    9201      13    9213
    9210      12    9216    9210      12    9216    9213      13    9225    9222
      12    9228    9222      12    9228    9225      13    9237    9234      12
    9240    9234      12    9240    9237      13    9249    9246      12    9252
    9246      12    9252    9249      13    9261    9258      12    9264    9258
      12    9264    9261      13    9273    9270      12    9276    9270      12
    9276    9273      13    9285    9282      12    9288    9282      12    9288
    9285      13    9297    9294      12    9300    9294      12    9300    9297
      13    9309    9306      12    9312    9306      12    9312    9309      13
    9321    9318      12    9324    9318      12    9324    9321      13    9333
    9330      12    9336    9330      12    9336    9333      13    9345    9342
      12    9348    9342      12    9348    9345      13    9357    9354      12
    9360    9354      12    9360    9357      13    9369    9366      12    9372
    9366      12    9372    9369      13    9381    9378      12    9384    9378
      12    9384    9381      13    9393    9390      12    9396    9390      12
    9396    9393      13    9405    9402      12    9408    9402      12    9408
    9405      13    9417    9414      12    9420    9414      12    9420    9417
      13    9429    9426      12    9432    9426      12    9432    9429      13
    9441    9438      12    9444    9438      12    9444    9441      13    9453
    9450      12    9456    9450      12    9456    9453      13    9465    9462
      12    9468    9462      12    9468    9465      13    9477    9474      12
    9480    9474      12    9480    9477      13    9489    9486      12    9492
    9486      12    9492    9489      13    9501    9498      12    9504    9498
      12    9504    9501      13    9513    9510      12    9516    9510      12
    9516    9513      13    9525    9522      12    9528    9522      12    9528
    9525      13    9537    9534      12    9540    9534      12    9540    9537
      13    9549    9546      12    9552    9546      12    9552    9549      13
    9561    9558      12    9564    9558      12    9564    9561      13    9573
    9570      12    9576    9570      12    9576    9573      13    9585    9582
      12    9588    9582      12    9588    9585      13    9597    9594      12
    9600    9594      12    9600    9597      13    9609    9606      12    9612
    9606      12    9612    9609      13    9621    9618      12    9624    9618
      12    9624    9621      13    9633    9630      12    9636    9630      12
    9636    9633      13    9645    9642      12    9648    9642      12    9648
    9645      13    9657    9654      12    9660    9654      12    9660    9657
      13    9669    9666      12    9672    9666      12    9672    9669      13
    9681    9678      12    9684    9678      12    9684    9681      13    9693
    9690      12    9696    9690      12    9696    9693      13    9705    9702
      12    9708    9702      12    9708    9705      13    9717    9714      12
    9720    9714      12    9720    9717      13    9729    9726      12    9732
    9726      12    9732    9729      13    9741    9738      12    9744    9738
      12    9744    9741      13    9753    9750      12    9756    9750      12
    9756    9753      13    9765    9762      12    9768    9762      12    9768
    9765      13    9777    9774      12    9780    9774      12    9780    9777
      13    9789    9786      12    9792    9786      12    9792    9789      13
    9801    9798      12    9804    9798      12    9804    9801      13    9813
    9810      12    9816    9810      12    9816    9813      13    9825    9822
      12    9828    9822      12    9828    9825      13    9837    9834      12
    9840    9834      12    9840    9837      13    9849    9846      12    9852
    9846      12    9852    9849      13    9861    9858      12    9864    9858
      12    9864    9861      13    9873    9870      12    9876    9870      12
    9876    9873      13    9885    9882      12    9888    9882      12    9888
    9885      13    9897    9894      12    9900    9894      12    9900    9897
      13    9909    9906      12    9912    9906      12    9912    9909      13
    9921    9918      12    9924    9918      12    9924    9921      13    9933
    9930      12    9936    9930      12    9936    9933      13    9945    9942
      12    9948    9942      12    9948    9945      13    9957    9954      12
    9960    9954      12    9960    9957      13    9969    9966      12    9972
    9966      12    9972    9969      13    9981    9978      12    9984    9978
      12    9984    9981      13    9993    9990      12    9996    9990      12
    9996    9993      13   10005   10002      12   10008   10002      12   10008
   10005      13   10017   10014      12   10020   10014      12   10020   10017
      13   10029   10026      12   10032   10026      12   10032   10029      13
   10041   10038      12   10044   10038      12   10044   10041      13   10053
   10050      12   10056   10050      12   10056   10053      13   10065   10062
      12   10068   10062      12   10068   10065      13   10077   10074      12
   10080   10074      12   10080   10077      13   10089   10086      12   10092
   10086      12   10092   10089      13   10101   10098      12   10104   10098
      12   10104   10101      13   10113   10110      12   10116   10110      12
   10116   10113      13   10125   10122      12   10128   10122      12   10128
   10125      13   10137   10134      12   10140   10134      12   10140   10137
      13   10149   10146      12   10152   10146      12   10152   10149      13
   10161   10158      12   10164   10158      12   10164   10161      13   10173
   10170      12   10176   10170      12   10176   10173      13   10185   10182
      12   10188   10182      12   10188   10185      13   10197   10194      12
   10200   10194      12   10200   10197      13   10209   10206      12   10212
   10206      12   10212   10209      13   10221   10218      12   10224   10218
      12   10224   10221      13   10233   10230      12   10236   10230      12
   10236   10233      13   10245   10242      12   10248   10242      12   10248
   10245      13   10257   10254      12   10260   10254      12   10260   10257
      13   10269   10266      12   10272   10266      12   10272   10269      13
   10281   10278      12   10284   10278      12   10284   10281      13   10293
   10290      12   10296   10290      12   10296   10293      13   10305   10302
      12   10308   10302      12   10308   10305      13   10317   10314      12
   10320   10314      12   10320   10317      13   10329   10326      12   10332
   10326      12   10332   10329      13   10341   10338      12   10344   10338
      12   10344   10341      13   10353   10350      12   10356   10350      12
   10356   10353      13   10365   10362      12   10368   10362      12   10368
   10365      13   10377   10374      12   10380   10374      12   10380   10377
      13   10389   10386      12   10392   10386      12   10392   10389      13
   10401   10398      12   10404   10398      12   10404   10401      13   10413
   10410      12   10416   10410      12   10416   10413      13   10425   10422
      12   10428   10422      12   10428   10425      13   10437   10434      12
   10440   10434      12   10440   10437      13   10449   10446      12   10452
   10446      12   10452   10449      13   10461   10458      12   10464   10458
      12   10464   10461      13   10473   10470      12   10476   10470      12
   10476   10473      13   10485   10482      12   10488   10482      12   10488
   10485      13   10497   10494      12   10500   10494      12   10500   10497
      13   10509   10506      12   10512   10506      12   10512   10509      13
   10521   10518      12   10524   10518      12   10524   10521      13   10533
   10530      12   10536   10530      12   10536   10533      13   10545   10542
      12   10548   10542      12   10548   10545      13   10557   10554      12
   10560   10554      12   10560   10557      13   10569   10566      12   10572
   10566      12   10572   10569      13   10581   10578      12   10584   10578
      12   10584   10581      13   10593   10590      12   10596   10590      12
   10596   10593      13   10605   10602      12   10608   10602      12   10608
   10605      13   10617   10614      12   10620   10614      12   10620   10617
      13   10629   10626      12   10632   10626      12   10632   10629      13
   10641   10638      12   10644   10638      12   10644   10641      13   10653
   10650      12   10656   10650      12   10656   10653      13   10665   10662
      12   10668   10662      12   10668   10665      13   10677   10674      12
   10680   10674      12   10680   10677      13   10689   10686      12   10692
   10686      12   10692   10689      13   10701   10698      12   10704   10698
      12   10704   10701      13   10713   10710      12   10716   10710      12
   10716   10713      13   10725   10722      12   10728   10722      12   10728
   10725      13   10737   10734      12   10740   10734      12   10740   10737
      13   10749   10746      12   10752   10746      12   10752   10749      13
   10761   10758      12   10764   10758      12   10764   10761      13   10773
   10770      12   10776   10770      12   10776   10773      13   10785   10782
      12   10788   10782      12   10788   10785      13   10797   10794      12
   10800   10794      12   10800   10797      13   10809   10806      12   10812
   10806      12   10812   10809      13   10821   10818      12   10824   10818
      12   10824   10821      13   10833   10830      12   10836   10830      12
   10836   10833      13   10845   10842      12   10848   10842      12   10848
   10845      13   10857   10854      12   10860   10854      12   10860   10857
      13   10869   10866      12   10872   10866      12   10872   10869      13
   10881   10878      12   10884   10878      12   10884   10881      13   10893
   10890      12   10896   10890      12   10896   10893      13   10905   10902
      12   10908   10902      12   10908   10905      13   10917   10914      12
   10920   10914      12   10920   10917      13   10929   10926      12   10932
   10926      12   10932   10929      13   10941   10938      12   10944   10938
      12   10944   10941      13   10953   10950      12   10956   10950      12
   10956   10953      13   10965   10962      12   10968   10962      12   10968
   10965      13   10977   10974      12   10980   10974      12   10980   10977
      13   10989   10986      12   10992   10986      12   10992   10989      13
   11001   10998      12   11004   10998      12   11004   11001      13   11013
   11010      12   11016   11010      12   11016   11013      13   11025   11022
      12   11028   11022      12   11028   11025      13   11037   11034      12
   11040   11034      12   11040   11037      13   11049   11046      12   11052
   11046      12   11052   11049      13   11061   11058      12   11064   11058
      12   11064   11061      13   11073   11070      12   11076   11070      12
   11076   11073      13   11085   11082      12   11088   11082      12   11088
   11085      13   11097   11094      12   11100   11094      12   11100   11097
      13   11109   11106      12   11112   11106      12   11112   11109      13
   11121   11118      12   11124   11118      12   11124   11121      13   11133
   11130      12   11136   11130      12   11136   11133      13   11145   11142
      12   11148   11142      12   11148   11145      13   11157   11154      12
   11160   11154      12   11160   11157      13   11169   11166      12   11172
   11166      12   11172   11169      13   11181   11178      12   11184   11178
      12   11184   11181      13   11193   11190      12   11196   11190      12
   11196   11193      13   11205   11202      12   11208   11202      12   11208
   11205      13   11217   11214      12   11220   11214      12   11220   11217
      13   11229   11226      12   11232   11226      12   11232   11229      13
   11241   11238      12   11244   11238      12   11244   11241      13   11253
   11250      12   11256   11250      12   11256   11253      13   11265   11262
      12   11268   11262      12   11268   11265      13   11277   11274      12
   11280   11274      12   11280   11277      13   11289   11286      12   11292
   11286      12   11292   11289      13   11301   11298      12   11304   11298
      12   11304   11301      13   11313   11310      12   11316   11310      12
   11316   11313      13   11325   11322      12   11328   11322      12   11328
   11325      13   11337   11334      12   11340   11334      12   11340   11337
      13   11349   11346      12   11352   11346      12   11352   11349      13
   11361   11358      12   11364   11358      12   11364   11361      13   11373
   11370      12   11376   11370      12   11376   11373      13   11385   11382
      12   11388   11382      12   11388   11385      13   11397   11394      12
   11400   11394      12   11400   11397      13   11409   11406      12   11412
   11406      12   11412   11409      13   11421   11418      12   11424   11418
      12   11424   11421      13   11433   11430      12   11436   11430      12
   11436   11433      13   11445   11442      12   11448   11442      12   11448
   11445      13   11457   11454      12   11460   11454      12   11460   11457
      13   11469   11466      12   11472   11466      12   11472   11469      13
   11481   11478      12   11484   11478      12   11484   11481      13   11493
   11490      12   11496   11490      12   11496   11493      13   11505   11502
      12   11508   11502      12   11508   11505      13   11517   11514      12
   11520   11514      12   11520   11517      13   11529   11526      12   11532
   11526      12   11532   11529      13   11541   11538      12   11544   11538
      12   11544   11541      13   11553   11550      12   11556   11550      12
   11556   11553      13   11565   11562      12   11568   11562      12   11568
   11565      13   11577   11574      12   11580   11574      12   11580   11577
      13   11589   11586      12   11592   11586      12   11592   11589      13
   11601   11598      12   11604   11598      12   11604   11601      13   11613
   11610      12   11616   11610      12   11616   11613      13   11625   11622
      12   11628   11622      12   11628   11625      13   11637   11634      12
   11640   11634      12   11640   11637      13   11649   11646      12   11652
   11646      12   11652   11649      13   11661   11658      12   11664   11658
      12   11664   11661      13   11673   11670      12   11676   11670      12
   11676   11673      13   11685   11682      12   11688   11682      12   11688
   11685      13   11697   11694      12   11700   11694      12   11700   11697
      13   11709   11706      12   11712   11706      12   11712   11709      13
   11721   11718      12   11724   11718      12   11724   11721      13   11733
   11730      12   11736   11730      12   11736   11733      13   11745   11742
      12   11748   11742      12   11748   11745      13   11757   11754      12
   11760   11754      12   11760   11757      13   11769   11766      12   11772
   11766      12   11772   11769      13   11781   11778      12   11784   11778
      12   11784   11781      13   11793   11790      12   11796   11790      12
   11796   11793      13   11805   11802      12   11808   11802      12   11808
   11805      13   11817   11814      12   11820   11814      12   11820   11817
      13   11829   11826      12   11832   11826      12   11832   11829      13
   11841   11838      12   11844   11838      12   11844   11841      13   11853
   11850      12   11856   11850      12   11856   11853      13   11865   11862
      12   11868   11862      12   11868   11865      13   11877   11874      12
   11880   11874      12   11880   11877      13   11889   11886      12   11892
   11886      12   11892   11889      13   11901   11898      12   11904   11898
      12   11904   11901      13   11913   11910      12   11916   11910      12
   11916   11913      13   11925   11922      12   11928   11922      12   11928
   11925      13   11937   11934      12   11940   11934      12   11940   11937
      13   11949   11946      12   11952   11946      12   11952   11949      13
   11961   11958      12   11964   11958      12   11964   11961      13   11973
   11970      12   11976   11970      12   11976   11973      13   11985   11982
      12   11988   11982      12   11988   11985      13   11997   11994      12
   12000   11994      12   12000   11997      13   12009   12006      12   12012
   12006      12   12012   12009      13   12021   12018      12   12024   12018
      12   12024   12021      13   12033   12030      12   12036   12030      12
   12036   12033      13   12045   12042      12   12048   12042      12   12048
   12045      13   12057   12054      12   12060   12054      12   12060   12057
      13   12069   12066      12   12072   12066      12   12072   12069      13
   12081   12078      12   12084   12078      12   12084   12081      13   12093
   12090      12   12096   12090      12   12096   12093      13   12105   12102
      12   12108   12102      12   12108   12105      13   12117   12114      12
   12120   12114      12   12120   12117      13   12129   12126      12   12132
   12126      12   12132   12129      13   12141   12138      12   12144   12138
      12   12144   12141      13   12153   12150      12   12156   12150      12
   12156   12153      13   12165   12162      12   12168   12162      12   12168
   12165      13   12177   12174      12   12180   12174      12   12180   12177
      13   12189   12186      12   12192   12186      12   12192   12189      13
   12201   12198      12   12204   12198      12   12204   12201      13   12213
   12210      12   12216   12210      12   12216   12213      13   12225   12222
      12   12228   12222      12   12228   12225      13   12237   12234      12
   12240   12234      12   12240   12237      13   12249   12246      12   12252
   12246      12   12252   12249      13   12261   12258      12   12264   12258
      12   12264   12261      13   12273   12270      12   12276   12270      12
   12276   12273      13   12285   12282      12   12288   12282      12   12288
   12285      13   12297   12294      12   12300   12294      12   12300   12297
      13   12309   12306      12   12312   12306      12   12312   12309      13
   12321   12318      12   12324   12318      12   12324   12321      13   12333
   12330      12   12336   12330      12   12336   12333      13   12345   12342
      12   12348   12342      12   12348   12345      13   12357   12354      12
   12360   12354      12   12360   12357      13   12369   12366      12   12372
   12366      12   12372   12369      13   12381   12378      12   12384   12378
      12   12384   12381      13   12393   12390      12   12396   12390      12
   12396   12393      13   12405   12402      12   12408   12402      12   12408
   12405      13   12417   12414      12   12420   12414      12   12420   12417
      13   12429   12426      12   12432   12426      12   12432   12429      13
   12441   12438      12   12444   12438      12   12444   12441      13   12453
   12450      12   12456   12450      12   12456   12453      13   12465   12462
      12   12468   12462      12   12468   12465      13   12477   12474      12
   12480   12474      12   12480   12477      13   12489   12486      12   12492
   12486      12   12492   12489      13   12501   12498      12   12504   12498
      12   12504   12501      13   12513   12510      12   12516   12510      12
   12516   12513      13   12525   12522      12   12528   12522      12   12528
   12525      13   12537   12534      12   12540   12534      12   12540   12537
      13   12549   12546      12   12552   12546      12   12552   12549      13
   12561   12558      12   12564   12558      12   12564   12561      13   12573
   12570      12   12576   12570      12   12576   12573      13   12585   12582
      12   12588   12582      12   12588   12585      13   12597   12594      12
   12600   12594      12   12600   12597      13   12609   12606      12   12612
   12606      12   12612   12609      13   12621   12618      12   12624   12618
      12   12624   12621      13   12633   12630      12   12636   12630      12
   12636   12633      13   12645   12642      12   12648   12642      12   12648
   12645      13   12657   12654      12   12660   12654      12   12660   12657
      13   12669   12666      12   12672   12666      12   12672   12669      13
   12681   12678      12   12684   12678      12   12684   12681      13   12693
   12690      12   12696   12690      12   12696   12693      13   12705   12702
      12   12708   12702      12   12708   12705      13   12717   12714      12
   12720   12714      12   12720   12717      13   12729   12726      12   12732
   12726      12   12732   12729      13   12741   12738      12   12744   12738
      12   12744   12741      13   12753   12750      12   12756   12750      12
   12756   12753      13   12765   12762      12   12768   12762      12   12768
   12765      13   12777   12774      12   12780   12774      12   12780   12777
      13   12789   12786      12   12792   12786      12   12792   12789      13
   12801   12798      12   12804   12798      12   12804   12801      13   12813
   12810      12   12816   12810      12   12816   12813      13   12825   12822
      12   12828   12822      12   12828   12825      13   12837   12834      12
   12840   12834      12   12840   12837      13   12849   12846      12   12852
   12846      12   12852   12849      13   12861   12858      12   12864   12858
      12   12864   12861      13   12873   12870      12   12876   12870      12
   12876   12873      13   12885   12882      12   12888   12882      12   12888
   12885      13   12897   12894      12   12900   12894      12   12900   12897
      13   12909   12906      12   12912   12906      12   12912   12909      13
   12921   12918      12   12924   12918      12   12924   12921      13   12933
   12930      12   12936   12930      12   12936   12933      13   12945   12942
      12   12948   12942      12   12948   12945      13   12957   12954      12
   12960   12954      12   12960   12957      13   12969   12966      12   12972
   12966      12   12972   12969      13   12981   12978      12   12984   12978
      12   12984   12981      13   12993   12990      12   12996   12990      12
   12996   12993      13   13005   13002      12   13008   13002      12   13008
   13005      13   13017   13014      12   13020   13014      12   13020   13017
      13   13029   13026      12   13032   13026      12   13032   13029      13
   13041   13038      12   13044   13038      12   13044   13041      13   13053
   13050      12   13056   13050      12   13056   13053      13   13065   13062
      12   13068   13062      12   13068   13065      13   13077   13074      12
   13080   13074      12   13080   13077      13   13089   13086      12   13092
   13086      12   13092   13089      13   13101   13098      12   13104   13098
      12   13104   13101      13   13113   13110      12   13116   13110      12
   13116   13113      13   13125   13122      12   13128   13122      12   13128
   13125      13   13137   13134      12   13140   13134      12   13140   13137
      13   13149   13146      12   13152   13146      12   13152   13149      13
   13161   13158      12   13164   13158      12   13164   13161      13   13173
   13170      12   13176   13170      12   13176   13173      13   13185   13182
      12   13188   13182      12   13188   13185      13   13197   13194      12
   13200   13194      12   13200   13197      13   13209   13206      12   13212
   13206      12   13212   13209      13   13221   13218      12   13224   13218
      12   13224   13221      13   13233   13230      12   13236   13230      12
   13236   13233      13   13245   13242      12   13248   13242      12   13248
   13245      13   13257   13254      12   13260   13254      12   13260   13257
      13   13269   13266      12   13272   13266      12   13272   13269      13
   13281   13278      12   13284   13278      12   13284   13281      13   13293
   13290      12   13296   13290      12   13296   13293      13   13305   13302
      12   13308   13302      12   13308   13305      13   13317   13314      12
   13320   13314      12   13320   13317      13   13329   13326      12   13332
   13326      12   13332   13329      13   13341   13338      12   13344   13338
      12   13344   13341      13   13353   13350      12   13356   13350      12
   13356   13353      13   13365   13362      12   13368   13362      12   13368
   13365      13   13377   13374      12   13380   13374      12   13380   13377
      13   13389   13386      12   13392   13386      12   13392   13389      13
   13401   13398      12   13404   13398      12   13404   13401      13   13413
   13410      12   13416   13410      12   13416   13413      13   13425   13422
      12   13428   13422      12   13428   13425      13   13437   13434      12
   13440   13434      12   13440   13437      13   13449   13446      12   13452
   13446      12   13452   13449      13   13461   13458      12   13464   13458
      12   13464   13461      13   13473   13470      12   13476   13470      12
   13476   13473      13   13485   13482      12   13488   13482      12   13488
   13485      13   13497   13494      12   13500   13494      12   13500   13497
      13   13509   13506      12   13512   13506      12   13512   13509      13
   13521   13518      12   13524   13518      12   13524   13521      13   13533
   13530      12   13536   13530      12   13536   13533      13   13545   13542
      12   13548   13542      12   13548   13545      13   13557   13554      12
   13560   13554      12   13560   13557      13   13569   13566      12   13572
   13566      12   13572   13569      13   13581   13578      12   13584   13578
      12   13584   13581      13   13593   13590      12   13596   13590      12
   13596   13593      13   13605   13602      12   13608   13602      12   13608
   13605      13   13617   13614      12   13620   13614      12   13620   13617
      13   13629   13626      12   13632   13626      12   13632   13629      13
   13641   13638      12   13644   13638      12   13644   13641      13   13653
   13650      12   13656   13650      12   13656   13653      13   13665   13662
      12   13668   13662      12   13668   13665      13   13677   13674      12
   13680   13674      12   13680   13677      13   13689   13686      12   13692
   13686      12   13692   13689      13   13701   13698      12   13704   13698
      12   13704   13701      13   13713   13710      12   13716   13710      12
   13716   13713      13   13725   13722      12   13728   13722      12   13728
   13725      13   13737   13734      12   13740   13734      12   13740   13737
      13   13749   13746      12   13752   13746      12   13752   13749      13
   13761   13758      12   13764   13758      12   13764   13761      13   13773
   13770      12   13776   13770      12   13776   13773      13   13785   13782
      12   13788   13782      12   13788   13785      13   13797   13794      12
   13800   13794      12   13800   13797      13   13809   13806      12   13812
   13806      12   13812   13809      13   13821   13818      12   13824   13818
      12   13824   13821      13   13833   13830      12   13836   13830      12
   13836   13833      13   13845   13842      12   13848   13842      12   13848
   13845      13   13857   13854      12   13860   13854      12   13860   13857
      13   13869   13866      12   13872   13866      12   13872   13869      13
   13881   13878      12   13884   13878      12   13884   13881      13   13893
   13890      12   13896   13890      12   13896   13893      13   13905   13902
      12   13908   13902      12   13908   13905      13   13917   13914      12
   13920   13914      12   13920   13917      13   13929   13926      12   13932
   13926      12   13932   13929      13   13941   13938      12   13944   13938
      12   13944   13941      13   13953   13950      12   13956   13950      12
   13956   13953      13   13965   13962      12   13968   13962      12   13968
   13965      13   13977   13974      12   13980   13974      12   13980   13977
      13   13989   13986      12   13992   13986      12   13992   13989      13
   14001   13998      12   14004   13998      12   14004   14001      13   14013
   14010      12   14016   14010      12   14016   14013      13   14025   14022
      12   14028   14022      12   14028   14025      13   14037   14034      12
   14040   14034      12   14040   14037      13   14049   14046      12   14052
   14046      12   14052   14049      13   14061   14058      12   14064   14058
      12   14064   14061      13   14073   14070      12   14076   14070      12
   14076   14073      13   14085   14082      12   14088   14082      12   14088
   14085      13   14097   14094      12   14100   14094      12   14100   14097
      13   14109   14106      12   14112   14106      12   14112   14109      13
   14121   14118      12   14124   14118      12   14124   14121      13   14133
   14130      12   14136   14130      12   14136   14133      13   14145   14142
      12   14148   14142      12   14148   14145      13   14157   14154      12
   14160   14154      12   14160   14157      13   14169   14166      12   14172
   14166      12   14172   14169      13   14181   14178      12   14184   14178
      12   14184   14181      13   14193   14190      12   14196   14190      12
   14196   14193      13   14205   14202      12   14208   14202      12   14208
   14205      13   14217   14214      12   14220   14214      12   14220   14217
      13   14229   14226      12   14232   14226      12   14232   14229      13
   14241   14238      12   14244   14238      12   14244   14241      13   14253
   14250      12   14256   14250      12   14256   14253      13   14265   14262
      12   14268   14262      12   14268   14265      13   14277   14274      12
   14280   14274      12   14280   14277      13   14289   14286      12   14292
   14286      12   14292   14289      13   14301   14298      12   14304   14298
      12   14304   14301      13   14313   14310      12   14316   14310      12
   14316   14313      13   14325   14322      12   14328   14322      12   14328
   14325      13   14337   14334      12   14340   14334      12   14340   14337
      13   14349   14346      12   14352   14346      12   14352   14349      13
   14361   14358      12   14364   14358      12   14364   14361      13   14373
   14370      12   14376   14370      12   14376   14373      13   14385   14382
      12   14388   14382      12   14388   14385      13   14397   14394      12
   14400   14394      12   14400   14397      13   14409   14406      12   14412
   14406      12   14412   14409      13   14421   14418      12   14424   14418
      12   14424   14421      13   14433   14430      12   14436   14430      12
   14436   14433      13   14445   14442      12   14448   14442      12   14448
   14445      13   14457   14454      12   14460   14454      12   14460   14457
      13   14469   14466      12   14472   14466      12   14472   14469      13
   14481   14478      12   14484   14478      12   14484   14481      13   14493
   14490      12   14496   14490      12   14496   14493      13   14505   14502
      12   14508   14502      12   14508   14505      13   14517   14514      12
   14520   14514      12   14520   14517      13   14529   14526      12   14532
   14526      12   14532   14529      13   14541   14538      12   14544   14538
      12   14544   14541      13   14553   14550      12   14556   14550      12
   14556   14553      13   14565   14562      12   14568   14562      12   14568
   14565      13   14577   14574      12   14580   14574      12   14580   14577
      13   14589   14586      12   14592   14586      12   14592   14589      13
   14601   14598      12   14604   14598      12   14604   14601      13   14613
   14610      12   14616   14610      12   14616   14613      13   14625   14622
      12   14628   14622      12   14628   14625      13   14637   14634      12
   14640   14634      12   14640   14637      13   14649   14646      12   14652
   14646      12   14652   14649      13   14661   14658      12   14664   14658
      12   14664   14661      13   14673   14670      12   14676   14670      12
   14676   14673      13   14685   14682      12   14688   14682      12   14688
   14685      13   14697   14694      12   14700   14694      12   14700   14697
      13   14709   14706      12   14712   14706      12   14712   14709      13
   14721   14718      12   14724   14718      12   14724   14721      13   14733
   14730      12   14736   14730      12   14736   14733      13   14745   14742
      12   14748   14742      12   14748   14745      13   14757   14754      12
   14760   14754      12   14760   14757      13   14769   14766      12   14772
   14766      12   14772   14769      13   14781   14778      12   14784   14778
      12   14784   14781      13   14793   14790      12   14796   14790      12
   14796   14793      13   14805   14802      12   14808   14802      12   14808
   14805      13   14817   14814      12   14820   14814      12   14820   14817
      13   14829   14826      12   14832   14826      12   14832   14829      13
   14841   14838      12   14844   14838      12   14844   14841      13   14853
   14850      12   14856   14850      12   14856   14853      13   14865   14862
      12   14868   14862      12   14868   14865      13   14877   14874      12
   14880   14874      12   14880   14877      13   14889   14886      12   14892
   14886      12   14892   14889      13   14901   14898      12   14904   14898
      12   14904   14901      13   14913   14910      12   14916   14910      12
   14916   14913      13   14925   14922      12   14928   14922      12   14928
   14925      13   14937   14934      12   14940   14934      12   14940   14937
      13   14949   14946      12   14952   14946      12   14952   14949      13
   14961   14958      12   14964   14958      12   14964   14961      13   14973
   14970      12   14976   14970      12   14976   14973      13   14985   14982
      12   14988   14982      12   14988   14985      13   14997   14994      12
   15000   14994      12   15000   14997      13   15009   15006      12   15012
   15006      12   15012   15009      13   15021   15018      12   15024   15018
      12   15024   15021      13   15033   15030      12   15036   15030      12
   15036   15033      13   15045   15042      12   15048   15042      12   15048
   15045      13   15057   15054      12   15060   15054      12   15060   15057
      13   15069   15066      12   15072   15066      12   15072   15069      13
   15081   15078      12   15084   15078      12   15084   15081      13   15093
   15090      12   15096   15090      12   15096   15093      13   15105   15102
      12   15108   15102      12   15108   15105      13   15117   15114      12
   15120   15114      12   15120   15117      13   15129   15126      12   15132
   15126      12   15132   15129      13   15141   15138      12   15144   15138
      12   15144   15141      13   15153   15150      12   15156   15150      12
   15156   15153      13   15165   15162      12   15168   15162      12   15168
   15165      13   15177   15174      12   15180   15174      12   15180   15177
      13   15189   15186      12   15192   15186      12   15192   15189      13
   15201   15198      12   15204   15198      12   15204   15201      13   15213
   15210      12   15216   15210      12   15216   15213      13   15225   15222
      12   15228   15222      12   15228   15225      13   15237   15234      12
   15240   15234      12   15240   15237      13   15249   15246      12   15252
   15246      12   15252   15249      13   15261   15258      12   15264   15258
      12   15264   15261      13   15273   15270      12   15276   15270      12
   15276   15273      13   15285   15282      12   15288   15282      12   15288
   15285      13   15297   15294      12   15300   15294      12   15300   15297
      13   15309   15306      12   15312   15306      12   15312   15309      13
   15321   15318      12   15324   15318      12   15324   15321      13   15333
   15330      12   15336   15330      12   15336   15333      13   15345   15342
      12   15348   15342      12   15348   15345      13   15357   15354      12
   15360   15354      12   15360   15357      13   15369   15366      12   15372
   15366      12   15372   15369      13   15381   15378      12   15384   15378
      12   15384   15381      13   15393   15390      12   15396   15390      12
   15396   15393      13   15405   15402      12   15408   15402      12   15408
   15405      13   15417   15414      12   15420   15414      12   15420   15417
      13   15429   15426      12   15432   15426      12   15432   15429      13
   15441   15438      12   15444   15438      12   15444   15441      13   15453
   15450      12   15456   15450      12   15456   15453      13   15465   15462
      12   15468   15462      12   15468   15465      13   15477   15474      12
   15480   15474      12   15480   15477      13   15489   15486      12   15492
   15486      12   15492   15489      13   15501   15498      12   15504   15498
      12   15504   15501      13   15513   15510      12   15516   15510      12
   15516   15513      13   15525   15522      12   15528   15522      12   15528
   15525      13   15537   15534      12   15540   15534      12   15540   15537
      13   15549   15546      12   15552   15546      12   15552   15549      13
   15561   15558      12   15564   15558      12   15564   15561      13   15573
   15570      12   15576   15570      12   15576   15573      13   15585   15582
      12   15588   15582      12   15588   15585      13   15597   15594      12
   15600   15594      12   15600   15597      13   15609   15606      12   15612
   15606      12   15612   15609      13   15621   15618      12   15624   15618
      12   15624   15621      13   15633   15630      12   15636   15630      12
   15636   15633      13   15645   15642      12   15648   15642      12   15648
   15645      13   15657   15654      12   15660   15654      12   15660   15657
      13   15669   15666      12   15672   15666      12   15672   15669      13
   15681   15678      12   15684   15678      12   15684   15681      13   15693
   15690      12   15696   15690      12   15696   15693      13   15705   15702
      12   15708   15702      12   15708   15705      13   15717   15714      12
   15720   15714      12   15720   15717      13   15729   15726      12   15732
   15726      12   15732   15729      13   15741   15738      12   15744   15738
      12   15744   15741      13   15753   15750      12   15756   15750      12
   15756   15753      13   15765   15762      12   15768   15762      12   15768
   15765      13   15777   15774      12   15780   15774      12   15780   15777
      13   15789   15786      12   15792   15786      12   15792   15789      13
   15801   15798      12   15804   15798      12   15804   15801      13   15813
   15810      12   15816   15810      12   15816   15813      13   15825   15822
      12   15828   15822      12   15828   15825      13   15837   15834      12
   15840   15834      12   15840   15837      13   15849   15846      12   15852
   15846      12   15852   15849      13   15861   15858      12   15864   15858
      12   15864   15861      13   15873   15870      12   15876   15870      12
   15876   15873      13   15885   15882      12   15888   15882      12   15888
   15885      13   15897   15894      12   15900   15894      12   15900   15897
      13   15909   15906      12   15912   15906      12   15912   15909      13
   15921   15918      12   15924   15918      12   15924   15921      13   15933
   15930      12   15936   15930      12   15936   15933      13   15945   15942
      12   15948   15942      12   15948   15945      13   15957   15954      12
   15960   15954      12   15960   15957      13   15969   15966      12   15972
   15966      12   15972   15969      13   15981   15978      12   15984   15978
      12   15984   15981      13   15993   15990      12   15996   15990      12
   15996   15993      13   16005   16002      12   16008   16002      12   16008
   16005      13   16017   16014      12   16020   16014      12   16020   16017
      13   16029   16026      12   16032   16026      12   16032   16029      13
   16041   16038      12   16044   16038      12   16044   16041      13   16053
   16050      12   16056   16050      12   16056   16053      13   16065   16062
      12   16068   16062      12   16068   16065      13   16077   16074      12
   16080   16074      12   16080   16077      13   16089   16086      12   16092
   16086      12   16092   16089      13   16101   16098      12   16104   16098
      12   16104   16101      13   16113   16110      12   16116   16110      12
   16116   16113      13   16125   16122      12   16128   16122      12   16128
   16125      13   16137   16134      12   16140   16134      12   16140   16137
      13   16149   16146      12   16152   16146      12   16152   16149      13
   16161   16158      12   16164   16158      12   16164   16161      13   16173
   16170      12   16176   16170      12   16176   16173      13   16185   16182
      12   16188   16182      12   16188   16185      13   16197   16194      12
   16200   16194      12   16200   16197      13   16209   16206      12   16212
   16206      12   16212   16209      13   16221   16218      12   16224   16218
      12   16224   16221      13   16233   16230      12   16236   16230      12
   16236   16233      13   16245   16242      12   16248   16242      12   16248
   16245      13   16257   16254      12   16260   16254      12   16260   16257
      13   16269   16266      12   16272   16266      12   16272   16269      13
   16281   16278      12   16284   16278      12   16284   16281      13   16293
   16290      12   16296   16290      12   16296   16293      13   16305   16302
      12   16308   16302      12   16308   16305      13   16317   16314      12
   16320   16314      12   16320   16317      13   16329   16326      12   16332
   16326      12   16332   16329      13   16341   16338      12   16344   16338
      12   16344   16341      13   16353   16350      12   16356   16350      12
   16356   16353      13   16365   16362      12   16368   16362      12   16368
   16365      13   16377   16374      12   16380   16374      12   16380   16377
      13   16389   16386      12   16392   16386      12   16392   16389      13
   16401   16398      12   16404   16398      12   16404   16401      13   16413
   16410      12   16416   16410      12   16416   16413      13   16425   16422
      12   16428   16422      12   16428   16425      13   16437   16434      12
   16440   16434      12   16440   16437      13   16449   16446      12   16452
   16446      12   16452   16449      13   16461   16458      12   16464   16458
      12   16464   16461      13   16473   16470      12   16476   16470      12
   16476   16473      13   16485   16482      12   16488   16482      12   16488
   16485      13   16497   16494      12   16500   16494      12   16500   16497
      13   16509   16506      12   16512   16506      12   16512   16509      13
   16521   16518      12   16524   16518      12   16524   16521      13   16533
   16530      12   16536   16530      12   16536   16533      13   16545   16542
      12   16548   16542      12   16548   16545      13   16557   16554      12
   16560   16554      12   16560   16557      13   16569   16566      12   16572
   16566      12   16572   16569      13   16581   16578      12   16584   16578
      12   16584   16581      13   16593   16590      12   16596   16590      12
   16596   16593      13   16605   16602      12   16608   16602      12   16608
   16605      13   16617   16614      12   16620   16614      12   16620   16617
      13   16629   16626      12   16632   16626      12   16632   16629      13
   16641   16638      12   16644   16638      12   16644   16641      13   16653
   16650      12   16656   16650      12   16656   16653      13   16665   16662
      12   16668   16662      12   16668   16665      13   16677   16674      12
   16680   16674      12   16680   16677      13   16689   16686      12   16692
   16686      12   16692   16689      13   16701   16698      12   16704   16698
      12   16704   16701      13   16713   16710      12   16716   16710      12
   16716   16713      13   16725   16722      12   16728   16722      12   16728
   16725      13   16737   16734      12   16740   16734      12   16740   16737
      13   16749   16746      12   16752   16746      12   16752   16749      13
   16761   16758      12   16764   16758      12   16764   16761      13   16773
   16770      12   16776   16770      12   16776   16773      13   16785   16782
      12   16788   16782      12   16788   16785      13   16797   16794      12
   16800   16794      12   16800   16797      13   16809   16806      12   16812
   16806      12   16812   16809      13   16821   16818      12   16824   16818
      12   16824   16821      13   16833   16830      12   16836   16830      12
   16836   16833      13   16845   16842      12   16848   16842      12   16848
   16845      13   16857   16854      12   16860   16854      12   16860   16857
      13   16869   16866      12   16872   16866      12   16872   16869      13
   16881   16878      12   16884   16878      12   16884   16881      13   16893
   16890      12   16896   16890      12   16896   16893      13   16905   16902
      12   16908   16902      12   16908   16905      13   16917   16914      12
   16920   16914      12   16920   16917      13   16929   16926      12   16932
   16926      12   16932   16929      13   16941   16938      12   16944   16938
      12   16944   16941      13   16953   16950      12   16956   16950      12
   16956   16953      13   16965   16962      12   16968   16962      12   16968
   16965      13   16977   16974      12   16980   16974      12   16980   16977
      13   16989   16986      12   16992   16986      12   16992   16989      13
   17001   16998      12   17004   16998      12   17004   17001      13   17013
   17010      12   17016   17010      12   17016   17013      13   17025   17022
      12   17028   17022      12   17028   17025      13   17037   17034      12
   17040   17034      12   17040   17037      13   17049   17046      12   17052
   17046      12   17052   17049      13   17061   17058      12   17064   17058
      12   17064   17061      13   17073   17070      12   17076   17070      12
   17076   17073      13   17085   17082      12   17088   17082      12   17088
   17085      13   17097   17094      12   17100   17094      12   17100   17097
      13   17109   17106      12   17112   17106      12   17112   17109      13
   17121   17118      12   17124   17118      12   17124   17121      13   17133
   17130      12   17136   17130      12   17136   17133      13   17145   17142
      12   17148   17142      12   17148   17145      13   17157   17154      12
   17160   17154      12   17160   17157      13   17169   17166      12   17172
   17166      12   17172   17169      13   17181   17178      12   17184   17178
      12   17184   17181      13   17193   17190      12   17196   17190      12
   17196   17193      13   17205   17202      12   17208   17202      12   17208
   17205      13   17217   17214      12   17220   17214      12   17220   17217
      13   17229   17226      12   17232   17226      12   17232   17229      13
   17241   17238      12   17244   17238      12   17244   17241      13   17253
   17250      12   17256   17250      12   17256   17253      13   17265   17262
      12   17268   17262      12   17268   17265      13   17277   17274      12
   17280   17274      12   17280   17277      13   17289   17286      12   17292
   17286      12   17292   17289      13   17301   17298      12   17304   17298
      12   17304   17301      13   17313   17310      12   17316   17310      12
   17316   17313      13   17325   17322      12   17328   17322      12   17328
   17325      13   17337   17334      12   17340   17334      12   17340   17337
      13   17349   17346      12   17352   17346      12   17352   17349      13
   17361   17358      12   17364   17358      12   17364   17361      13   17373
   17370      12   17376   17370      12   17376   17373      13   17385   17382
      12   17388   17382      12   17388   17385      13   17397   17394      12
   17400   17394      12   17400   17397      13   17409   17406      12   17412
   17406      12   17412   17409      13   17421   17418      12   17424   17418
      12   17424   17421      13   17433   17430      12   17436   17430      12
   17436   17433      13   17445   17442      12   17448   17442      12   17448
   17445      13   17457   17454      12   17460   17454      12   17460   17457
      13   17469   17466      12   17472   17466      12   17472   17469      13
   17481   17478      12   17484   17478      12   17484   17481      13   17493
   17490      12   17496   17490      12   17496   17493      13   17505   17502
      12   17508   17502      12   17508   17505      13   17517   17514      12
   17520   17514      12   17520   17517      13   17529   17526      12   17532
   17526      12   17532   17529      13   17541   17538      12   17544   17538
      12   17544   17541      13   17553   17550      12   17556   17550      12
   17556   17553      13   17565   17562      12   17568   17562      12   17568
   17565      13   17577   17574      12   17580   17574      12   17580   17577
      13   17589   17586      12   17592   17586      12   17592   17589      13
   17601   17598      12   17604   17598      12   17604   17601      13   17613
   17610      12   17616   17610      12   17616   17613      13   17625   17622
      12   17628   17622      12   17628   17625      13   17637   17634      12
   17640   17634      12   17640   17637      13   17649   17646      12   17652
   17646      12   17652   17649      13   17661   17658      12   17664   17658
      12   17664   17661      13   17673   17670      12   17676   17670      12
   17676   17673      13   17685   17682      12   17688   17682      12   17688
   17685      13   17697   17694      12   17700   17694      12   17700   17697
      13   17709   17706      12   17712   17706      12   17712   17709      13
   17721   17718      12   17724   17718      12   17724   17721      13   17733
   17730      12   17736   17730      12   17736   17733      13   17745   17742
      12   17748   17742      12   17748   17745      13   17757   17754      12
   17760   17754      12   17760   17757      13   17769   17766      12   17772
   17766      12   17772   17769      13   17781   17778      12   17784   17778
      12   17784   17781      13   17793   17790      12   17796   17790      12
   17796   17793      13   17805   17802      12   17808   17802      12   17808
   17805      13   17817   17814      12   17820   17814      12   17820   17817
      13   17829   17826      12   17832   17826      12   17832   17829      13
   17841   17838      12   17844   17838      12   17844   17841      13   17853
   17850      12   17856   17850      12   17856   17853      13   17865   17862
      12   17868   17862      12   17868   17865      13   17877   17874      12
   17880   17874      12   17880   17877      13   17889   17886      12   17892
   17886      12   17892   17889      13   17901   17898      12   17904   17898
      12   17904   17901      13   17913   17910      12   17916   17910      12
   17916   17913      13   17925   17922      12   17928   17922      12   17928
   17925      13   17937   17934      12   17940   17934      12   17940   17937
      13   17949   17946      12   17952   17946      12   17952   17949      13
   17961   17958      12   17964   17958      12   17964   17961      13   17973
   17970      12   17976   17970      12   17976   17973      13   17985   17982
      12   17988   17982      12   17988   17985      13   17997   17994      12
   18000   17994      12   18000   17997      13   18009   18006      12   18012
   18006      12   18012   18009      13   18021   18018      12   18024   18018
      12   18024   18021      13   18033   18030      12   18036   18030      12
   18036   18033      13   18045   18042      12   18048   18042      12   18048
   18045      13   18057   18054      12   18060   18054      12   18060   18057
      13   18069   18066      12   18072   18066      12   18072   18069      13
   18081   18078      12   18084   18078      12   18084   18081      13   18093
   18090      12   18096   18090      12   18096   18093      13   18105   18102
      12   18108   18102      12   18108   18105      13   18117   18114      12
   18120   18114      12   18120   18117      13   18129   18126      12   18132
   18126      12   18132   18129      13   18141   18138      12   18144   18138
      12   18144   18141      13   18153   18150      12   18156   18150      12
   18156   18153      13   18165   18162      12   18168   18162      12   18168
   18165      13   18177   18174      12   18180   18174      12   18180   18177
      13   18189   18186      12   18192   18186      12   18192   18189      13
   18201   18198      12   18204   18198      12   18204   18201      13   18213
   18210      12   18216   18210      12   18216   18213      13   18225   18222
      12   18228   18222      12   18228   18225      13   18237   18234      12
   18240   18234      12   18240   18237      13   18249   18246      12   18252
   18246      12   18252   18249      13   18261   18258      12   18264   18258
      12   18264   18261      13   18273   18270      12   18276   18270      12
   18276   18273      13   18285   18282      12   18288   18282      12   18288
   18285      13   18297   18294      12   18300   18294      12   18300   18297
      13   18309   18306      12   18312   18306      12   18312   18309      13
   18321   18318      12   18324   18318      12   18324   18321      13   18333
   18330      12   18336   18330      12   18336   18333      13   18345   18342
      12   18348   18342      12   18348   18345      13   18357   18354      12
   18360   18354      12   18360   18357      13   18369   18366      12   18372
   18366      12   18372   18369      13   18381   18378      12   18384   18378
      12   18384   18381      13   18393   18390      12   18396   18390      12
   18396   18393      13   18405   18402      12   18408   18402      12   18408
   18405      13   18417   18414      12   18420   18414      12   18420   18417
      13   18429   18426      12   18432   18426      12   18432   18429      13
   18441   18438      12   18444   18438      12   18444   18441      13   18453
   18450      12   18456   18450      12   18456   18453      13   18465   18462
      12   18468   18462      12   18468   18465      13   18477   18474      12
   18480   18474      12   18480   18477      13   18489   18486      12   18492
   18486      12   18492   18489      13   18501   18498      12   18504   18498
      12   18504   18501      13   18513   18510      12   18516   18510      12
   18516   18513      13   18525   18522      12   18528   18522      12   18528
   18525      13   18537   18534      12   18540   18534      12   18540   18537
      13   18549   18546      12   18552   18546      12   18552   18549      13
   18561   18558      12   18564   18558      12   18564   18561      13   18573
   18570      12   18576   18570      12   18576   18573      13   18585   18582
      12   18588   18582      12   18588   18585      13   18597   18594      12
   18600   18594      12   18600   18597      13   18609   18606      12   18612
   18606      12   18612   18609      13   18621   18618      12   18624   18618
      12   18624   18621      13   18633   18630      12   18636   18630      12
   18636   18633      13   18645   18642      12   18648   18642      12   18648
   18645      13   18657   18654      12   18660   18654      12   18660   18657
      13   18669   18666      12   18672   18666      12   18672   18669      13
   18681   18678      12   18684   18678      12   18684   18681      13   18693
   18690      12   18696   18690      12   18696   18693      13   18705   18702
      12   18708   18702      12   18708   18705      13   18717   18714      12
   18720   18714      12   18720   18717      13   18729   18726      12   18732
   18726      12   18732   18729      13   18741   18738      12   18744   18738
      12   18744   18741      13   18753   18750      12   18756   18750      12
   18756   18753      13   18765   18762      12   18768   18762      12   18768
   18765      13   18777   18774      12   18780   18774      12   18780   18777
      13   18789   18786      12   18792   18786      12   18792   18789      13
   18801   18798      12   18804   18798      12   18804   18801      13   18813
   18810      12   18816   18810      12   18816   18813      13   18825   18822
      12   18828   18822      12   18828   18825      13   18837   18834      12
   18840   18834      12   18840   18837      13   18849   18846      12   18852
   18846      12   18852   18849      13   18861   18858      12   18864   18858
      12   18864   18861      13   18873   18870      12   18876   18870      12
   18876   18873      13   18885   18882      12   18888   18882      12   18888
   18885      13   18897   18894      12   18900   18894      12   18900   18897
      13   18909   18906      12   18912   18906      12   18912   18909      13
   18921   18918      12   18924   18918      12   18924   18921      13   18933
   18930      12   18936   18930      12   18936   18933      13   18945   18942
      12   18948   18942      12   18948   18945      13   18957   18954      12
   18960   18954      12   18960   18957      13   18969   18966      12   18972
   18966      12   18972   18969      13   18981   18978      12   18984   18978
      12   18984   18981      13   18993   18990      12   18996   18990      12
   18996   18993      13   19005   19002      12   19008   19002      12   19008
   19005      13   19017   19014      12   19020   19014      12   19020   19017
      13   19029   19026      12   19032   19026      12   19032   19029      13
   19041   19038      12   19044   19038      12   19044   19041      13   19053
   19050      12   19056   19050      12   19056   19053      13   19065   19062
      12   19068   19062      12   19068   19065      13   19077   19074      12
   19080   19074      12   19080   19077      13   19089   19086      12   19092
   19086      12   19092   19089      13   19101   19098      12   19104   19098
      12   19104   19101      13   19113   19110      12   19116   19110      12
   19116   19113      13   19125   19122      12   19128   19122      12   19128
   19125      13   19137   19134      12   19140   19134      12   19140   19137
      13   19149   19146      12   19152   19146      12   19152   19149      13
%FLAG BONDS_WITHOUT_HYDROGEN                                                    
%FORMAT(10I8)                                                                   
      12      15       1      12      18       2       3      12       4      42
      45       1      42      48       2      24      30       6      24      42
       7      18      24       9      72      75       1      72      78       2
      54      60       6      54      72       7      48      54       9     102
     105       1     102     108       2      84      90       6      84     102
       7      78      84       9     108     114      11     135     126      14
     147     138      14     159     150      14     171     162      14     183
     174      14     195     186      14     207     198      14     219     210
      14     231     222      14     243     234      14     255     246      14
     267     258      14     279     270      14     291     282      14     303
     294      14     315     306      14     327     318      14     339     330
      14     351     342      14     363     354      14     375     366      14
     387     378      14     399     390      14     411     402      14     423
     414      14     435     426      14     447     438      14     459     450
      14     471     462      14     483     474      14     495     486      14
     507     498      14     519     510      14     531     522      14     543
     534      14     555     546      14     567     558      14     579     570
      14     591     582      14     603     594      14     615     606      14
     627     618      14     639     630      14     651     642      14     663
     654      14     675     666      14     687     678      14     699     690
      14     711     702      14     723     714      14     735     726      14
     747     738      14     759     750      14     771     762      14     783
     774      14     795     786      14     807     798      14     819     810
      14     831     822      14     843     834      14     855     846      14
     867     858      14     879     870      14     891     882      14     903
     894      14     915     906      14     927     918      14     939     930
      14     951     942      14     963     954      14     975     966      14
     987     978      14     999     990      14    1011    1002      14    1023
    1014      14    1035    1026      14    1047    1038      14    1059    1050
      14    1071    1062      14    1083    1074      14    1095    1086      14
    1107    1098      14    1119    1110      14    1131    1122      14    1143
    1134      14    1155    1146      14    1167    1158      14    1179    1170
      14    1191    1182      14    1203    1194      14    1215    1206      14
    1227    1218      14    1239    1230      14    1251    1242      14    1263
    1254      14    1275    1266      14    1287    1278      14    1299    1290
      14    1311    1302      14    1323    1314      14    1335    1326      14
    1347    1338      14    1359    1350      14    1371    1362      14    1383
    1374      14    1395    1386      14    1407    1398      14    1419    1410
      14    1431    1422      14    1443    1434      14    1455    1446      14
    1467    1458      14    1479    1470      14    1491    1482      14    1503
    1494      14    1515    1506      14    1527    1518      14    1539    1530
      14    1551    1542      14    1563    1554      14    1575    1566      14
    1587    1578      14    1599    1590      14    1611    1602      14    1623
    1614      14    1635    1626      14    1647    1638      14    1659    1650
      14    1671    1662      14    1683    1674      14    1695    1686      14
    1707    1698      14    1719    1710      14    1731    1722      14    1743
    1734      14    1755    1746      14    1767    1758      14    1779    1770
      14    1791    1782      14    1803    1794      14    1815    1806      14
    1827    1818      14    1839    1830      14    1851    1842      14    1863
    1854      14    1875    1866      14    1887    1878      14    1899    1890
      14    1911    1902      14    1923    1914      14    1935    1926      14
    1947    1938      14    1959    1950      14    1971    1962      14    1983
    1974      14    1995    1986      14    2007    1998      14    2019    2010
      14    2031    2022      14    2043    2034      14    2055    2046      14
    2067    2058      14    2079    2070      14    2091    2082      14    2103
    2094      14    2115    2106      14    2127    2118      14    2139    2130
      14    2151    2142      14    2163    2154      14    2175    2166      14
    2187    2178      14    2199    2190      14    2211    2202      14    2223
    2214      14    2235    2226      14    2247    2238      14    2259    2250
      14    2271    2262      14    2283    2274      14    2295    2286      14
    2307    2298      14    2319    2310      14    2331    2322      14    2343
    2334      14    2355    2346      14    2367    2358      14    2379    2370
      14    2391    2382      14    2403    2394      14    2415    2406      14
    2427    2418      14    2439    2430      14    2451    2442      14    2463
    2454      14    2475    2466      14    2487    2478      14    2499    2490
      14    2511    2502      14    2523    2514      14    2535    2526      14
    2547    2538      14    2559    2550      14    2571    2562      14    2583
    2574      14    2595    2586      14    2607    2598      14    2619    2610
      14    2631    2622      14    2643    2634      14    2655    2646      14
    2667    2658      14    2679    2670      14    2691    2682      14    2703
    2694      14    2715    2706      14    2727    2718      14    2739    2730
      14    2751    2742      14    2763    2754      14    2775    2766      14
    2787    2778      14    2799    2790      14    2811    2802      14    2823
    2814      14    2835    2826      14    2847    2838      14    2859    2850
      14    2871    2862      14    2883    2874      14    2895    2886      14
    2907    2898      14    2919    2910      14    2931    2922      14    2943
    2934      14    2955    2946      14    2967    2958      14    2979    2970
      14    2991    2982      14    3003    2994      14    3015    3006      14
    3027    3018      14    3039    3030      14    3051    3042      14    3063
    3054      14    3075    3066      14    3087    3078      14    3099    3090
      14    3111    3102      14    3123    3114      14    3135    3126      14
    3147    3138      14    3159    3150      14    3171    3162      14    3183
    3174      14    3195    3186      14    3207    3198      14    3219    3210
      14    3231    3222      14    3243    3234      14    3255    3246      14
    3267    3258      14    3279    3270      14    3291    3282      14    3303
    3294      14    3315    3306      14    3327    3318      14    3339    3330
      14    3351    3342      14    3363    3354      14    3375    3366      14
    3387    3378      14    3399    3390      14    3411    3402      14    3423
    3414      14    3435    3426      14    3447    3438      14    3459    3450
      14    3471    3462      14    3483    3474      14    3495    3486      14
    3507    3498      14    3519    3510      14    3531    3522      14    3543
    3534      14    3555    3546      14    3567    3558      14    3579    3570
      14    3591    3582      14    3603    3594      14    3615    3606      14
    3627    3618      14    3639    3630      14    3651    3642      14    3663
    3654      14    3675    3666      14    3687    3678      14    3699    3690
      14    3711    3702      14    3723    3714      14    3735    3726      14
    3747    3738      14    3759    3750      14    3771    3762      14    3783
    3774      14    3795    3786      14    3807    3798      14    3819    3810
      14    3831    3822      14    3843    3834      14    3855    3846      14
    3867    3858      14    3879    3870      14    3891    3882      14    3903
    3894      14    3915    3906      14    3927    3918      14    3939    3930
      14    3951    3942      14    3963    3954      14    3975    3966      14
    3987    3978      14    3999    3990      14    4011    4002      14    4023
    4014      14    4035    4026      14    4047    4038      14    4059    4050
      14    4071    4062      14    4083    4074      14    4095    4086      14
    4107    4098      14    4119    4110      14    4131    4122      14    4143
    4134      14    4155    4146      14    4167    4158      14    4179    4170
      14    4191    4182      14    4203    4194      14    4215    4206      14
    4227    4218      14    4239    4230      14    4251    4242      14    4263
    4254      14    4275    4266      14    4287    4278      14    4299    4290
      14    4311    4302      14    4323    4314      14    4335    4326      14
    4347    4338      14    4359    4350      14    4371    4362      14    4383
    4374      14    4395    4386      14    4407    4398      14    4419    4410
      14    4431    4422      14    4443    4434      14    4455    4446      14
    4467    4458      14    4479    4470      14    4491    4482      14    4503
    4494      14    4515    4506      14    4527    4518      14    4539    4530
      14    4551    4542      14    4563    4554      14    4575    4566      14
    4587    4578      14    4599    4590      14    4611    4602      14    4623
    4614      14    4635    4626      14    4647    4638      14    4659    4650
      14    4671    4662      14    4683    4674      14    4695    4686      14
    4707    4698      14    4719    4710      14    4731    4722      14    4743
    4734      14    4755    4746      14    4767    4758      14    4779    4770
      14    4791    4782      14    4803    4794      14    4815    4806      14
    4827    4818      14    4839    4830      14    4851    4842      14    4863
    4854      14    4875    4866      14    4887    4878      14    4899    4890
      14    4911    4902      14    4923    4914      14    4935    4926      14
    4947    4938      14    4959    4950      14    4971    4962      14    4983
    4974      14    4995    4986      14    5007    4998      14    5019    5010
      14    5031    5022      14    5043    5034      14    5055    5046      14
    5067    5058      14    5079    5070      14    5091    5082      14    5103
    5094      14    5115    5106      14    5127    5118      14    5139    5130
      14    5151    5142      14    5163    5154      14    5175    5166      14
    5187    5178      14    5199    5190      14    5211    5202      14    5223
    5214      14    5235    5226      14    5247    5238      14    5259    5250
      14    5271    5262      14    5283    5274      14    5295    5286      14
    5307    5298      14    5319    5310      14    5331    5322      14    5343
    5334      14    5355    5346      14    5367    5358      14    5379    5370
      14    5391    5382      14    5403    5394      14    5415    5406      14
    5427    5418      14    5439    5430      14    5451    5442      14    5463
    5454      14    5475    5466      14    5487    5478      14    5499    5490
      14    5511    5502      14    5523    5514      14    5535    5526      14
    5547    5538      14    5559    5550      14    5571    5562      14    5583
    5574      14    5595    5586      14    5607    5598      14    5619    5610
      14    5631    5622      14    5643    5634      14    5655    5646      14
    5667    5658      14    5679    5670      14    5691    5682      14    5703
    5694      14    5715    5706      14    5727    5718      14    5739    5730
      14    5751    5742      14    5763    5754      14    5775    5766      14
    5787    5778      14    5799    5790      14    5811    5802      14    5823
    5814      14    5835    5826      14    5847    5838      14    5859    5850
      14    5871    5862      14    5883    5874      14    5895    5886      14
    5907    5898      14    5919    5910      14    5931    5922      14    5943
    5934      14    5955    5946      14    5967    5958      14    5979    5970
      14    5991    5982      14    6003    5994      14    6015    6006      14
    6027    6018      14    6039    6030      14    6051    6042      14    6063
    6054      14    6075    6066      14    6087    6078      14    6099    6090
      14    6111    6102      14    6123    6114      14    6135    6126      14
    6147    6138      14    6159    6150      14    6171    6162      14    6183
    6174      14    6195    6186      14    6207    6198      14    6219    6210
      14    6231    6222      14    6243    6234      14    6255    6246      14
    6267    6258      14    6279    6270      14    6291    6282      14    6303
    6294      14    6315    6306      14    6327    6318      14    6339    6330
      14    6351    6342      14    6363    6354      14    6375    6366      14
    6387    6378      14    6399    6390      14    6411    6402      14    6423
    6414      14    6435    6426      14    6447    6438      14    6459    6450
      14    6471    6462      14    6483    6474      14    6495    6486      14
    6507    6498      14    6519    6510      14    6531    6522      14    6543
    6534      14    6555    6546      14    6567    6558      14    6579    6570
      14    6591    6582      14    6603    6594      14    6615    6606      14
    6627    6618      14    6639    6630      14    6651    6642      14    6663
    6654      14    6675    6666      14    6687    6678      14    6699    6690
      14    6711    6702      14    6723    6714      14    6735    6726      14
    6747    6738      14    6759    6750      14    6771    6762      14    6783
    6774      14    6795    6786      14    6807    6798      14    6819    6810
      14    6831    6822      14    6843    6834      14    6855    6846      14
    6867    6858      14    6879    6870      14    6891    6882      14    6903
    6894      14    6915    6906      14    6927    6918      14    6939    6930
      14    6951    6942      14    6963    6954      14    6975    6966      14
    6987    6978      14    6999    6990      14    7011    7002      14    7023
    7014      14    7035    7026      14    7047    7038      14    7059    7050
      14    7071    7062      14    7083    7074      14    7095    7086      14
    7107    7098      14    7119    7110      14    7131    7122      14    7143
    7134      14    7155    7146      14    7167    7158      14    7179    7170
      14    7191    7182      14    7203    7194      14    7215    7206      14
    7227    7218      14    7239    7230      14    7251    7242      14    7263
    7254      14    7275    7266      14    7287    7278      14    7299    7290
      14    7311    7302      14    7323    7314      14    7335    7326      14
    7347    7338      14    7359    7350      14    7371    7362      14    7383
    7374      14    7395    7386      14    7407    7398      14    7419    7410
      14    7431    7422      14    7443    7434      14    7455    7446      14
    7467    7458      14    7479    7470      14    7491    7482      14    7503
    7494      14    7515    7506      14    7527    7518      14    7539    7530
      14    7551    7542      14    7563    7554      14    7575    7566      14
    7587    7578      14    7599    7590      14    7611    7602      14    7623
    7614      14    7635    7626      14    7647    7638      14    7659    7650
      14    7671    7662      14    7683    7674      14    7695    7686      14
    7707    7698      14    7719    7710      14    7731    7722      14    7743
    7734      14    7755    7746      14    7767    7758      14    7779    7770
      14    7791    7782      14    7803    7794      14    7815    7806      14
    7827    7818      14    7839    7830      14    7851    7842      14    7863
    7854      14    7875    7866      14    7887    7878      14    7899    7890
      14    7911    7902      14    7923    7914      14    7935    7926      14
    7947    7938      14    7959    7950      14    7971    7962      14    7983
    7974      14    7995    7986      14    8007    7998      14    8019    8010
      14    8031    8022      14    8043    8034      14    8055    8046      14
    8067    8058      14    8079    8070      14    8091    8082      14    8103
    8094      14    8115    8106      14    8127    8118      14    8139    8130
      14    8151    8142      14    8163    8154      14    8175    8166      14
    8187    8178      14    8199    8190      14    8211    8202      14    8223
    8214      14    8235    8226      14    8247    8238      14    8259    8250
      14    8271    8262      14    8283    8274      14    8295    8286      14
    8307    8298      14    8319    8310      14    8331    8322      14    8343
    8334      14    8355    8346      14    8367    8358      14    8379    8370
      14    8391    8382      14    8403    8394      14    8415    8406      14
    8427    8418      14    8439    8430      14    8451    8442      14    8463
    8454      14    8475    8466      14    8487    8478      14    8499    8490
      14    8511    8502      14    8523    8514      14    8535    8526      14
    8547    8538      14    8559    8550      14    8571    8562      14    8583
    8574      14    8595    8586      14    8607    8598      14    8619    8610
      14    8631    8622      14    8643    8634      14    8655    8646      14
    8667    8658      14    8679    8670      14    8691    8682      14    8703
    8694      14    8715    8706      14    8727    8718      14    8739    8730
      14    8751    8742      14    8763    8754      14    8775    8766      14
    8787    8778      14    8799    8790      14    8811    8802      14    8823
    8814      14    8835    8826      14    8847    8838      14    8859    8850
      14    8871    8862      14    8883    8874      14    8895    8886      14
    8907    8898      14    8919    8910      14    8931    8922      14    8943
    8934      14    8955    8946      14    8967    8958      14    8979    8970
      14    8991    8982      14    9003    8994      14    9015    9006      14
    9027    9018      14    9039    9030      14    9051    9042      14    9063
    9054      14    9075    9066      14    9087    9078      14    9099    9090
      14    9111    9102      14    9123    9114      14    9135    9126      14
    9147    9138      14    9159    9150      14    9171    9162      14    9183
    9174      14    9195    9186      14    9207    9198      14    9219    9210
      14    9231    9222      14    9243    9234      14    9255    9246      14
    9267    9258      14    9279    9270      14    9291    9282      14    9303
    9294      14    9315    9306      14    9327    9318      14    9339    9330
      14    9351    9342      14    9363    9354      14    9375    9366      14
    9387    9378      14    9399    9390      14    9411    9402      14    9423
    9414      14    9435    9426      14    9447    9438      14    9459    9450
      14    9471    9462      14    9483    9474      14    9495    9486      14
    9507    9498      14    9519    9510      14    9531    9522      14    9543
    9534      14    9555    9546      14    9567    9558      14    9579    9570
      14    9591    9582      14    9603    9594      14    9615    9606      14
    9627    9618      14    9639    9630      14    9651    9642      14    9663
    9654      14    9675    9666      14    9687    9678      14    9699    9690
      14    9711    9702      14    9723    9714      14    9735    9726      14
    9747    9738      14    9759    9750      14    9771    9762      14    9783
    9774      14    9795    9786      14    9807    9798      14    9819    9810
      14    9831    9822      14    9843    9834      14    9855    9846      14
    9867    9858      14    9879    9870      14    9891    9882      14    9903
    9894      14    9915    9906      14    9927    9918      14    9939    9930
      14    9951    9942      14    9963    9954      14    9975    9966      14
    9987    9978      14    9999    9990      14   10011   10002      14   10023
   10014      14   10035   10026      14   10047   10038      14   10059   10050
      14   10071   10062      14   10083   10074      14   10095   10086      14
   10107   10098      14   10119   10110      14   10131   10122      14   10143
   10134      14   10155   10146      14   10167   10158      14   10179   10170
      14   10191   10182      14   10203   10194      14   10215   10206      14
   10227   10218      14   10239   10230      14   10251   10242      14   10263
   10254      14   10275   10266      14   10287   10278      14   10299   10290
      14   10311   10302      14   10323   10314      14   10335   10326      14
   10347   10338      14   10359   10350      14   10371   10362      14   10383
   10374      14   10395   10386      14   10407   10398      14   10419   10410
      14   10431   10422      14   10443   10434      14   10455   10446      14
   10467   10458      14   10479   10470      14   10491   10482      14   10503
   10494      14   10515   10506      14   10527   10518      14   10539   10530
      14   10551   10542      14   10563   10554      14   10575   10566      14
   10587   10578      14   10599   10590      14   10611   10602      14   10623
   10614      14   10635   10626      14   10647   10638      14   10659   10650
      14   10671   10662      14   10683   10674      14   10695   10686      14
   10707   10698      14   10719   10710      14   10731   10722      14   10743
   10734      14   10755   10746      14   10767   10758      14   10779   10770
      14   10791   10782      14   10803   10794      14   10815   10806      14
   10827   10818      14   10839   10830      14   10851   10842      14   10863
   10854      14   10875   10866      14   10887   10878      14   10899   10890
      14   10911   10902      14   10923   10914      14   10935   10926      14
   10947   10938      14   10959   10950      14   10971   10962      14   10983
   10974      14   10995   10986      14   11007   10998      14   11019   11010
      14   11031   11022      14   11043   11034      14   11055   11046      14
   11067   11058      14   11079   11070      14   11091   11082      14   11103
   11094      14   11115   11106      14   11127   11118      14   11139   11130
      14   11151   11142      14   11163   11154      14   11175   11166      14
   11187   11178      14   11199   11190      14   11211   11202      14   11223
   11214      14   11235   11226      14   11247   11238      14   11259   11250
      14   11271   11262      14   11283   11274      14   11295   11286      14
   11307   11298      14   11319   11310      14   11331   11322      14   11343
   11334      14   11355   11346      14   11367   11358      14   11379   11370
      14   11391   11382      14   11403   11394      14   11415   11406      14
   11427   11418      14   11439   11430      14   11451   11442      14   11463
   11454      14   11475   11466      14   11487   11478      14   11499   11490
      14   11511   11502      14   11523   11514      14   11535   11526      14
   11547   11538      14   11559   11550      14   11571   11562      14   11583
   11574      14   11595   11586      14   11607   11598      14   11619   11610
      14   11631   11622      14   11643   11634      14   11655   11646      14
   11667   11658      14   11679   11670      14   11691   11682      14   11703
   11694      14   11715   11706      14   11727   11718      14   11739   11730
      14   11751   11742      14   11763   11754      14   11775   11766      14
   11787   11778      14   11799   11790      14   11811   11802      14   11823
   11814      14   11835   11826      14   11847   11838      14   11859   11850
      14   11871   11862      14   11883   11874      14   11895   11886      14
   11907   11898      14   11919   11910      14   11931   11922      14   11943
   11934      14   11955   11946      14   11967   11958      14   11979   11970
      14   11991   11982      14   12003   11994      14   12015   12006      14
   12027   12018      14   12039   12030      14   12051   12042      14   12063
   12054      14   12075   12066      14   12087   12078      14   12099   12090
      14   12111   12102      14   12123   12114      14   12135   12126      14
   12147   12138      14   12159   12150      14   12171   12162      14   12183
   12174      14   12195   12186      14   12207   12198      14   12219   12210
      14   12231   12222      14   12243   12234      14   12255   12246      14
   12267   12258      14   12279   12270      14   12291   12282      14   12303
   12294      14   12315   12306      14   12327   12318      14   12339   12330
      14   12351   12342      14   12363   12354      14   12375   12366      14
   12387   12378      14   12399   12390      14   12411   12402      14   12423
   12414      14   12435   12426      14   12447   12438      14   12459   12450
      14   12471   12462      14   12483   12474      14   12495   12486      14
   12507   12498      14   12519   12510      14   12531   12522      14   12543
   12534      14   12555   12546      14   12567   12558      14   12579   12570
      14   12591   12582      14   12603   12594      14   12615   12606      14
   12627   12618      14   12639   12630      14   12651   12642      14   12663
   12654      14   12675   12666      14   12687   12678      14   12699   12690
      14   12711   12702      14   12723   12714      14   12735   12726      14
   12747   12738      14   12759   12750      14   12771   12762      14   12783
   12774      14   12795   12786      14   12807   12798      14   12819   12810
      14   12831   12822      14   12843   12834      14   12855   12846      14
   12867   12858      14   12879   12870      14   12891   12882      14   12903
   12894      14   12915   12906      14   12927   12918      14   12939   12930
      14   12951   12942      14   12963   12954      14   12975   12966      14
   12987   12978      14   12999   12990      14   13011   13002      14   13023
   13014      14   13035   13026      14   13047   13038      14   13059   13050
      14   13071   13062      14   13083   13074      14   13095   13086      14
   13107   13098      14   13119   13110      14   13131   13122      14   13143
   13134      14   13155   13146      14   13167   13158      14   13179   13170
      14   13191   13182      14   13203   13194      14   13215   13206      14
   13227   13218      14   13239   13230      14   13251   13242      14   13263
   13254      14   13275   13266      14   13287   13278      14   13299   13290
      14   13311   13302      14   13323   13314      14   13335   13326      14
   13347   13338      14   13359   13350      14   13371   13362      14   13383
   13374      14   13395   13386      14   13407   13398      14   13419   13410
      14   13431   13422      14   13443   13434      14   13455   13446      14
   13467   13458      14   13479   13470      14   13491   13482      14   13503
   13494      14   13515   13506      14   13527   13518      14   13539   13530
      14   13551   13542      14   13563   13554      14   13575   13566      14
   13587   13578      14   13599   13590      14   13611   13602      14   13623
   13614      14   13635   13626      14   13647   13638      14   13659   13650
      14   13671   13662      14   13683   13674      14   13695   13686      14
   13707   13698      14   13719   13710      14   13731   13722      14   13743
   13734      14   13755   13746      14   13767   13758      14   13779   13770
      14   13791   13782      14   13803   13794      14   13815   13806      14
   13827   13818      14   13839   13830      14   13851   13842      14   13863
   13854      14   13875   13866      14   13887   13878      14   13899   13890
      14   13911   13902      14   13923   13914      14   13935   13926      14
   13947   13938      14   13959   13950      14   13971   13962      14   13983
   13974      14   13995   13986      14   14007   13998      14   14019   14010
      14   14031   14022      14   14043   14034      14   14055   14046      14
   14067   14058      14   14079   14070      14   14091   14082      14   14103
   14094      14   14115   14106      14   14127   14118      14   14139   14130
      14   14151   14142      14   14163   14154      14   14175   14166      14
   14187   14178      14   14199   14190      14   14211   14202      14   14223
   14214      14   14235   14226      14   14247   14238      14   14259   14250
      14   14271   14262      14   14283   14274      14   14295   14286      14
   14307   14298      14   14319   14310      14   14331   14322      14   14343
   14334      14   14355   14346      14   14367   14358      14   14379   14370
      14   14391   14382      14   14403   14394      14   14415   14406      14
   14427   14418      14   14439   14430      14   14451   14442      14   14463
   14454      14   14475   14466      14   14487   14478      14   14499   14490
      14   14511   14502      14   14523   14514      14   14535   14526      14
   14547   14538      14   14559   14550      14   14571   14562      14   14583
   14574      14   14595   14586      14   14607   14598      14   14619   14610
      14   14631   14622      14   14643   14634      14   14655   14646      14
   14667   14658      14   14679   14670      14   14691   14682      14   14703
   14694      14   14715   14706      14   14727   14718      14   14739   14730
      14   14751   14742      14   14763   14754      14   14775   14766      14
   14787   14778      14   14799   14790      14   14811   14802      14   14823
   14814      14   14835   14826      14   14847   14838      14   14859   14850
      14   14871   14862      14   14883   14874      14   14895   14886      14
   14907   14898      14   14919   14910      14   14931   14922      14   14943
   14934      14   14955   14946      14   14967   14958      14   14979   14970
      14   14991   14982      14   15003   14994      14   15015   15006      14
   15027   15018      14   15039   15030      14   15051   15042      14   15063
   15054      14   15075   15066      14   15087   15078      14   15099   15090
      14   15111   15102      14   15123   15114      14   15135   15126      14
   15147   15138      14   15159   15150      14   15171   15162      14   15183
   15174      14   15195   15186      14   15207   15198      14   15219   15210
      14   15231   15222      14   15243   15234      14   15255   15246      14
   15267   15258      14   15279   15270      14   15291   15282      14   15303
   15294      14   15315   15306      14   15327   15318      14   15339   15330
      14   15351   15342      14   15363   15354      14   15375   15366      14
   15387   15378      14   15399   15390      14   15411   15402      14   15423
   15414      14   15435   15426      14   15447   15438      14   15459   15450
      14   15471   15462      14   15483   15474      14   15495   15486      14
   15507   15498      14   15519   15510      14   15531   15522      14   15543
   15534      14   15555   15546      14   15567   15558      14   15579   15570
      14   15591   15582      14   15603   15594      14   15615   15606      14
   15627   15618      14   15639   15630      14   15651   15642      14   15663
   15654      14   15675   15666      14   15687   15678      14   15699   15690
      14   15711   15702      14   15723   15714      14   15735   15726      14
   15747   15738      14   15759   15750      14   15771   15762      14   15783
   15774      14   15795   15786      14   15807   15798      14   15819   15810
      14   15831   15822      14   15843   15834      14   15855   15846      14
   15867   15858      14   15879   15870      14   15891   15882      14   15903
   15894      14   15915   15906      14   15927   15918      14   15939   15930
      14   15951   15942      14   15963   15954      14   15975   15966      14
   15987   15978      14   15999   15990      14   16011   16002      14   16023
   16014      14   16035   16026      14   16047   16038      14   16059   16050
      14   16071   16062      14   16083   16074      14   16095   16086      14
   16107   16098      14   16119   16110      14   16131   16122      14   16143
   16134      14   16155   16146      14   16167   16158      14   16179   16170
      14   16191   16182      14   16203   16194      14   16215   16206      14
   16227   16218      14   16239   16230      14   16251   16242      14   16263
   16254      14   16275   16266      14   16287   16278      14   16299   16290
      14   16311   16302      14   16323   16314      14   16335   16326      14
   16347   16338      14   16359   16350      14   16371   16362      14   16383
   16374      14   16395   16386      14   16407   16398      14   16419   16410
      14   16431   16422      14   16443   16434      14   16455   16446      14
   16467   16458      14   16479   16470      14   16491   16482      14   16503
   16494      14   16515   16506      14   16527   16518      14   16539   16530
      14   16551   16542      14   16563   16554      14   16575   16566      14
   16587   16578      14   16599   16590      14   16611   16602      14   16623
   16614      14   16635   16626      14   16647   16638      14   16659   16650
      14   16671   16662      14   16683   16674      14   16695   16686      14
   16707   16698      14   16719   16710      14   16731   16722      14   16743
   16734      14   16755   16746      14   16767   16758      14   16779   16770
      14   16791   16782      14   16803   16794      14   16815   16806      14
   16827   16818      14   16839   16830      14   16851   16842      14   16863
   16854      14   16875   16866      14   16887   16878      14   16899   16890
      14   16911   16902      14   16923   16914      14   16935   16926      14
   16947   16938      14   16959   16950      14   16971   16962      14   16983
   16974      14   16995   16986      14   17007   16998      14   17019   17010
      14   17031   17022      14   17043   17034      14   17055   17046      14
   17067   17058      14   17079   17070      14   17091   17082      14   17103
   17094      14   17115   17106      14   17127   17118      14   17139   17130
      14   17151   17142      14   17163   17154      14   17175   17166      14
   17187   17178      14   17199   17190      14   17211   17202      14   17223
   17214      14   17235   17226      14   17247   17238      14   17259   17250
      14   17271   17262      14   17283   17274      14   17295   17286      14
   17307   17298      14   17319   17310      14   17331   17322      14   17343
   17334      14   17355   17346      14   17367   17358      14   17379   17370
      14   17391   17382      14   17403   17394      14   17415   17406      14
   17427   17418      14   17439   17430      14   17451   17442      14   17463
   17454      14   17475   17466      14   17487   17478      14   17499   17490
      14   17511   17502      14   17523   17514      14   17535   17526      14
   17547   17538      14   17559   17550      14   17571   17562      14   17583
   17574      14   17595   17586      14   17607   17598      14   17619   17610
      14   17631   17622      14   17643   17634      14   17655   17646      14
   17667   17658      14   17679   17670      14   17691   17682      14   17703
   17694      14   17715   17706      14   17727   17718      14   17739   17730
      14   17751   17742      14   17763   17754      14   17775   17766      14
   17787   17778      14   17799   17790      14   17811   17802      14   17823
   17814      14   17835   17826      14   17847   17838      14   17859   17850
      14   17871   17862      14   17883   17874      14   17895   17886      14
   17907   17898      14   17919   17910      14   17931   17922      14   17943
   17934      14   17955   17946      14   17967   17958      14   17979   17970
      14   17991   17982      14   18003   17994      14   18015   18006      14
   18027   18018      14   18039   18030      14   18051   18042      14   18063
   18054      14   18075   18066      14   18087   18078      14   18099   18090
      14   18111   18102      14   18123   18114      14   18135   18126      14
   18147   18138      14   18159   18150      14   18171   18162      14   18183
   18174      14   18195   18186      14   18207   18198      14   18219   18210
      14   18231   18222      14   18243   18234      14   18255   18246      14
   18267   18258      14   18279   18270      14   18291   18282      14   18303
   18294      14   18315   18306      14   18327   18318      14   18339   18330
      14   18351   18342      14   18363   18354      14   18375   18366      14
   18387   18378      14   18399   18390      14   18411   18402      14   18423
   18414      14   18435   18426      14   18447   18438      14   18459   18450
      14   18471   18462      14   18483   18474      14   18495   18486      14
   18507   18498      14   18519   18510      14   18531   18522      14   18543
   18534      14   18555   18546      14   18567   18558      14   18579   18570
      14   18591   18582      14   18603   18594      14   18615   18606      14
   18627   18618      14   18639   18630      14   18651   18642      14   18663
   18654      14   18675   18666      14   18687   18678      14   18699   18690
      14   18711   18702      14   18723   18714      14   18735   18726      14
   18747   18738      14   18759   18750      14   18771   18762      14   18783
   18774      14   18795   18786      14   18807   18798      14   18819   18810
      14   18831   18822      14   18843   18834      14   18855   18846      14
   18867   18858      14   18879   18870      14   18891   18882      14   18903
   18894      14   18915   18906      14   18927   18918      14   18939   18930
      14   18951   18942      14   18963   18954      14   18975   18966      14
   18987   18978      14   18999   18990      14   19011   19002      14   19023
   19014      14   19035   19026      14   19047   19038      14   19059   19050
      14   19071   19062      14   19083   19074      14   19095   19086      14
   19107   19098      14   19119   19110      14   19131   19122      14   19143
   19134      14   19155   19146      14
%FLAG ANGLES_INC_HYDROGEN                                                       
%FORMAT(10I8)                                                                   
      12      18      21       2       9       3      12       4       6       3
       9       5       6       3      12       4       0       3       6       5
       0       3       9       5       0       3      12       4      42      48
      51       2      36      30      39       5      33      30      36       5
      33      30      39       5      27      24      30       9      27      24
      42      10      24      30      33      11      24      30      36      11
      24      30      39      11      21      18      24      14      18      24
      27      15      72      78      81       2      66      60      69       5
      63      60      66       5      63      60      69       5      57      54
      60       9      57      54      72      10      54      60      63      11
      54      60      66      11      54      60      69      11      51      48
      54      14      48      54      57      15     102     108     111       2
      96      90      99       5      93      90      96       5      93      90
      99       5      87      84      90       9      87      84     102      10
      84      90      93      11      84      90      96      11      84      90
      99      11      81      78      84      14      78      84      87      15
     120     114     123      19     117     114     120      19     117     114
     123      19     111     108     114      20     108     114     117      21
     108     114     120      21     108     114     123      21
%FLAG ANGLES_WITHOUT_HYDROGEN                                                   
%FORMAT(10I8)                                                                   
      15      12      18       1      12      18      24       3       3      12
      15       6       3      12      18       7      45      42      48       1
      42      48      54       3      30      24      42       8      24      42
      45      12      24      42      48      13      18      24      30      16
      18      24      42      17      75      72      78       1      72      78
      84       3      60      54      72       8      54      72      75      12
      54      72      78      13      48      54      60      16      48      54
      72      17     105     102     108       1     102     108     114      18
      90      84     102       8      84     102     105      12      84     102
     108      13      78      84      90      16      78      84     102      17
%FLAG DIHEDRALS_INC_HYDROGEN                                                    
%FORMAT(10I8)                                                                   
      15      12      18      21       1      15      12     -18      21       2
      12      18      24      27       3       9       3      12      15       7
       9       3     -12      15       3       9       3     -12      15       8
       9       3      12      18       3       6       3      12      15       7
       6       3     -12      15       3       6       3     -12      15       8
       6       3      12      18       3       3      12      18      21       2
       0       3      12      15       7       0       3     -12      15       3
       0       3     -12      15       8       0       3      12      18       3
      45      42      48      51       1      45      42     -48      51       2
      42      48      54      57       3      39      30      24      42       9
      36      30      24      42       9      33      30      24      42       9
      27      24      30      33       9      27      24      30      36       9
      27      24      30      39       9      27      24      42      45       4
      27      24     -42      45       3      27      24     -42      45      10
      27      24      42      48       3      24      42      48      51       2
      21      18      24      27       3      21      18      24      30       3
      21      18      24      42       3      18      24      30      33       9
      18      24      30      36       9      18      24      30      39       9
      75      72      78      81       1      75      72     -78      81       2
      72      78      84      87       3      69      60      54      72       9
      66      60      54      72       9      63      60      54      72       9
      57      54      60      63       9      57      54      60      66       9
      57      54      60      69       9      57      54      72      75       4
      57      54     -72      75       3      57      54     -72      75      10
      57      54      72      78       3      54      72      78      81       2
      51      48      54      57       3      51      48      54      60       3
      51      48      54      72       3      48      54      60      63       9
      48      54      60      66       9      48      54      60      69       9
     105     102     108     111       1     105     102    -108     111       2
     102     108     114     117       3     102     108     114     120       3
     102     108     114     123       3      99      90      84     102       9
      96      90      84     102       9      93      90      84     102       9
      87      84      90      93       9      87      84      90      96       9
      87      84      90      99       9      87      84     102     105       4
      87      84    -102     105       3      87      84    -102     105      10
      87      84     102     108       3      84     102     108     111       2
      81      78      84      87       3      81      78      84      90       3
      81      78      84     102       3      78      84      90      93       9
      78      84      90      96       9      78      84      90      99       9
     111     108     114     117       3     111     108     114     120       3
     111     108     114     123       3      12      24     -18     -21      14
      42      51     -48     -54      14      72      81     -78     -84      14
     102     114    -108    -111      14
%FLAG DIHEDRALS_WITHOUT_HYDROGEN                                                
%FORMAT(10I8)                                                                   
      15      12      18      24       2      12      18      24      30       4
      12      18     -24      30       3      12      18     -24      30       5
      12      18     -24      30       6      12      18      24      42       4
      12      18     -24      42       3      12      18     -24      42       5
      12      18     -24      42       6       3      12      18      24       2
      45      42      48      54       2      42      48      54      60       4
      42      48     -54      60       3      42      48     -54      60       5
      42      48     -54      60       6      42      48      54      72       4
      42      48     -54      72       3      42      48     -54      72       5
      42      48     -54      72       6      30      24      42      45       3
      30      24      42      48       4      30      24     -42      48       3
      30      24     -42      48       5      30      24     -42      48       6
      24      42      48      54       2      18      24      42      45       3
      18      24      42      48      11      18      24     -42      48      12
      18      24     -42      48      10      18      24     -42      48       6
      75      72      78      84       2      72      78      84      90       4
      72      78     -84      90       3      72      78     -84      90       5
      72      78     -84      90       6      72      78      84     102       4
      72      78     -84     102       3      72      78     -84     102       5
      72      78     -84     102       6      60      54      72      75       3
      60      54      72      78       4      60      54     -72      78       3
      60      54     -72      78       5      60      54     -72      78       6
      54      72      78      84       2      48      54      72      75       3
      48      54      72      78      11      48      54     -72      78      12
      48      54     -72      78      10      48      54     -72      78       6
     105     102     108     114       2      90      84     102     105       3
      90      84     102     108       4      90      84    -102     108       3
      90      84    -102     108       5      90      84    -102     108       6
      84     102     108     114       2      78      84     102     105       3
      78      84     102     108      11      78      84    -102     108      12
      78      84    -102     108      10      78      84    -102     108       6
       3      18     -12     -15      13      24      48     -42     -45      13
      54      78     -72     -75      13      84     108    -102    -105      13
%FLAG EXCLUDED_ATOMS_LIST                                                       
%FORMAT(10I8)                                                                   
       2       3       4       5       6       7       3       4       5       6
       7       8       9       4       5       6       7       5       6       7
       6       7       8       9      10      11      15       7       8       9
       8       9      10      11      12      13      14      15      16      17
       9      10      11      15      10      11      12      13      14      15
      16      17      18      19      11      12      13      14      15      16
      17      12      13      14      15      16      17      13      14      15
      14      15      15      16      17      18      19      20      21      25
      17      18      19      18      19      20      21      22      23      24
      25      26      27      19      20      21      25      20      21      22
      23      24      25      26      27      28      29      21      22      23
      24      25      26      27      22      23      24      25      26      27
      23      24      25      24      25      25      26      27      28      29
      30      31      35      27      28      29      28      29      30      31
      32      33      34      35      36      37      29      30      31      35
      30      31      32      33      34      35      36      37      38      39
      31      32      33      34      35      36      37      32      33      34
      35      36      37      33      34      35      34      35      35      36
      37      38      39      40      41      42      37      38      39      38
      39      40      41      42      39      40      41      42      40      41
      42      41      42      42       0      44      45      46      45      46
      46       0      48      49      50      49      50      50       0      52
      53      54      53      54      54       0      56      57      58      57
      58      58       0      60      61      62      61      62      62       0
      64      65      66      65      66      66       0      68      69      70
      69      70      70       0      72      73      74      73      74      74
       0      76      77      78      77      78      78       0      80      81
      82      81      82      82       0      84      85      86      85      86
      86       0      88      89      90      89      90      90       0      92
      93      94      93      94      94       0      96      97      98      97
      98      98       0     100     101     102     101     102     102       0
     104     105     106     105     106     106       0     108     109     110
     109     110     110       0     112     113     114     113     114     114
       0     116     117     118     117     118     118       0     120     121
     122     121     122     122       0     124     125     126     125     126
     126       0     128     129     130     129     130     130       0     132
     133     134     133     134     134       0     136     137     138     137
     138     138       0     140     141     142     141     142     142       0
     144     145     146     145     146     146       0     148     149     150
     149     150     150       0     152     153     154     153     154     154
       0     156     157     158     157     158     158       0     160     161
     162     161     162     162       0     164     165     166     165     166
     166       0     168     169     170     169     170     170       0     172
     173     174     173     174     174       0     176     177     178     177
     178     178       0     180     181     182     181     182     182       0
     184     185     186     185     186     186       0     188     189     190
     189     190     190       0     192     193     194     193     194     194
       0     196     197     198     197     198     198       0     200     201
     202     201     202     202       0     204     205     206     205     206
     206       0     208     209     210     209     210     210       0     212
     213     214     213     214     214       0     216     217     218     217
     218     218       0     220     221     222     221     222     222       0
     224     225     226     225     226     226       0     228     229     230
     229     230     230       0     232     233     234     233     234     234
       0     236     237     238     237     238     238       0     240     241
     242     241     242     242       0     244     245     246     245     246
     246       0     248     249     250     249     250     250       0     252
     253     254     253     254     254       0     256     257     258     257
     258     258       0     260     261     262     261     262     262       0
     264     265     266     265     266     266       0     268     269     270
     269     270     270       0     272     273     274     273     274     274
       0     276     277     278     277     278     278       0     280     281
     282     281     282     282       0     284     285     286     285     286
     286       0     288     289     290     289     290     290       0     292
     293     294     293     294     294       0     296     297     298     297
     298     298       0     300     301     302     301     302     302       0
     304     305     306     305     306     306       0     308     309     310
     309     310     310       0     312     313     314     313     314     314
       0     316     317     318     317     318     318       0     320     321
     322     321     322     322       0     324     325     326     325     326
     326       0     328     329     330     329     330     330       0     332
     333     334     333     334     334       0     336     337     338     337
     338     338       0     340     341     342     341     342     342       0
     344     345     346     345     346     346       0     348     349     350
     349     350     350       0     352     353     354     353     354     354
       0     356     357     358     357     358     358       0     360     361
     362     361     362     362       0     364     365     366     365     366
     366       0     368     369     370     369     370     370       0     372
     373     374     373     374     374       0     376     377     378     377
     378     378       0     380     381     382     381     382     382       0
     384     385     386     385     386     386       0     388     389     390
     389     390     390       0     392     393     394     393     394     394
       0     396     397     398     397     398     398       0     400     401
     402     401     402     402       0     404     405     406     405     406
     406       0     408     409     410     409     410     410       0     412
     413     414     413     414     414       0     416     417     418     417
     418     418       0     420     421     422     421     422     422       0
     424     425     426     425     426     426       0     428     429     430
     429     430     430       0     432     433     434     433     434     434
       0     436     437     438     437     438     438       0     440     441
     442     441     442     442       0     444     445     446     445     446
     446       0     448     449     450     449     450     450       0     452
     453     454     453     454     454       0     456     457     458     457
     458     458       0     460     461     462     461     462     462       0
     464     465     466     465     466     466       0     468     469     470
     469     470     470       0     472     473     474     473     474     474
       0     476     477     478     477     478     478       0     480     481
     482     481     482     482       0     484     485     486     485     486
     486       0     488     489     490     489     490     490       0     492
     493     494     493     494     494       0     496     497     498     497
     498     498       0     500     501     502     501     502     502       0
     504     505     506     505     506     506       0     508     509     510
     509     510     510       0     512     513     514     513     514     514
       0     516     517     518     517     518     518       0     520     521
     522     521     522     522       0     524     525     526     525     526
     526       0     528     529     530     529     530     530       0     532
     533     534     533     534     534       0     536     537     538     537
     538     538       0     540     541     542     541     542     542       0
     544     545     546     545     546     546       0     548     549     550
     549     550     550       0     552     553     554     553     554     554
       0     556     557     558     557     558     558       0     560     561
     562     561     562     562       0     564     565     566     565     566
     566       0     568     569     570     569     570     570       0     572
     573     574     573     574     574       0     576     577     578     577
     578     578       0     580     581     582     581     582     582       0
     584     585     586     585     586     586       0     588     589     590
     589     590     590       0     592     593     594     593     594     594
       0     596     597     598     597     598     598       0     600     601
     602     601     602     602       0     604     605     606     605     606
     606       0     608     609     610     609     610     610       0     612
     613     614     613     614     614       0     616     617     618     617
     618     618       0     620     621     622     621     622     622       0
     624     625     626     625     626     626       0     628     629     630
     629     630     630       0     632     633     634     633     634     634
       0     636     637     638     637     638     638       0     640     641
     642     641     642     642       0     644     645     646     645     646
     646       0     648     649     650     649     650     650       0     652
     653     654     653     654     654       0     656     657     658     657
     658     658       0     660     661     662     661     662     662       0
     664     665     666     665     666     666       0     668     669     670
     669     670     670       0     672     673     674     673     674     674
       0     676     677     678     677     678     678       0     680     681
     682     681     682     682       0     684     685     686     685     686
     686       0     688     689     690     689     690     690       0     692
     693     694     693     694     694       0     696     697     698     697
     698     698       0     700     701     702     701     702     702       0
     704     705     706     705     706     706       0     708     709     710
     709     710     710       0     712     713     714     713     714     714
       0     716     717     718     717     718     718       0     720     721
     722     721     722     722       0     724     725     726     725     726
     726       0     728     729     730     729     730     730       0     732
     733     734     733     734     734       0     736     737     738     737
     738     738       0     740     741     742     741     742     742       0
     744     745     746     745     746     746       0     748     749     750
     749     750     750       0     752     753     754     753     754     754
       0     756     757     758     757     758     758       0     760     761
     762     761     762     762       0     764     765     766     765     766
     766       0     768     769     770     769     770     770       0     772
     773     774     773     774     774       0     776     777     778     777
     778     778       0     780     781     782     781     782     782       0
     784     785     786     785     786     786       0     788     789     790
     789     790     790       0     792     793     794     793     794     794
       0     796     797     798     797     798     798       0     800     801
     802     801     802     802       0     804     805     806     805     806
     806       0     808     809     810     809     810     810       0     812
     813     814     813     814     814       0     816     817     818     817
     818     818       0     820     821     822     821     822     822       0
     824     825     826     825     826     826       0     828     829     830
     829     830     830       0     832     833     834     833     834     834
       0     836     837     838     837     838     838       0     840     841
     842     841     842     842       0     844     845     846     845     846
     846       0     848     849     850     849     850     850       0     852
     853     854     853     854     854       0     856     857     858     857
     858     858       0     860     861     862     861     862     862       0
     864     865     866     865     866     866       0     868     869     870
     869     870     870       0     872     873     874     873     874     874
       0     876     877     878     877     878     878       0     880     881
     882     881     882     882       0     884     885     886     885     886
     886       0     888     889     890     889     890     890       0     892
     893     894     893     894     894       0     896     897     898     897
     898     898       0     900     901     902     901     902     902       0
     904     905     906     905     906     906       0     908     909     910
     909     910     910       0     912     913     914     913     914     914
       0     916     917     918     917     918     918       0     920     921
     922     921     922     922       0     924     925     926     925     926
     926       0     928     929     930     929     930     930       0     932
     933     934     933     934     934       0     936     937     938     937
     938     938       0     940     941     942     941     942     942       0
     944     945     946     945     946     946       0     948     949     950
     949     950     950       0     952     953     954     953     954     954
       0     956     957     958     957     958     958       0     960     961
     962     961     962     962       0     964     965     966     965     966
     966       0     968     969     970     969     970     970       0     972
     973     974     973     974     974       0     976     977     978     977
     978     978       0     980     981     982     981     982     982       0
     984     985     986     985     986     986       0     988     989     990
     989     990     990       0     992     993     994     993     994     994
       0     996     997     998     997     998     998       0    1000    1001
    1002    1001    1002    1002       0    1004    1005    1006    1005    1006
    1006       0    1008    1009    1010    1009    1010    1010       0    1012
    1013    1014    1013    1014    1014       0    1016    1017    1018    1017
    1018    1018       0    1020    1021    1022    1021    1022    1022       0
    1024    1025    1026    1025    1026    1026       0    1028    1029    1030
    1029    1030    1030       0    1032    1033    1034    1033    1034    1034
       0    1036    1037    1038    1037    1038    1038       0    1040    1041
    1042    1041    1042    1042       0    1044    1045    1046    1045    1046
    1046       0    1048    1049    1050    1049    1050    1050       0    1052
    1053    1054    1053    1054    1054       0    1056    1057    1058    1057
    1058    1058       0    1060    1061    1062    1061    1062    1062       0
    1064    1065    1066    1065    1066    1066       0    1068    1069    1070
    1069    1070    1070       0    1072    1073    1074    1073    1074    1074
       0    1076    1077    1078    1077    1078    1078       0    1080    1081
    1082    1081    1082    1082       0    1084    1085    1086    1085    1086
    1086       0    1088    1089    1090    1089    1090    1090       0    1092
    1093    1094    1093    1094    1094       0    1096    1097    1098    1097
    1098    1098       0    1100    1101    1102    1101    1102    1102       0
    1104    1105    1106    1105    1106    1106       0    1108    1109    1110
    1109    1110    1110       0    1112    1113    1114    1113    1114    1114
       0    1116    1117    1118    1117    1118    1118       0    1120    1121
    1122    1121    1122    1122       0    1124    1125    1126    1125    1126
    1126       0    1128    1129    1130    1129    1130    1130       0    1132
    1133    1134    1133    1134    1134       0    1136    1137    1138    1137
    1138    1138       0    1140    1141    1142    1141    1142    1142       0
    1144    1145    1146    1145    1146    1146       0    1148    1149    1150
    1149    1150    1150       0    1152    1153    1154    1153    1154    1154
       0    1156    1157    1158    1157    1158    1158       0    1160    1161
    1162    1161    1162    1162       0    1164    1165    1166    1165    1166
    1166       0    1168    1169    1170    1169    1170    1170       0    1172
    1173    1174    1173    1174    1174       0    1176    1177    1178    1177
    1178    1178       0    1180    1181    1182    1181    1182    1182       0
    1184    1185    1186    1185    1186    1186       0    1188    1189    1190
    1189    1190    1190       0    1192    1193    1194    1193    1194    1194
       0    1196    1197    1198    1197    1198    1198       0    1200    1201
    1202    1201    1202    1202       0    1204    1205    1206    1205    1206
    1206       0    1208    1209    1210    1209    1210    1210       0    1212
    1213    1214    1213    1214    1214       0    1216    1217    1218    1217
    1218    1218       0    1220    1221    1222    1221    1222    1222       0
    1224    1225    1226    1225    1226    1226       0    1228    1229    1230
    1229    1230    1230       0    1232    1233    1234    1233    1234    1234
       0    1236    1237    1238    1237    1238    1238       0    1240    1241
    1242    1241    1242    1242       0    1244    1245    1246    1245    1246
    1246       0    1248    1249    1250    1249    1250    1250       0    1252
    1253    1254    1253    1254    1254       0    1256    1257    1258    1257
    1258    1258       0    1260    1261    1262    1261    1262    1262       0
    1264    1265    1266    1265    1266    1266       0    1268    1269    1270
    1269    1270    1270       0    1272    1273    1274    1273    1274    1274
       0    1276    1277    1278    1277    1278    1278       0    1280    1281
    1282    1281    1282    1282       0    1284    1285    1286    1285    1286
    1286       0    1288    1289    1290    1289    1290    1290       0    1292
    1293    1294    1293    1294    1294       0    1296    1297    1298    1297
    1298    1298       0    1300    1301    1302    1301    1302    1302       0
    1304    1305    1306    1305    1306    1306       0    1308    1309    1310
    1309    1310    1310       0    1312    1313    1314    1313    1314    1314
       0    1316    1317    1318    1317    1318    1318       0    1320    1321
    1322    1321    1322    1322       0    1324    1325    1326    1325    1326
    1326       0    1328    1329    1330    1329    1330    1330       0    1332
    1333    1334    1333    1334    1334       0    1336    1337    1338    1337
    1338    1338       0    1340    1341    1342    1341    1342    1342       0
    1344    1345    1346    1345    1346    1346       0    1348    1349    1350
    1349    1350    1350       0    1352    1353    1354    1353    1354    1354
       0    1356    1357    1358    1357    1358    1358       0    1360    1361
    1362    1361    1362    1362       0    1364    1365    1366    1365    1366
    1366       0    1368    1369    1370    1369    1370    1370       0    1372
    1373    1374    1373    1374    1374       0    1376    1377    1378    1377
    1378    1378       0    1380    1381    1382    1381    1382    1382       0
    1384    1385    1386    1385    1386    1386       0    1388    1389    1390
    1389    1390    1390       0    1392    1393    1394    1393    1394    1394
       0    1396    1397    1398    1397    1398    1398       0    1400    1401
    1402    1401    1402    1402       0    1404    1405    1406    1405    1406
    1406       0    1408    1409    1410    1409    1410    1410       0    1412
    1413    1414    1413    1414    1414       0    1416    1417    1418    1417
    1418    1418       0    1420    1421    1422    1421    1422    1422       0
    1424    1425    1426    1425    1426    1426       0    1428    1429    1430
    1429    1430    1430       0    1432    1433    1434    1433    1434    1434
       0    1436    1437    1438    1437    1438    1438       0    1440    1441
    1442    1441    1442    1442       0    1444    1445    1446    1445    1446
    1446       0    1448    1449    1450    1449    1450    1450       0    1452
    1453    1454    1453    1454    1454       0    1456    1457    1458    1457
    1458    1458       0    1460    1461    1462    1461    1462    1462       0
    1464    1465    1466    1465    1466    1466       0    1468    1469    1470
    1469    1470    1470       0    1472    1473    1474    1473    1474    1474
       0    1476    1477    1478    1477    1478    1478       0    1480    1481
    1482    1481    1482    1482       0    1484    1485    1486    1485    1486
    1486       0    1488    1489    1490    1489    1490    1490       0    1492
    1493    1494    1493    1494    1494       0    1496    1497    1498    1497
    1498    1498       0    1500    1501    1502    1501    1502    1502       0
    1504    1505    1506    1505    1506    1506       0    1508    1509    1510
    1509    1510    1510       0    1512    1513    1514    1513    1514    1514
       0    1516    1517    1518    1517    1518    1518       0    1520    1521
    1522    1521    1522    1522       0    1524    1525    1526    1525    1526
    1526       0    1528    1529    1530    1529    1530    1530       0    1532
    1533    1534    1533    1534    1534       0    1536    1537    1538    1537
    1538    1538       0    1540    1541    1542    1541    1542    1542       0
    1544    1545    1546    1545    1546    1546       0    1548    1549    1550
    1549    1550    1550       0    1552    1553    1554    1553    1554    1554
       0    1556    1557    1558    1557    1558    1558       0    1560    1561
    1562    1561    1562    1562       0    1564    1565    1566    1565    1566
    1566       0    1568    1569    1570    1569    1570    1570       0    1572
    1573    1574    1573    1574    1574       0    1576    1577    1578    1577
    1578    1578       0    1580    1581    1582    1581    1582    1582       0
    1584    1585    1586    1585    1586    1586       0    1588    1589    1590
    1589    1590    1590       0    1592    1593    1594    1593    1594    1594
       0    1596    1597    1598    1597    1598    1598       0    1600    1601
    1602    1601    1602    1602       0    1604    1605    1606    1605    1606
    1606       0    1608    1609    1610    1609    1610    1610       0    1612
    1613    1614    1613    1614    1614       0    1616    1617    1618    1617
    1618    1618       0    1620    1621    1622    1621    1622    1622       0
    1624    1625    1626    1625    1626    1626       0    1628    1629    1630
    1629    1630    1630       0    1632    1633    1634    1633    1634    1634
       0    1636    1637    1638    1637    1638    1638       0    1640    1641
    1642    1641    1642    1642       0    1644    1645    1646    1645    1646
    1646       0    1648    1649    1650    1649    1650    1650       0    1652
    1653    1654    1653    1654    1654       0    1656    1657    1658    1657
    1658    1658       0    1660    1661    1662    1661    1662    1662       0
    1664    1665    1666    1665    1666    1666       0    1668    1669    1670
    1669    1670    1670       0    1672    1673    1674    1673    1674    1674
       0    1676    1677    1678    1677    1678    1678       0    1680    1681
    1682    1681    1682    1682       0    1684    1685    1686    1685    1686
    1686       0    1688    1689    1690    1689    1690    1690       0    1692
    1693    1694    1693    1694    1694       0    1696    1697    1698    1697
    1698    1698       0    1700    1701    1702    1701    1702    1702       0
    1704    1705    1706    1705    1706    1706       0    1708    1709    1710
    1709    1710    1710       0    1712    1713    1714    1713    1714    1714
       0    1716    1717    1718    1717    1718    1718       0    1720    1721
    1722    1721    1722    1722       0    1724    1725    1726    1725    1726
    1726       0    1728    1729    1730    1729    1730    1730       0    1732
    1733    1734    1733    1734    1734       0    1736    1737    1738    1737
    1738    1738       0    1740    1741    1742    1741    1742    1742       0
    1744    1745    1746    1745    1746    1746       0    1748    1749    1750
    1749    1750    1750       0    1752    1753    1754    1753    1754    1754
       0    1756    1757    1758    1757    1758    1758       0    1760    1761
    1762    1761    1762    1762       0    1764    1765    1766    1765    1766
    1766       0    1768    1769    1770    1769    1770    1770       0    1772
    1773    1774    1773    1774    1774       0    1776    1777    1778    1777
    1778    1778       0    1780    1781    1782    1781    1782    1782       0
    1784    1785    1786    1785    1786    1786       0    1788    1789    1790
    1789    1790    1790       0    1792    1793    1794    1793    1794    1794
       0    1796    1797    1798    1797    1798    1798       0    1800    1801
    1802    1801    1802    1802       0    1804    1805    1806    1805    1806
    1806       0    1808    1809    1810    1809    1810    1810       0    1812
    1813    1814    1813    1814    1814       0    1816    1817    1818    1817
    1818    1818       0    1820    1821    1822    1821    1822    1822       0
    1824    1825    1826    1825    1826    1826       0    1828    1829    1830
    1829    1830    1830       0    1832    1833    1834    1833    1834    1834
       0    1836    1837    1838    1837    1838    1838       0    1840    1841
    1842    1841    1842    1842       0    1844    1845    1846    1845    1846
    1846       0    1848    1849    1850    1849    1850    1850       0    1852
    1853    1854    1853    1854    1854       0    1856    1857    1858    1857
    1858    1858       0    1860    1861    1862    1861    1862    1862       0
    1864    1865    1866    1865    1866    1866       0    1868    1869    1870
    1869    1870    1870       0    1872    1873    1874    1873    1874    1874
       0    1876    1877    1878    1877    1878    1878       0    1880    1881
    1882    1881    1882    1882       0    1884    1885    1886    1885    1886
    1886       0    1888    1889    1890    1889    1890    1890       0    1892
    1893    1894    1893    1894    1894       0    1896    1897    1898    1897
    1898    1898       0    1900    1901    1902    1901    1902    1902       0
    1904    1905    1906    1905    1906    1906       0    1908    1909    1910
    1909    1910    1910       0    1912    1913    1914    1913    1914    1914
       0    1916    1917    1918    1917    1918    1918       0    1920    1921
    1922    1921    1922    1922       0    1924    1925    1926    1925    1926
    1926       0    1928    1929    1930    1929    1930    1930       0    1932
    1933    1934    1933    1934    1934       0    1936    1937    1938    1937
    1938    1938       0    1940    1941    1942    1941    1942    1942       0
    1944    1945    1946    1945    1946    1946       0    1948    1949    1950
    1949    1950    1950       0    1952    1953    1954    1953    1954    1954
       0    1956    1957    1958    1957    1958    1958       0    1960    1961
    1962    1961    1962    1962       0    1964    1965    1966    1965    1966
    1966       0    1968    1969    1970    1969    1970    1970       0    1972
    1973    1974    1973    1974    1974       0    1976    1977    1978    1977
    1978    1978       0    1980    1981    1982    1981    1982    1982       0
    1984    1985    1986    1985    1986    1986       0    1988    1989    1990
    1989    1990    1990       0    1992    1993    1994    1993    1994    1994
       0    1996    1997    1998    1997    1998    1998       0    2000    2001
    2002    2001    2002    2002       0    2004    2005    2006    2005    2006
    2006       0    2008    2009    2010    2009    2010    2010       0    2012
    2013    2014    2013    2014    2014       0    2016    2017    2018    2017
    2018    2018       0    2020    2021    2022    2021    2022    2022       0
    2024    2025    2026    2025    2026    2026       0    2028    2029    2030
    2029    2030    2030       0    2032    2033    2034    2033    2034    2034
       0    2036    2037    2038    2037    2038    2038       0    2040    2041
    2042    2041    2042    2042       0    2044    2045    2046    2045    2046
    2046       0    2048    2049    2050    2049    2050    2050       0    2052
    2053    2054    2053    2054    2054       0    2056    2057    2058    2057
    2058    2058       0    2060    2061    2062    2061    2062    2062       0
    2064    2065    2066    2065    2066    2066       0    2068    2069    2070
    2069    2070    2070       0    2072    2073    2074    2073    2074    2074
       0    2076    2077    2078    2077    2078    2078       0    2080    2081
    2082    2081    2082    2082       0    2084    2085    2086    2085    2086
    2086       0    2088    2089    2090    2089    2090    2090       0    2092
    2093    2094    2093    2094    2094       0    2096    2097    2098    2097
    2098    2098       0    2100    2101    2102    2101    2102    2102       0
    2104    2105    2106    2105    2106    2106       0    2108    2109    2110
    2109    2110    2110       0    2112    2113    2114    2113    2114    2114
       0    2116    2117    2118    2117    2118    2118       0    2120    2121
    2122    2121    2122    2122       0    2124    2125    2126    2125    2126
    2126       0    2128    2129    2130    2129    2130    2130       0    2132
    2133    2134    2133    2134    2134       0    2136    2137    2138    2137
    2138    2138       0    2140    2141    2142    2141    2142    2142       0
    2144    2145    2146    2145    2146    2146       0    2148    2149    2150
    2149    2150    2150       0    2152    2153    2154    2153    2154    2154
       0    2156    2157    2158    2157    2158    2158       0    2160    2161
    2162    2161    2162    2162       0    2164    2165    2166    2165    2166
    2166       0    2168    2169    2170    2169    2170    2170       0    2172
    2173    2174    2173    2174    2174       0    2176    2177    2178    2177
    2178    2178       0    2180    2181    2182    2181    2182    2182       0
    2184    2185    2186    2185    2186    2186       0    2188    2189    2190
    2189    2190    2190       0    2192    2193    2194    2193    2194    2194
       0    2196    2197    2198    2197    2198    2198       0    2200    2201
    2202    2201    2202    2202       0    2204    2205    2206    2205    2206
    2206       0    2208    2209    2210    2209    2210    2210       0    2212
    2213    2214    2213    2214    2214       0    2216    2217    2218    2217
    2218    2218       0    2220    2221    2222    2221    2222    2222       0
    2224    2225    2226    2225    2226    2226       0    2228    2229    2230
    2229    2230    2230       0    2232    2233    2234    2233    2234    2234
       0    2236    2237    2238    2237    2238    2238       0    2240    2241
    2242    2241    2242    2242       0    2244    2245    2246    2245    2246
    2246       0    2248    2249    2250    2249    2250    2250       0    2252
    2253    2254    2253    2254    2254       0    2256    2257    2258    2257
    2258    2258       0    2260    2261    2262    2261    2262    2262       0
    2264    2265    2266    2265    2266    2266       0    2268    2269    2270
    2269    2270    2270       0    2272    2273    2274    2273    2274    2274
       0    2276    2277    2278    2277    2278    2278       0    2280    2281
    2282    2281    2282    2282       0    2284    2285    2286    2285    2286
    2286       0    2288    2289    2290    2289    2290    2290       0    2292
    2293    2294    2293    2294    2294       0    2296    2297    2298    2297
    2298    2298       0    2300    2301    2302    2301    2302    2302       0
    2304    2305    2306    2305    2306    2306       0    2308    2309    2310
    2309    2310    2310       0    2312    2313    2314    2313    2314    2314
       0    2316    2317    2318    2317    2318    2318       0    2320    2321
    2322    2321    2322    2322       0    2324    2325    2326    2325    2326
    2326       0    2328    2329    2330    2329    2330    2330       0    2332
    2333    2334    2333    2334    2334       0    2336    2337    2338    2337
    2338    2338       0    2340    2341    2342    2341    2342    2342       0
    2344    2345    2346    2345    2346    2346       0    2348    2349    2350
    2349    2350    2350       0    2352    2353    2354    2353    2354    2354
       0    2356    2357    2358    2357    2358    2358       0    2360    2361
    2362    2361    2362    2362       0    2364    2365    2366    2365    2366
    2366       0    2368    2369    2370    2369    2370    2370       0    2372
    2373    2374    2373    2374    2374       0    2376    2377    2378    2377
    2378    2378       0    2380    2381    2382    2381    2382    2382       0
    2384    2385    2386    2385    2386    2386       0    2388    2389    2390
    2389    2390    2390       0    2392    2393    2394    2393    2394    2394
       0    2396    2397    2398    2397    2398    2398       0    2400    2401
    2402    2401    2402    2402       0    2404    2405    2406    2405    2406
    2406       0    2408    2409    2410    2409    2410    2410       0    2412
    2413    2414    2413    2414    2414       0    2416    2417    2418    2417
    2418    2418       0    2420    2421    2422    2421    2422    2422       0
    2424    2425    2426    2425    2426    2426       0    2428    2429    2430
    2429    2430    2430       0    2432    2433    2434    2433    2434    2434
       0    2436    2437    2438    2437    2438    2438       0    2440    2441
    2442    2441    2442    2442       0    2444    2445    2446    2445    2446
    2446       0    2448    2449    2450    2449    2450    2450       0    2452
    2453    2454    2453    2454    2454       0    2456    2457    2458    2457
    2458    2458       0    2460    2461    2462    2461    2462    2462       0
    2464    2465    2466    2465    2466    2466       0    2468    2469    2470
    2469    2470    2470       0    2472    2473    2474    2473    2474    2474
       0    2476    2477    2478    2477    2478    2478       0    2480    2481
    2482    2481    2482    2482       0    2484    2485    2486    2485    2486
    2486       0    2488    2489    2490    2489    2490    2490       0    2492
    2493    2494    2493    2494    2494       0    2496    2497    2498    2497
    2498    2498       0    2500    2501    2502    2501    2502    2502       0
    2504    2505    2506    2505    2506    2506       0    2508    2509    2510
    2509    2510    2510       0    2512    2513    2514    2513    2514    2514
       0    2516    2517    2518    2517    2518    2518       0    2520    2521
    2522    2521    2522    2522       0    2524    2525    2526    2525    2526
    2526       0    2528    2529    2530    2529    2530    2530       0    2532
    2533    2534    2533    2534    2534       0    2536    2537    2538    2537
    2538    2538       0    2540    2541    2542    2541    2542    2542       0
    2544    2545    2546    2545    2546    2546       0    2548    2549    2550
    2549    2550    2550       0    2552    2553    2554    2553    2554    2554
       0    2556    2557    2558    2557    2558    2558       0    2560    2561
    2562    2561    2562    2562       0    2564    2565    2566    2565    2566
    2566       0    2568    2569    2570    2569    2570    2570       0    2572
    2573    2574    2573    2574    2574       0    2576    2577    2578    2577
    2578    2578       0    2580    2581    2582    2581    2582    2582       0
    2584    2585    2586    2585    2586    2586       0    2588    2589    2590
    2589    2590    2590       0    2592    2593    2594    2593    2594    2594
       0    2596    2597    2598    2597    2598    2598       0    2600    2601
    2602    2601    2602    2602       0    2604    2605    2606    2605    2606
    2606       0    2608    2609    2610    2609    2610    2610       0    2612
    2613    2614    2613    2614    2614       0    2616    2617    2618    2617
    2618    2618       0    2620    2621    2622    2621    2622    2622       0
    2624    2625    2626    2625    2626    2626       0    2628    2629    2630
    2629    2630    2630       0    2632    2633    2634    2633    2634    2634
       0    2636    2637    2638    2637    2638    2638       0    2640    2641
    2642    2641    2642    2642       0    2644    2645    2646    2645    2646
    2646       0    2648    2649    2650    2649    2650    2650       0    2652
    2653    2654    2653    2654    2654       0    2656    2657    2658    2657
    2658    2658       0    2660    2661    2662    2661    2662    2662       0
    2664    2665    2666    2665    2666    2666       0    2668    2669    2670
    2669    2670    2670       0    2672    2673    2674    2673    2674    2674
       0    2676    2677    2678    2677    2678    2678       0    2680    2681
    2682    2681    2682    2682       0    2684    2685    2686    2685    2686
    2686       0    2688    2689    2690    2689    2690    2690       0    2692
    2693    2694    2693    2694    2694       0    2696    2697    2698    2697
    2698    2698       0    2700    2701    2702    2701    2702    2702       0
    2704    2705    2706    2705    2706    2706       0    2708    2709    2710
    2709    2710    2710       0    2712    2713    2714    2713    2714    2714
       0    2716    2717    2718    2717    2718    2718       0    2720    2721
    2722    2721    2722    2722       0    2724    2725    2726    2725    2726
    2726       0    2728    2729    2730    2729    2730    2730       0    2732
    2733    2734    2733    2734    2734       0    2736    2737    2738    2737
    2738    2738       0    2740    2741    2742    2741    2742    2742       0
    2744    2745    2746    2745    2746    2746       0    2748    2749    2750
    2749    2750    2750       0    2752    2753    2754    2753    2754    2754
       0    2756    2757    2758    2757    2758    2758       0    2760    2761
    2762    2761    2762    2762       0    2764    2765    2766    2765    2766
    2766       0    2768    2769    2770    2769    2770    2770       0    2772
    2773    2774    2773    2774    2774       0    2776    2777    2778    2777
    2778    2778       0    2780    2781    2782    2781    2782    2782       0
    2784    2785    2786    2785    2786    2786       0    2788    2789    2790
    2789    2790    2790       0    2792    2793    2794    2793    2794    2794
       0    2796    2797    2798    2797    2798    2798       0    2800    2801
    2802    2801    2802    2802       0    2804    2805    2806    2805    2806
    2806       0    2808    2809    2810    2809    2810    2810       0    2812
    2813    2814    2813    2814    2814       0    2816    2817    2818    2817
    2818    2818       0    2820    2821    2822    2821    2822    2822       0
    2824    2825    2826    2825    2826    2826       0    2828    2829    2830
    2829    2830    2830       0    2832    2833    2834    2833    2834    2834
       0    2836    2837    2838    2837    2838    2838       0    2840    2841
    2842    2841    2842    2842       0    2844    2845    2846    2845    2846
    2846       0    2848    2849    2850    2849    2850    2850       0    2852
    2853    2854    2853    2854    2854       0    2856    2857    2858    2857
    2858    2858       0    2860    2861    2862    2861    2862    2862       0
    2864    2865    2866    2865    2866    2866       0    2868    2869    2870
    2869    2870    2870       0    2872    2873    2874    2873    2874    2874
       0    2876    2877    2878    2877    2878    2878       0    2880    2881
    2882    2881    2882    2882       0    2884    2885    2886    2885    2886
    2886       0    2888    2889    2890    2889    2890    2890       0    2892
    2893    2894    2893    2894    2894       0    2896    2897    2898    2897
    2898    2898       0    2900    2901    2902    2901    2902    2902       0
    2904    2905    2906    2905    2906    2906       0    2908    2909    2910
    2909    2910    2910       0    2912    2913    2914    2913    2914    2914
       0    2916    2917    2918    2917    2918    2918       0    2920    2921
    2922    2921    2922    2922       0    2924    2925    2926    2925    2926
    2926       0    2928    2929    2930    2929    2930    2930       0    2932
    2933    2934    2933    2934    2934       0    2936    2937    2938    2937
    2938    2938       0    2940    2941    2942    2941    2942    2942       0
    2944    2945    2946    2945    2946    2946       0    2948    2949    2950
    2949    2950    2950       0    2952    2953    2954    2953    2954    2954
       0    2956    2957    2958    2957    2958    2958       0    2960    2961
    2962    2961    2962    2962       0    2964    2965    2966    2965    2966
    2966       0    2968    2969    2970    2969    2970    2970       0    2972
    2973    2974    2973    2974    2974       0    2976    2977    2978    2977
    2978    2978       0    2980    2981    2982    2981    2982    2982       0
    2984    2985    2986    2985    2986    2986       0    2988    2989    2990
    2989    2990    2990       0    2992    2993    2994    2993    2994    2994
       0    2996    2997    2998    2997    2998    2998       0    3000    3001
    3002    3001    3002    3002       0    3004    3005    3006    3005    3006
    3006       0    3008    3009    3010    3009    3010    3010       0    3012
    3013    3014    3013    3014    3014       0    3016    3017    3018    3017
    3018    3018       0    3020    3021    3022    3021    3022    3022       0
    3024    3025    3026    3025    3026    3026       0    3028    3029    3030
    3029    3030    3030       0    3032    3033    3034    3033    3034    3034
       0    3036    3037    3038    3037    3038    3038       0    3040    3041
    3042    3041    3042    3042       0    3044    3045    3046    3045    3046
    3046       0    3048    3049    3050    3049    3050    3050       0    3052
    3053    3054    3053    3054    3054       0    3056    3057    3058    3057
    3058    3058       0    3060    3061    3062    3061    3062    3062       0
    3064    3065    3066    3065    3066    3066       0    3068    3069    3070
    3069    3070    3070       0    3072    3073    3074    3073    3074    3074
       0    3076    3077    3078    3077    3078    3078       0    3080    3081
    3082    3081    3082    3082       0    3084    3085    3086    3085    3086
    3086       0    3088    3089    3090    3089    3090    3090       0    3092
    3093    3094    3093    3094    3094       0    3096    3097    3098    3097
    3098    3098       0    3100    3101    3102    3101    3102    3102       0
    3104    3105    3106    3105    3106    3106       0    3108    3109    3110
    3109    3110    3110       0    3112    3113    3114    3113    3114    3114
       0    3116    3117    3118    3117    3118    3118       0    3120    3121
    3122    3121    3122    3122       0    3124    3125    3126    3125    3126
    3126       0    3128    3129    3130    3129    3130    3130       0    3132
    3133    3134    3133    3134    3134       0    3136    3137    3138    3137
    3138    3138       0    3140    3141    3142    3141    3142    3142       0
    3144    3145    3146    3145    3146    3146       0    3148    3149    3150
    3149    3150    3150       0    3152    3153    3154    3153    3154    3154
       0    3156    3157    3158    3157    3158    3158       0    3160    3161
    3162    3161    3162    3162       0    3164    3165    3166    3165    3166
    3166       0    3168    3169    3170    3169    3170    3170       0    3172
    3173    3174    3173    3174    3174       0    3176    3177    3178    3177
    3178    3178       0    3180    3181    3182    3181    3182    3182       0
    3184    3185    3186    3185    3186    3186       0    3188    3189    3190
    3189    3190    3190       0    3192    3193    3194    3193    3194    3194
       0    3196    3197    3198    3197    3198    3198       0    3200    3201
    3202    3201    3202    3202       0    3204    3205    3206    3205    3206
    3206       0    3208    3209    3210    3209    3210    3210       0    3212
    3213    3214    3213    3214    3214       0    3216    3217    3218    3217
    3218    3218       0    3220    3221    3222    3221    3222    3222       0
    3224    3225    3226    3225    3226    3226       0    3228    3229    3230
    3229    3230    3230       0    3232    3233    3234    3233    3234    3234
       0    3236    3237    3238    3237    3238    3238       0    3240    3241
    3242    3241    3242    3242       0    3244    3245    3246    3245    3246
    3246       0    3248    3249    3250    3249    3250    3250       0    3252
    3253    3254    3253    3254    3254       0    3256    3257    3258    3257
    3258    3258       0    3260    3261    3262    3261    3262    3262       0
    3264    3265    3266    3265    3266    3266       0    3268    3269    3270
    3269    3270    3270       0    3272    3273    3274    3273    3274    3274
       0    3276    3277    3278    3277    3278    3278       0    3280    3281
    3282    3281    3282    3282       0    3284    3285    3286    3285    3286
    3286       0    3288    3289    3290    3289    3290    3290       0    3292
    3293    3294    3293    3294    3294       0    3296    3297    3298    3297
    3298    3298       0    3300    3301    3302    3301    3302    3302       0
    3304    3305    3306    3305    3306    3306       0    3308    3309    3310
    3309    3310    3310       0    3312    3313    3314    3313    3314    3314
       0    3316    3317    3318    3317    3318    3318       0    3320    3321
    3322    3321    3322    3322       0    3324    3325    3326    3325    3326
    3326       0    3328    3329    3330    3329    3330    3330       0    3332
    3333    3334    3333    3334    3334       0    3336    3337    3338    3337
    3338    3338       0    3340    3341    3342    3341    3342    3342       0
    3344    3345    3346    3345    3346    3346       0    3348    3349    3350
    3349    3350    3350       0    3352    3353    3354    3353    3354    3354
       0    3356    3357    3358    3357    3358    3358       0    3360    3361
    3362    3361    3362    3362       0    3364    3365    3366    3365    3366
    3366       0    3368    3369    3370    3369    3370    3370       0    3372
    3373    3374    3373    3374    3374       0    3376    3377    3378    3377
    3378    3378       0    3380    3381    3382    3381    3382    3382       0
    3384    3385    3386    3385    3386    3386       0    3388    3389    3390
    3389    3390    3390       0    3392    3393    3394    3393    3394    3394
       0    3396    3397    3398    3397    3398    3398       0    3400    3401
    3402    3401    3402    3402       0    3404    3405    3406    3405    3406
    3406       0    3408    3409    3410    3409    3410    3410       0    3412
    3413    3414    3413    3414    3414       0    3416    3417    3418    3417
    3418    3418       0    3420    3421    3422    3421    3422    3422       0
    3424    3425    3426    3425    3426    3426       0    3428    3429    3430
    3429    3430    3430       0    3432    3433    3434    3433    3434    3434
       0    3436    3437    3438    3437    3438    3438       0    3440    3441
    3442    3441    3442    3442       0    3444    3445    3446    3445    3446
    3446       0    3448    3449    3450    3449    3450    3450       0    3452
    3453    3454    3453    3454    3454       0    3456    3457    3458    3457
    3458    3458       0    3460    3461    3462    3461    3462    3462       0
    3464    3465    3466    3465    3466    3466       0    3468    3469    3470
    3469    3470    3470       0    3472    3473    3474    3473    3474    3474
       0    3476    3477    3478    3477    3478    3478       0    3480    3481
    3482    3481    3482    3482       0    3484    3485    3486    3485    3486
    3486       0    3488    3489    3490    3489    3490    3490       0    3492
    3493    3494    3493    3494    3494       0    3496    3497    3498    3497
    3498    3498       0    3500    3501    3502    3501    3502    3502       0
    3504    3505    3506    3505    3506    3506       0    3508    3509    3510
    3509    3510    3510       0    3512    3513    3514    3513    3514    3514
       0    3516    3517    3518    3517    3518    3518       0    3520    3521
    3522    3521    3522    3522       0    3524    3525    3526    3525    3526
    3526       0    3528    3529    3530    3529    3530    3530       0    3532
    3533    3534    3533    3534    3534       0    3536    3537    3538    3537
    3538    3538       0    3540    3541    3542    3541    3542    3542       0
    3544    3545    3546    3545    3546    3546       0    3548    3549    3550
    3549    3550    3550       0    3552    3553    3554    3553    3554    3554
       0    3556    3557    3558    3557    3558    3558       0    3560    3561
    3562    3561    3562    3562       0    3564    3565    3566    3565    3566
    3566       0    3568    3569    3570    3569    3570    3570       0    3572
    3573    3574    3573    3574    3574       0    3576    3577    3578    3577
    3578    3578       0    3580    3581    3582    3581    3582    3582       0
    3584    3585    3586    3585    3586    3586       0    3588    3589    3590
    3589    3590    3590       0    3592    3593    3594    3593    3594    3594
       0    3596    3597    3598    3597    3598    3598       0    3600    3601
    3602    3601    3602    3602       0    3604    3605    3606    3605    3606
    3606       0    3608    3609    3610    3609    3610    3610       0    3612
    3613    3614    3613    3614    3614       0    3616    3617    3618    3617
    3618    3618       0    3620    3621    3622    3621    3622    3622       0
    3624    3625    3626    3625    3626    3626       0    3628    3629    3630
    3629    3630    3630       0    3632    3633    3634    3633    3634    3634
       0    3636    3637    3638    3637    3638    3638       0    3640    3641
    3642    3641    3642    3642       0    3644    3645    3646    3645    3646
    3646       0    3648    3649    3650    3649    3650    3650       0    3652
    3653    3654    3653    3654    3654       0    3656    3657    3658    3657
    3658    3658       0    3660    3661    3662    3661    3662    3662       0
    3664    3665    3666    3665    3666    3666       0    3668    3669    3670
    3669    3670    3670       0    3672    3673    3674    3673    3674    3674
       0    3676    3677    3678    3677    3678    3678       0    3680    3681
    3682    3681    3682    3682       0    3684    3685    3686    3685    3686
    3686       0    3688    3689    3690    3689    3690    3690       0    3692
    3693    3694    3693    3694    3694       0    3696    3697    3698    3697
    3698    3698       0    3700    3701    3702    3701    3702    3702       0
    3704    3705    3706    3705    3706    3706       0    3708    3709    3710
    3709    3710    3710       0    3712    3713    3714    3713    3714    3714
       0    3716    3717    3718    3717    3718    3718       0    3720    3721
    3722    3721    3722    3722       0    3724    3725    3726    3725    3726
    3726       0    3728    3729    3730    3729    3730    3730       0    3732
    3733    3734    3733    3734    3734       0    3736    3737    3738    3737
    3738    3738       0    3740    3741    3742    3741    3742    3742       0
    3744    3745    3746    3745    3746    3746       0    3748    3749    3750
    3749    3750    3750       0    3752    3753    3754    3753    3754    3754
       0    3756    3757    3758    3757    3758    3758       0    3760    3761
    3762    3761    3762    3762       0    3764    3765    3766    3765    3766
    3766       0    3768    3769    3770    3769    3770    3770       0    3772
    3773    3774    3773    3774    3774       0    3776    3777    3778    3777
    3778    3778       0    3780    3781    3782    3781    3782    3782       0
    3784    3785    3786    3785    3786    3786       0    3788    3789    3790
    3789    3790    3790       0    3792    3793    3794    3793    3794    3794
       0    3796    3797    3798    3797    3798    3798       0    3800    3801
    3802    3801    3802    3802       0    3804    3805    3806    3805    3806
    3806       0    3808    3809    3810    3809    3810    3810       0    3812
    3813    3814    3813    3814    3814       0    3816    3817    3818    3817
    3818    3818       0    3820    3821    3822    3821    3822    3822       0
    3824    3825    3826    3825    3826    3826       0    3828    3829    3830
    3829    3830    3830       0    3832    3833    3834    3833    3834    3834
       0    3836    3837    3838    3837    3838    3838       0    3840    3841
    3842    3841    3842    3842       0    3844    3845    3846    3845    3846
    3846       0    3848    3849    3850    3849    3850    3850       0    3852
    3853    3854    3853    3854    3854       0    3856    3857    3858    3857
    3858    3858       0    3860    3861    3862    3861    3862    3862       0
    3864    3865    3866    3865    3866    3866       0    3868    3869    3870
    3869    3870    3870       0    3872    3873    3874    3873    3874    3874
       0    3876    3877    3878    3877    3878    3878       0    3880    3881
    3882    3881    3882    3882       0    3884    3885    3886    3885    3886
    3886       0    3888    3889    3890    3889    3890    3890       0    3892
    3893    3894    3893    3894    3894       0    3896    3897    3898    3897
    3898    3898       0    3900    3901    3902    3901    3902    3902       0
    3904    3905    3906    3905    3906    3906       0    3908    3909    3910
    3909    3910    3910       0    3912    3913    3914    3913    3914    3914
       0    3916    3917    3918    3917    3918    3918       0    3920    3921
    3922    3921    3922    3922       0    3924    3925    3926    3925    3926
    3926       0    3928    3929    3930    3929    3930    3930       0    3932
    3933    3934    3933    3934    3934       0    3936    3937    3938    3937
    3938    3938       0    3940    3941    3942    3941    3942    3942       0
    3944    3945    3946    3945    3946    3946       0    3948    3949    3950
    3949    3950    3950       0    3952    3953    3954    3953    3954    3954
       0    3956    3957    3958    3957    3958    3958       0    3960    3961
    3962    3961    3962    3962       0    3964    3965    3966    3965    3966
    3966       0    3968    3969    3970    3969    3970    3970       0    3972
    3973    3974    3973    3974    3974       0    3976    3977    3978    3977
    3978    3978       0    3980    3981    3982    3981    3982    3982       0
    3984    3985    3986    3985    3986    3986       0    3988    3989    3990
    3989    3990    3990       0    3992    3993    3994    3993    3994    3994
       0    3996    3997    3998    3997    3998    3998       0    4000    4001
    4002    4001    4002    4002       0    4004    4005    4006    4005    4006
    4006       0    4008    4009    4010    4009    4010    4010       0    4012
    4013    4014    4013    4014    4014       0    4016    4017    4018    4017
    4018    4018       0    4020    4021    4022    4021    4022    4022       0
    4024    4025    4026    4025    4026    4026       0    4028    4029    4030
    4029    4030    4030       0    4032    4033    4034    4033    4034    4034
       0    4036    4037    4038    4037    4038    4038       0    4040    4041
    4042    4041    4042    4042       0    4044    4045    4046    4045    4046
    4046       0    4048    4049    4050    4049    4050    4050       0    4052
    4053    4054    4053    4054    4054       0    4056    4057    4058    4057
    4058    4058       0    4060    4061    4062    4061    4062    4062       0
    4064    4065    4066    4065    4066    4066       0    4068    4069    4070
    4069    4070    4070       0    4072    4073    4074    4073    4074    4074
       0    4076    4077    4078    4077    4078    4078       0    4080    4081
    4082    4081    4082    4082       0    4084    4085    4086    4085    4086
    4086       0    4088    4089    4090    4089    4090    4090       0    4092
    4093    4094    4093    4094    4094       0    4096    4097    4098    4097
    4098    4098       0    4100    4101    4102    4101    4102    4102       0
    4104    4105    4106    4105    4106    4106       0    4108    4109    4110
    4109    4110    4110       0    4112    4113    4114    4113    4114    4114
       0    4116    4117    4118    4117    4118    4118       0    4120    4121
    4122    4121    4122    4122       0    4124    4125    4126    4125    4126
    4126       0    4128    4129    4130    4129    4130    4130       0    4132
    4133    4134    4133    4134    4134       0    4136    4137    4138    4137
    4138    4138       0    4140    4141    4142    4141    4142    4142       0
    4144    4145    4146    4145    4146    4146       0    4148    4149    4150
    4149    4150    4150       0    4152    4153    4154    4153    4154    4154
       0    4156    4157    4158    4157    4158    4158       0    4160    4161
    4162    4161    4162    4162       0    4164    4165    4166    4165    4166
    4166       0    4168    4169    4170    4169    4170    4170       0    4172
    4173    4174    4173    4174    4174       0    4176    4177    4178    4177
    4178    4178       0    4180    4181    4182    4181    4182    4182       0
    4184    4185    4186    4185    4186    4186       0    4188    4189    4190
    4189    4190    4190       0    4192    4193    4194    4193    4194    4194
       0    4196    4197    4198    4197    4198    4198       0    4200    4201
    4202    4201    4202    4202       0    4204    4205    4206    4205    4206
    4206       0    4208    4209    4210    4209    4210    4210       0    4212
    4213    4214    4213    4214    4214       0    4216    4217    4218    4217
    4218    4218       0    4220    4221    4222    4221    4222    4222       0
    4224    4225    4226    4225    4226    4226       0    4228    4229    4230
    4229    4230    4230       0    4232    4233    4234    4233    4234    4234
       0    4236    4237    4238    4237    4238    4238       0    4240    4241
    4242    4241    4242    4242       0    4244    4245    4246    4245    4246
    4246       0    4248    4249    4250    4249    4250    4250       0    4252
    4253    4254    4253    4254    4254       0    4256    4257    4258    4257
    4258    4258       0    4260    4261    4262    4261    4262    4262       0
    4264    4265    4266    4265    4266    4266       0    4268    4269    4270
    4269    4270    4270       0    4272    4273    4274    4273    4274    4274
       0    4276    4277    4278    4277    4278    4278       0    4280    4281
    4282    4281    4282    4282       0    4284    4285    4286    4285    4286
    4286       0    4288    4289    4290    4289    4290    4290       0    4292
    4293    4294    4293    4294    4294       0    4296    4297    4298    4297
    4298    4298       0    4300    4301    4302    4301    4302    4302       0
    4304    4305    4306    4305    4306    4306       0    4308    4309    4310
    4309    4310    4310       0    4312    4313    4314    4313    4314    4314
       0    4316    4317    4318    4317    4318    4318       0    4320    4321
    4322    4321    4322    4322       0    4324    4325    4326    4325    4326
    4326       0    4328    4329    4330    4329    4330    4330       0    4332
    4333    4334    4333    4334    4334       0    4336    4337    4338    4337
    4338    4338       0    4340    4341    4342    4341    4342    4342       0
    4344    4345    4346    4345    4346    4346       0    4348    4349    4350
    4349    4350    4350       0    4352    4353    4354    4353    4354    4354
       0    4356    4357    4358    4357    4358    4358       0    4360    4361
    4362    4361    4362    4362       0    4364    4365    4366    4365    4366
    4366       0    4368    4369    4370    4369    4370    4370       0    4372
    4373    4374    4373    4374    4374       0    4376    4377    4378    4377
    4378    4378       0    4380    4381    4382    4381    4382    4382       0
    4384    4385    4386    4385    4386    4386       0    4388    4389    4390
    4389    4390    4390       0    4392    4393    4394    4393    4394    4394
       0    4396    4397    4398    4397    4398    4398       0    4400    4401
    4402    4401    4402    4402       0    4404    4405    4406    4405    4406
    4406       0    4408    4409    4410    4409    4410    4410       0    4412
    4413    4414    4413    4414    4414       0    4416    4417    4418    4417
    4418    4418       0    4420    4421    4422    4421    4422    4422       0
    4424    4425    4426    4425    4426    4426       0    4428    4429    4430
    4429    4430    4430       0    4432    4433    4434    4433    4434    4434
       0    4436    4437    4438    4437    4438    4438       0    4440    4441
    4442    4441    4442    4442       0    4444    4445    4446    4445    4446
    4446       0    4448    4449    4450    4449    4450    4450       0    4452
    4453    4454    4453    4454    4454       0    4456    4457    4458    4457
    4458    4458       0    4460    4461    4462    4461    4462    4462       0
    4464    4465    4466    4465    4466    4466       0    4468    4469    4470
    4469    4470    4470       0    4472    4473    4474    4473    4474    4474
       0    4476    4477    4478    4477    4478    4478       0    4480    4481
    4482    4481    4482    4482       0    4484    4485    4486    4485    4486
    4486       0    4488    4489    4490    4489    4490    4490       0    4492
    4493    4494    4493    4494    4494       0    4496    4497    4498    4497
    4498    4498       0    4500    4501    4502    4501    4502    4502       0
    4504    4505    4506    4505    4506    4506       0    4508    4509    4510
    4509    4510    4510       0    4512    4513    4514    4513    4514    4514
       0    4516    4517    4518    4517    4518    4518       0    4520    4521
    4522    4521    4522    4522       0    4524    4525    4526    4525    4526
    4526       0    4528    4529    4530    4529    4530    4530       0    4532
    4533    4534    4533    4534    4534       0    4536    4537    4538    4537
    4538    4538       0    4540    4541    4542    4541    4542    4542       0
    4544    4545    4546    4545    4546    4546       0    4548    4549    4550
    4549    4550    4550       0    4552    4553    4554    4553    4554    4554
       0    4556    4557    4558    4557    4558    4558       0    4560    4561
    4562    4561    4562    4562       0    4564    4565    4566    4565    4566
    4566       0    4568    4569    4570    4569    4570    4570       0    4572
    4573    4574    4573    4574    4574       0    4576    4577    4578    4577
    4578    4578       0    4580    4581    4582    4581    4582    4582       0
    4584    4585    4586    4585    4586    4586       0    4588    4589    4590
    4589    4590    4590       0    4592    4593    4594    4593    4594    4594
       0    4596    4597    4598    4597    4598    4598       0    4600    4601
    4602    4601    4602    4602       0    4604    4605    4606    4605    4606
    4606       0    4608    4609    4610    4609    4610    4610       0    4612
    4613    4614    4613    4614    4614       0    4616    4617    4618    4617
    4618    4618       0    4620    4621    4622    4621    4622    4622       0
    4624    4625    4626    4625    4626    4626       0    4628    4629    4630
    4629    4630    4630       0    4632    4633    4634    4633    4634    4634
       0    4636    4637    4638    4637    4638    4638       0    4640    4641
    4642    4641    4642    4642       0    4644    4645    4646    4645    4646
    4646       0    4648    4649    4650    4649    4650    4650       0    4652
    4653    4654    4653    4654    4654       0    4656    4657    4658    4657
    4658    4658       0    4660    4661    4662    4661    4662    4662       0
    4664    4665    4666    4665    4666    4666       0    4668    4669    4670
    4669    4670    4670       0    4672    4673    4674    4673    4674    4674
       0    4676    4677    4678    4677    4678    4678       0    4680    4681
    4682    4681    4682    4682       0    4684    4685    4686    4685    4686
    4686       0    4688    4689    4690    4689    4690    4690       0    4692
    4693    4694    4693    4694    4694       0    4696    4697    4698    4697
    4698    4698       0    4700    4701    4702    4701    4702    4702       0
    4704    4705    4706    4705    4706    4706       0    4708    4709    4710
    4709    4710    4710       0    4712    4713    4714    4713    4714    4714
       0    4716    4717    4718    4717    4718    4718       0    4720    4721
    4722    4721    4722    4722       0    4724    4725    4726    4725    4726
    4726       0    4728    4729    4730    4729    4730    4730       0    4732
    4733    4734    4733    4734    4734       0    4736    4737    4738    4737
    4738    4738       0    4740    4741    4742    4741    4742    4742       0
    4744    4745    4746    4745    4746    4746       0    4748    4749    4750
    4749    4750    4750       0    4752    4753    4754    4753    4754    4754
       0    4756    4757    4758    4757    4758    4758       0    4760    4761
    4762    4761    4762    4762       0    4764    4765    4766    4765    4766
    4766       0    4768    4769    4770    4769    4770    4770       0    4772
    4773    4774    4773    4774    4774       0    4776    4777    4778    4777
    4778    4778       0    4780    4781    4782    4781    4782    4782       0
    4784    4785    4786    4785    4786    4786       0    4788    4789    4790
    4789    4790    4790       0    4792    4793    4794    4793    4794    4794
       0    4796    4797    4798    4797    4798    4798       0    4800    4801
    4802    4801    4802    4802       0    4804    4805    4806    4805    4806
    4806       0    4808    4809    4810    4809    4810    4810       0    4812
    4813    4814    4813    4814    4814       0    4816    4817    4818    4817
    4818    4818       0    4820    4821    4822    4821    4822    4822       0
    4824    4825    4826    4825    4826    4826       0    4828    4829    4830
    4829    4830    4830       0    4832    4833    4834    4833    4834    4834
       0    4836    4837    4838    4837    4838    4838       0    4840    4841
    4842    4841    4842    4842       0    4844    4845    4846    4845    4846
    4846       0    4848    4849    4850    4849    4850    4850       0    4852
    4853    4854    4853    4854    4854       0    4856    4857    4858    4857
    4858    4858       0    4860    4861    4862    4861    4862    4862       0
    4864    4865    4866    4865    4866    4866       0    4868    4869    4870
    4869    4870    4870       0    4872    4873    4874    4873    4874    4874
       0    4876    4877    4878    4877    4878    4878       0    4880    4881
    4882    4881    4882    4882       0    4884    4885    4886    4885    4886
    4886       0    4888    4889    4890    4889    4890    4890       0    4892
    4893    4894    4893    4894    4894       0    4896    4897    4898    4897
    4898    4898       0    4900    4901    4902    4901    4902    4902       0
    4904    4905    4906    4905    4906    4906       0    4908    4909    4910
    4909    4910    4910       0    4912    4913    4914    4913    4914    4914
       0    4916    4917    4918    4917    4918    4918       0    4920    4921
    4922    4921    4922    4922       0    4924    4925    4926    4925    4926
    4926       0    4928    4929    4930    4929    4930    4930       0    4932
    4933    4934    4933    4934    4934       0    4936    4937    4938    4937
    4938    4938       0    4940    4941    4942    4941    4942    4942       0
    4944    4945    4946    4945    4946    4946       0    4948    4949    4950
    4949    4950    4950       0    4952    4953    4954    4953    4954    4954
       0    4956    4957    4958    4957    4958    4958       0    4960    4961
    4962    4961    4962    4962       0    4964    4965    4966    4965    4966
    4966       0    4968    4969    4970    4969    4970    4970       0    4972
    4973    4974    4973    4974    4974       0    4976    4977    4978    4977
    4978    4978       0    4980    4981    4982    4981    4982    4982       0
    4984    4985    4986    4985    4986    4986       0    4988    4989    4990
    4989    4990    4990       0    4992    4993    4994    4993    4994    4994
       0    4996    4997    4998    4997    4998    4998       0    5000    5001
    5002    5001    5002    5002       0    5004    5005    5006    5005    5006
    5006       0    5008    5009    5010    5009    5010    5010       0    5012
    5013    5014    5013    5014    5014       0    5016    5017    5018    5017
    5018    5018       0    5020    5021    5022    5021    5022    5022       0
    5024    5025    5026    5025    5026    5026       0    5028    5029    5030
    5029    5030    5030       0    5032    5033    5034    5033    5034    5034
       0    5036    5037    5038    5037    5038    5038       0    5040    5041
    5042    5041    5042    5042       0    5044    5045    5046    5045    5046
    5046       0    5048    5049    5050    5049    5050    5050       0    5052
    5053    5054    5053    5054    5054       0    5056    5057    5058    5057
    5058    5058       0    5060    5061    5062    5061    5062    5062       0
    5064    5065    5066    5065    5066    5066       0    5068    5069    5070
    5069    5070    5070       0    5072    5073    5074    5073    5074    5074
       0    5076    5077    5078    5077    5078    5078       0    5080    5081
    5082    5081    5082    5082       0    5084    5085    5086    5085    5086
    5086       0    5088    5089    5090    5089    5090    5090       0    5092
    5093    5094    5093    5094    5094       0    5096    5097    5098    5097
    5098    5098       0    5100    5101    5102    5101    5102    5102       0
    5104    5105    5106    5105    5106    5106       0    5108    5109    5110
    5109    5110    5110       0    5112    5113    5114    5113    5114    5114
       0    5116    5117    5118    5117    5118    5118       0    5120    5121
    5122    5121    5122    5122       0    5124    5125    5126    5125    5126
    5126       0    5128    5129    5130    5129    5130    5130       0    5132
    5133    5134    5133    5134    5134       0    5136    5137    5138    5137
    5138    5138       0    5140    5141    5142    5141    5142    5142       0
    5144    5145    5146    5145    5146    5146       0    5148    5149    5150
    5149    5150    5150       0    5152    5153    5154    5153    5154    5154
       0    5156    5157    5158    5157    5158    5158       0    5160    5161
    5162    5161    5162    5162       0    5164    5165    5166    5165    5166
    5166       0    5168    5169    5170    5169    5170    5170       0    5172
    5173    5174    5173    5174    5174       0    5176    5177    5178    5177
    5178    5178       0    5180    5181    5182    5181    5182    5182       0
    5184    5185    5186    5185    5186    5186       0    5188    5189    5190
    5189    5190    5190       0    5192    5193    5194    5193    5194    5194
       0    5196    5197    5198    5197    5198    5198       0    5200    5201
    5202    5201    5202    5202       0    5204    5205    5206    5205    5206
    5206       0    5208    5209    5210    5209    5210    5210       0    5212
    5213    5214    5213    5214    5214       0    5216    5217    5218    5217
    5218    5218       0    5220    5221    5222    5221    5222    5222       0
    5224    5225    5226    5225    5226    5226       0    5228    5229    5230
    5229    5230    5230       0    5232    5233    5234    5233    5234    5234
       0    5236    5237    5238    5237    5238    5238       0    5240    5241
    5242    5241    5242    5242       0    5244    5245    5246    5245    5246
    5246       0    5248    5249    5250    5249    5250    5250       0    5252
    5253    5254    5253    5254    5254       0    5256    5257    5258    5257
    5258    5258       0    5260    5261    5262    5261    5262    5262       0
    5264    5265    5266    5265    5266    5266       0    5268    5269    5270
    5269    5270    5270       0    5272    5273    5274    5273    5274    5274
       0    5276    5277    5278    5277    5278    5278       0    5280    5281
    5282    5281    5282    5282       0    5284    5285    5286    5285    5286
    5286       0    5288    5289    5290    5289    5290    5290       0    5292
    5293    5294    5293    5294    5294       0    5296    5297    5298    5297
    5298    5298       0    5300    5301    5302    5301    5302    5302       0
    5304    5305    5306    5305    5306    5306       0    5308    5309    5310
    5309    5310    5310       0    5312    5313    5314    5313    5314    5314
       0    5316    5317    5318    5317    5318    5318       0    5320    5321
    5322    5321    5322    5322       0    5324    5325    5326    5325    5326
    5326       0    5328    5329    5330    5329    5330    5330       0    5332
    5333    5334    5333    5334    5334       0    5336    5337    5338    5337
    5338    5338       0    5340    5341    5342    5341    5342    5342       0
    5344    5345    5346    5345    5346    5346       0    5348    5349    5350
    5349    5350    5350       0    5352    5353    5354    5353    5354    5354
       0    5356    5357    5358    5357    5358    5358       0    5360    5361
    5362    5361    5362    5362       0    5364    5365    5366    5365    5366
    5366       0    5368    5369    5370    5369    5370    5370       0    5372
    5373    5374    5373    5374    5374       0    5376    5377    5378    5377
    5378    5378       0    5380    5381    5382    5381    5382    5382       0
    5384    5385    5386    5385    5386    5386       0    5388    5389    5390
    5389    5390    5390       0    5392    5393    5394    5393    5394    5394
       0    5396    5397    5398    5397    5398    5398       0    5400    5401
    5402    5401    5402    5402       0    5404    5405    5406    5405    5406
    5406       0    5408    5409    5410    5409    5410    5410       0    5412
    5413    5414    5413    5414    5414       0    5416    5417    5418    5417
    5418    5418       0    5420    5421    5422    5421    5422    5422       0
    5424    5425    5426    5425    5426    5426       0    5428    5429    5430
    5429    5430    5430       0    5432    5433    5434    5433    5434    5434
       0    5436    5437    5438    5437    5438    5438       0    5440    5441
    5442    5441    5442    5442       0    5444    5445    5446    5445    5446
    5446       0    5448    5449    5450    5449    5450    5450       0    5452
    5453    5454    5453    5454    5454       0    5456    5457    5458    5457
    5458    5458       0    5460    5461    5462    5461    5462    5462       0
    5464    5465    5466    5465    5466    5466       0    5468    5469    5470
    5469    5470    5470       0    5472    5473    5474    5473    5474    5474
       0    5476    5477    5478    5477    5478    5478       0    5480    5481
    5482    5481    5482    5482       0    5484    5485    5486    5485    5486
    5486       0    5488    5489    5490    5489    5490    5490       0    5492
    5493    5494    5493    5494    5494       0    5496    5497    5498    5497
    5498    5498       0    5500    5501    5502    5501    5502    5502       0
    5504    5505    5506    5505    5506    5506       0    5508    5509    5510
    5509    5510    5510       0    5512    5513    5514    5513    5514    5514
       0    5516    5517    5518    5517    5518    5518       0    5520    5521
    5522    5521    5522    5522       0    5524    5525    5526    5525    5526
    5526       0    5528    5529    5530    5529    5530    5530       0    5532
    5533    5534    5533    5534    5534       0    5536    5537    5538    5537
    5538    5538       0    5540    5541    5542    5541    5542    5542       0
    5544    5545    5546    5545    5546    5546       0    5548    5549    5550
    5549    5550    5550       0    5552    5553    5554    5553    5554    5554
       0    5556    5557    5558    5557    5558    5558       0    5560    5561
    5562    5561    5562    5562       0    5564    5565    5566    5565    5566
    5566       0    5568    5569    5570    5569    5570    5570       0    5572
    5573    5574    5573    5574    5574       0    5576    5577    5578    5577
    5578    5578       0    5580    5581    5582    5581    5582    5582       0
    5584    5585    5586    5585    5586    5586       0    5588    5589    5590
    5589    5590    5590       0    5592    5593    5594    5593    5594    5594
       0    5596    5597    5598    5597    5598    5598       0    5600    5601
    5602    5601    5602    5602       0    5604    5605    5606    5605    5606
    5606       0    5608    5609    5610    5609    5610    5610       0    5612
    5613    5614    5613    5614    5614       0    5616    5617    5618    5617
    5618    5618       0    5620    5621    5622    5621    5622    5622       0
    5624    5625    5626    5625    5626    5626       0    5628    5629    5630
    5629    5630    5630       0    5632    5633    5634    5633    5634    5634
       0    5636    5637    5638    5637    5638    5638       0    5640    5641
    5642    5641    5642    5642       0    5644    5645    5646    5645    5646
    5646       0    5648    5649    5650    5649    5650    5650       0    5652
    5653    5654    5653    5654    5654       0    5656    5657    5658    5657
    5658    5658       0    5660    5661    5662    5661    5662    5662       0
    5664    5665    5666    5665    5666    5666       0    5668    5669    5670
    5669    5670    5670       0    5672    5673    5674    5673    5674    5674
       0    5676    5677    5678    5677    5678    5678       0    5680    5681
    5682    5681    5682    5682       0    5684    5685    5686    5685    5686
    5686       0    5688    5689    5690    5689    5690    5690       0    5692
    5693    5694    5693    5694    5694       0    5696    5697    5698    5697
    5698    5698       0    5700    5701    5702    5701    5702    5702       0
    5704    5705    5706    5705    5706    5706       0    5708    5709    5710
    5709    5710    5710       0    5712    5713    5714    5713    5714    5714
       0    5716    5717    5718    5717    5718    5718       0    5720    5721
    5722    5721    5722    5722       0    5724    5725    5726    5725    5726
    5726       0    5728    5729    5730    5729    5730    5730       0    5732
    5733    5734    5733    5734    5734       0    5736    5737    5738    5737
    5738    5738       0    5740    5741    5742    5741    5742    5742       0
    5744    5745    5746    5745    5746    5746       0    5748    5749    5750
    5749    5750    5750       0    5752    5753    5754    5753    5754    5754
       0    5756    5757    5758    5757    5758    5758       0    5760    5761
    5762    5761    5762    5762       0    5764    5765    5766    5765    5766
    5766       0    5768    5769    5770    5769    5770    5770       0    5772
    5773    5774    5773    5774    5774       0    5776    5777    5778    5777
    5778    5778       0    5780    5781    5782    5781    5782    5782       0
    5784    5785    5786    5785    5786    5786       0    5788    5789    5790
    5789    5790    5790       0    5792    5793    5794    5793    5794    5794
       0    5796    5797    5798    5797    5798    5798       0    5800    5801
    5802    5801    5802    5802       0    5804    5805    5806    5805    5806
    5806       0    5808    5809    5810    5809    5810    5810       0    5812
    5813    5814    5813    5814    5814       0    5816    5817    5818    5817
    5818    5818       0    5820    5821    5822    5821    5822    5822       0
    5824    5825    5826    5825    5826    5826       0    5828    5829    5830
    5829    5830    5830       0    5832    5833    5834    5833    5834    5834
       0    5836    5837    5838    5837    5838    5838       0    5840    5841
    5842    5841    5842    5842       0    5844    5845    5846    5845    5846
    5846       0    5848    5849    5850    5849    5850    5850       0    5852
    5853    5854    5853    5854    5854       0    5856    5857    5858    5857
    5858    5858       0    5860    5861    5862    5861    5862    5862       0
    5864    5865    5866    5865    5866    5866       0    5868    5869    5870
    5869    5870    5870       0    5872    5873    5874    5873    5874    5874
       0    5876    5877    5878    5877    5878    5878       0    5880    5881
    5882    5881    5882    5882       0    5884    5885    5886    5885    5886
    5886       0    5888    5889    5890    5889    5890    5890       0    5892
    5893    5894    5893    5894    5894       0    5896    5897    5898    5897
    5898    5898       0    5900    5901    5902    5901    5902    5902       0
    5904    5905    5906    5905    5906    5906       0    5908    5909    5910
    5909    5910    5910       0    5912    5913    5914    5913    5914    5914
       0    5916    5917    5918    5917    5918    5918       0    5920    5921
    5922    5921    5922    5922       0    5924    5925    5926    5925    5926
    5926       0    5928    5929    5930    5929    5930    5930       0    5932
    5933    5934    5933    5934    5934       0    5936    5937    5938    5937
    5938    5938       0    5940    5941    5942    5941    5942    5942       0
    5944    5945    5946    5945    5946    5946       0    5948    5949    5950
    5949    5950    5950       0    5952    5953    5954    5953    5954    5954
       0    5956    5957    5958    5957    5958    5958       0    5960    5961
    5962    5961    5962    5962       0    5964    5965    5966    5965    5966
    5966       0    5968    5969    5970    5969    5970    5970       0    5972
    5973    5974    5973    5974    5974       0    5976    5977    5978    5977
    5978    5978       0    5980    5981    5982    5981    5982    5982       0
    5984    5985    5986    5985    5986    5986       0    5988    5989    5990
    5989    5990    5990       0    5992    5993    5994    5993    5994    5994
       0    5996    5997    5998    5997    5998    5998       0    6000    6001
    6002    6001    6002    6002       0    6004    6005    6006    6005    6006
    6006       0    6008    6009    6010    6009    6010    6010       0    6012
    6013    6014    6013    6014    6014       0    6016    6017    6018    6017
    6018    6018       0    6020    6021    6022    6021    6022    6022       0
    6024    6025    6026    6025    6026    6026       0    6028    6029    6030
    6029    6030    6030       0    6032    6033    6034    6033    6034    6034
       0    6036    6037    6038    6037    6038    6038       0    6040    6041
    6042    6041    6042    6042       0    6044    6045    6046    6045    6046
    6046       0    6048    6049    6050    6049    6050    6050       0    6052
    6053    6054    6053    6054    6054       0    6056    6057    6058    6057
    6058    6058       0    6060    6061    6062    6061    6062    6062       0
    6064    6065    6066    6065    6066    6066       0    6068    6069    6070
    6069    6070    6070       0    6072    6073    6074    6073    6074    6074
       0    6076    6077    6078    6077    6078    6078       0    6080    6081
    6082    6081    6082    6082       0    6084    6085    6086    6085    6086
    6086       0    6088    6089    6090    6089    6090    6090       0    6092
    6093    6094    6093    6094    6094       0    6096    6097    6098    6097
    6098    6098       0    6100    6101    6102    6101    6102    6102       0
    6104    6105    6106    6105    6106    6106       0    6108    6109    6110
    6109    6110    6110       0    6112    6113    6114    6113    6114    6114
       0    6116    6117    6118    6117    6118    6118       0    6120    6121
    6122    6121    6122    6122       0    6124    6125    6126    6125    6126
    6126       0    6128    6129    6130    6129    6130    6130       0    6132
    6133    6134    6133    6134    6134       0    6136    6137    6138    6137
    6138    6138       0    6140    6141    6142    6141    6142    6142       0
    6144    6145    6146    6145    6146    6146       0    6148    6149    6150
    6149    6150    6150       0    6152    6153    6154    6153    6154    6154
       0    6156    6157    6158    6157    6158    6158       0    6160    6161
    6162    6161    6162    6162       0    6164    6165    6166    6165    6166
    6166       0    6168    6169    6170    6169    6170    6170       0    6172
    6173    6174    6173    6174    6174       0    6176    6177    6178    6177
    6178    6178       0    6180    6181    6182    6181    6182    6182       0
    6184    6185    6186    6185    6186    6186       0    6188    6189    6190
    6189    6190    6190       0    6192    6193    6194    6193    6194    6194
       0    6196    6197    6198    6197    6198    6198       0    6200    6201
    6202    6201    6202    6202       0    6204    6205    6206    6205    6206
    6206       0    6208    6209    6210    6209    6210    6210       0    6212
    6213    6214    6213    6214    6214       0    6216    6217    6218    6217
    6218    6218       0    6220    6221    6222    6221    6222    6222       0
    6224    6225    6226    6225    6226    6226       0    6228    6229    6230
    6229    6230    6230       0    6232    6233    6234    6233    6234    6234
       0    6236    6237    6238    6237    6238    6238       0    6240    6241
    6242    6241    6242    6242       0    6244    6245    6246    6245    6246
    6246       0    6248    6249    6250    6249    6250    6250       0    6252
    6253    6254    6253    6254    6254       0    6256    6257    6258    6257
    6258    6258       0    6260    6261    6262    6261    6262    6262       0
    6264    6265    6266    6265    6266    6266       0    6268    6269    6270
    6269    6270    6270       0    6272    6273    6274    6273    6274    6274
       0    6276    6277    6278    6277    6278    6278       0    6280    6281
    6282    6281    6282    6282       0    6284    6285    6286    6285    6286
    6286       0    6288    6289    6290    6289    6290    6290       0    6292
    6293    6294    6293    6294    6294       0    6296    6297    6298    6297
    6298    6298       0    6300    6301    6302    6301    6302    6302       0
    6304    6305    6306    6305    6306    6306       0    6308    6309    6310
    6309    6310    6310       0    6312    6313    6314    6313    6314    6314
       0    6316    6317    6318    6317    6318    6318       0    6320    6321
    6322    6321    6322    6322       0    6324    6325    6326    6325    6326
    6326       0    6328    6329    6330    6329    6330    6330       0    6332
    6333    6334    6333    6334    6334       0    6336    6337    6338    6337
    6338    6338       0    6340    6341    6342    6341    6342    6342       0
    6344    6345    6346    6345    6346    6346       0    6348    6349    6350
    6349    6350    6350       0    6352    6353    6354    6353    6354    6354
       0    6356    6357    6358    6357    6358    6358       0    6360    6361
    6362    6361    6362    6362       0    6364    6365    6366    6365    6366
    6366       0    6368    6369    6370    6369    6370    6370       0    6372
    6373    6374    6373    6374    6374       0    6376    6377    6378    6377
    6378    6378       0    6380    6381    6382    6381    6382    6382       0
    6384    6385    6386    6385    6386    6386       0
%FLAG HBOND_ACOEF                                                               
%FORMAT(5E16.8)                                                                 

%FLAG HBOND_BCOEF                                                               
%FORMAT(5E16.8)                                                                 

%FLAG HBCUT                                                                     
%FORMAT(5E16.8)                                                                 

%FLAG AMBER_ATOM_TYPE                                                           
%FORMAT(20a4)                                                                   
HC  CT  HC  HC  C   O   N   H   XC  H1  CT  HC  HC  HC  C   O   N   H   XC  H1  
CT  HC  HC  HC  C   O   N   H   XC  H1  CT  HC  HC  HC  C   O   N   H   CT  H1  
H1  H1  OW  HW  HW  EP  OW  HW  HW  EP  OW  HW  HW  EP  OW  HW  HW  EP  OW  HW  
HW  EP  OW  HW  HW  EP  OW  HW  HW  EP  OW  HW  HW  EP  OW  HW  HW  EP  OW  HW  
HW  EP  OW  HW  HW  EP  OW  HW  HW  EP  OW  HW  HW  EP  OW  HW  HW  EP  OW  HW  
HW  EP  OW  HW  HW  EP  OW  HW  HW  EP  OW  HW  HW  EP  OW  HW  HW  EP  OW  HW  
HW  EP  OW  HW  HW  EP  OW  HW  HW  EP  OW  HW  HW  EP  OW  HW  HW  EP  OW  HW  
HW  EP  OW  HW  HW  EP  OW  HW  HW  EP  OW  HW  HW  EP  OW  HW  HW  EP  OW  HW  
HW  EP  OW  HW  HW  EP  OW  HW  HW  EP  OW  HW  HW  EP  OW  HW  HW  EP  OW  HW  
HW  EP  OW  HW  HW  EP  OW  HW  HW  EP  OW  HW  HW  EP  OW  HW  HW  EP  OW  HW  
HW  EP  OW  HW  HW  EP  OW  HW  HW  EP  OW  HW  HW  EP  OW  HW  HW  EP  OW  HW  
HW  EP  OW  HW  HW  EP  OW  HW  HW  EP  OW  HW  HW  EP  OW  HW  HW  EP  OW  HW  
HW  EP  OW  HW  HW  EP  OW  HW  HW  EP  OW  HW  HW  EP  OW  HW  HW  EP  OW  HW  
HW  EP  OW  HW  HW  EP  OW  HW  HW  EP  OW  HW  HW  EP  OW  HW  HW  EP  OW  HW  
HW  EP  OW  HW  HW  EP  OW  HW  HW  EP  OW  HW  HW  EP  OW  HW  HW  EP  OW  HW  
HW  EP  OW  HW  HW  EP  OW  HW  HW  EP  OW  HW  HW  EP  OW  HW  HW  EP  OW  HW  
HW  EP  OW  HW  HW  EP  OW  HW  HW  EP  OW  HW  HW  EP  OW  HW  HW  EP  OW  HW  
HW  EP  OW  HW  HW  EP  OW  HW  HW  EP  OW  HW  HW  EP  OW  HW  HW  EP  OW  HW  
HW  EP  OW  HW  HW  EP  OW  HW  HW  EP  OW  HW  HW  EP  OW  HW  HW  EP  OW  HW  
HW  EP  OW  HW  HW  EP  OW  HW  HW  EP  OW  HW  HW  EP  OW  HW  HW  EP  OW  HW  
HW  EP  OW  HW  HW  EP  OW  HW  HW  EP  OW  HW  HW  EP  OW  HW  HW  EP  OW  HW  
HW  EP  OW  HW  HW  EP  OW  HW  HW  EP  OW  HW  HW  EP  OW  HW  HW  EP  OW  HW  
HW  EP  OW  HW  HW  EP  OW  HW  HW  EP  OW  HW  HW  EP  OW  HW  HW  EP  OW  HW  
HW  EP  OW  HW  HW  EP  OW  HW  HW  EP  OW  HW  HW  EP  OW  HW  HW  EP  OW  HW  
HW  EP  OW  HW  HW  EP  OW  HW  HW  EP  OW  HW  HW  EP  OW  HW  HW  EP  OW  HW  
HW  EP  OW  HW  HW  EP  OW  HW  HW  EP  OW  HW  HW  EP  OW  HW  HW  EP  OW  HW  
HW  EP  OW  HW  HW  EP  OW  HW  HW  EP  OW  HW  HW  EP  OW  HW  HW  EP  OW  HW  
HW  EP  OW  HW  HW  EP  OW  HW  HW  EP  OW  HW  HW  EP  OW  HW  HW  EP  OW  HW  
HW  EP  OW  HW  HW  EP  OW  HW  HW  EP  OW  HW  HW  EP  OW  HW  HW  EP  OW  HW  
HW  EP  OW  HW  HW  EP  OW  HW  HW  EP  OW  HW  HW  EP  OW  HW  HW  EP  OW  HW  
HW  EP  OW  HW  HW  EP  OW  HW  HW  EP  OW  HW  HW  EP  OW  HW  HW  EP  OW  HW  
HW  EP  OW  HW  HW  EP  OW  HW  HW  EP  OW  HW  HW  EP  OW  HW  HW  EP  OW  HW  
HW  EP  OW  HW  HW  EP  OW  HW  HW  EP  OW  HW  HW  EP  OW  HW  HW  EP  OW  HW  
HW  EP  OW  HW  HW  EP  OW  HW  HW  EP  OW  HW  HW  EP  OW  HW  HW  EP  OW  HW  
HW  EP  OW  HW  HW  EP  OW  HW  HW  EP  OW  HW  HW  EP  OW  HW  HW  EP  OW  HW  
HW  EP  OW  HW  HW  EP  OW  HW  HW  EP  OW  HW  HW  EP  OW  HW  HW  EP  OW  HW  
HW  EP  OW  HW  HW  EP  OW  HW  HW  EP  OW  HW  HW  EP  OW  HW  HW  EP  OW  HW  
HW  EP  OW  HW  HW  EP  OW  HW  HW  EP  OW  HW  HW  EP  OW  HW  HW  EP  OW  HW  
HW  EP  OW  HW  HW  EP  OW  HW  HW  EP  OW  HW  HW  EP  OW  HW  HW  EP  OW  HW  
HW  EP  OW  HW  HW  EP  OW  HW  HW  EP  OW  HW  HW  EP  OW  HW  HW  EP  OW  HW  
HW  EP  OW  HW  HW  EP  OW  HW  HW  EP  OW  HW  HW  EP  OW  HW  HW  EP  OW  HW  
HW  EP  OW  HW  HW  EP  OW  HW  HW  EP  OW  HW  HW  EP  OW  HW  HW  EP  OW  HW  
HW  EP  OW  HW  HW  EP  OW  HW  HW  EP  OW  HW  HW  EP  OW  HW  HW  EP  OW  HW  
HW  EP  OW  HW  HW  EP  OW  HW  HW  EP  OW  HW  HW  EP  OW  HW  HW  EP  OW  HW  
HW  EP  OW  HW  HW  EP  OW  HW  HW  EP  OW  HW  HW  EP  OW  HW  HW  EP  OW  HW  
HW  EP  OW  HW  HW  EP  OW  HW  HW  EP  OW  HW  HW  EP  OW  HW  HW  EP  OW  HW  
HW  EP  OW  HW  HW  EP  OW  HW  HW  EP  OW  HW  HW  EP  OW  HW  HW  EP  OW  HW  
HW  EP  OW  HW  HW  EP  OW  HW  HW  EP  OW  HW  HW  EP  OW  HW  HW  EP  OW  HW  
HW  EP  OW  HW  HW  EP  OW  HW  HW  EP  OW  HW  HW  EP  OW  HW  HW  EP  OW  HW  
HW  EP  OW  HW  HW  EP  OW  HW  HW  EP  OW  HW  HW  EP  OW  HW  HW  EP  OW  HW  
HW  EP  OW  HW  HW  EP  OW  HW  HW  EP  OW  HW  HW  EP  OW  HW  HW  EP  OW  HW  
HW  EP  OW  HW  HW  EP  OW  HW  HW  EP  OW  HW  HW  EP  OW  HW  HW  EP  OW  HW  
HW  EP  OW  HW  HW  EP  OW  HW  HW  EP  OW  HW  HW  EP  OW  HW  HW  EP  OW  HW  
HW  EP  OW  HW  HW  EP  OW  HW  HW  EP  OW  HW  HW  EP  OW  HW  HW  EP  OW  HW  
HW  EP  OW  HW  HW  EP  OW  HW  HW  EP  OW  HW  HW  EP  OW  HW  HW  EP  OW  HW  
HW  EP  OW  HW  HW  EP  OW  HW  HW  EP  OW  HW  HW  EP  OW  HW  HW  EP  OW  HW  
HW  EP  OW  HW  HW  EP  OW  HW  HW  EP  OW  HW  HW  EP  OW  HW  HW  EP  OW  HW  
HW  EP  OW  HW  HW  EP  OW  HW  HW  EP  OW  HW  HW  EP  OW  HW  HW  EP  OW  HW  
HW  EP  OW  HW  HW  EP  OW  HW  HW  EP  OW  HW  HW  EP  OW  HW  HW  EP  OW  HW  
HW  EP  OW  HW  HW  EP  OW  HW  HW  EP  OW  HW  HW  EP  OW  HW  HW  EP  OW  HW  
HW  EP  OW  HW  HW  EP  OW  HW  HW  EP  OW  HW  HW  EP  OW  HW  HW  EP  OW  HW  
HW  EP  OW  HW  HW  EP  OW  HW  HW  EP  OW  HW  HW  EP  OW  HW  HW  EP  OW  HW  
HW  EP  OW  HW  HW  EP  OW  HW  HW  EP  OW  HW  HW  EP  OW  HW  HW  EP  OW  HW  
HW  EP  OW  HW  HW  EP  OW  HW  HW  EP  OW  HW  HW  EP  OW  HW  HW  EP  OW  HW  
HW  EP  OW  HW  HW  EP  OW  HW  HW  EP  OW  HW  HW  EP  OW  HW  HW  EP  OW  HW  
HW  EP  OW  HW  HW  EP  OW  HW  HW  EP  OW  HW  HW  EP  OW  HW  HW  EP  OW  HW  
HW  EP  OW  HW  HW  EP  OW  HW  HW  EP  OW  HW  HW  EP  OW  HW  HW  EP  OW  HW  
HW  EP  OW  HW  HW  EP  OW  HW  HW  EP  OW  HW  HW  EP  OW  HW  HW  EP  OW  HW  
HW  EP  OW  HW  HW  EP  OW  HW  HW  EP  OW  HW  HW  EP  OW  HW  HW  EP  OW  HW  
HW  EP  OW  HW  HW  EP  OW  HW  HW  EP  OW  HW  HW  EP  OW  HW  HW  EP  OW  HW  
HW  EP  OW  HW  HW  EP  OW  HW  HW  EP  OW  HW  HW  EP  OW  HW  HW  EP  OW  HW  
HW  EP  OW  HW  HW  EP  OW  HW  HW  EP  OW  HW  HW  EP  OW  HW  HW  EP  OW  HW  
HW  EP  OW  HW  HW  EP  OW  HW  HW  EP  OW  HW  HW  EP  OW  HW  HW  EP  OW  HW  
HW  EP  OW  HW  HW  EP  OW  HW  HW  EP  OW  HW  HW  EP  OW  HW  HW  EP  OW  HW  
HW  EP  OW  HW  HW  EP  OW  HW  HW  EP  OW  HW  HW  EP  OW  HW  HW  EP  OW  HW  
HW  EP  OW  HW  HW  EP  OW  HW  HW  EP  OW  HW  HW  EP  OW  HW  HW  EP  OW  HW  
HW  EP  OW  HW  HW  EP  OW  HW  HW  EP  OW  HW  HW  EP  OW  HW  HW  EP  OW  HW  
HW  EP  OW  HW  HW  EP  OW  HW  HW  EP  OW  HW  HW  EP  OW  HW  HW  EP  OW  HW  
HW  EP  OW  HW  HW  EP  OW  HW  HW  EP  OW  HW  HW  EP  OW  HW  HW  EP  OW  HW  
HW  EP  OW  HW  HW  EP  OW  HW  HW  EP  OW  HW  HW  EP  OW  HW  HW  EP  OW  HW  
HW  EP  OW  HW  HW  EP  OW  HW  HW  EP  OW  HW  HW  EP  OW  HW  HW  EP  OW  HW  
HW  EP  OW  HW  HW  EP  OW  HW  HW  EP  OW  HW  HW  EP  OW  HW  HW  EP  OW  HW  
HW  EP  OW  HW  HW  EP  OW  HW  HW  EP  OW  HW  HW  EP  OW  HW  HW  EP  OW  HW  
HW  EP  OW  HW  HW  EP  OW  HW  HW  EP  OW  HW  HW  EP  OW  HW  HW  EP  OW  HW  
HW  EP  OW  HW  HW  EP  OW  HW  HW  EP  OW  HW  HW  EP  OW  HW  HW  EP  OW  HW  
HW  EP  OW  HW  HW  EP  OW  HW  HW  EP  OW  HW  HW  EP  OW  HW  HW  EP  OW  HW  
HW  EP  OW  HW  HW  EP  OW  HW  HW  EP  OW  HW  HW  EP  OW  HW  HW  EP  OW  HW  
HW  EP  OW  HW  HW  EP  OW  HW  HW  EP  OW  HW  HW  EP  OW  HW  HW  EP  OW  HW  
HW  EP  OW  HW  HW  EP  OW  HW  HW  EP  OW  HW  HW  EP  OW  HW  HW  EP  OW  HW  
HW  EP  OW  HW  HW  EP  OW  HW  HW  EP  OW  HW  HW  EP  OW  HW  HW  EP  OW  HW  
HW  EP  OW  HW  HW  EP  OW  HW  HW  EP  OW  HW  HW  EP  OW  HW  HW  EP  OW  HW  
HW  EP  OW  HW  HW  EP  OW  HW  HW  EP  OW  HW  HW  EP  OW  HW  HW  EP  OW  HW  
HW  EP  OW  HW  HW  EP  OW  HW  HW  EP  OW  HW  HW  EP  OW  HW  HW  EP  OW  HW  
HW  EP  OW  HW  HW  EP  OW  HW  HW  EP  OW  HW  HW  EP  OW  HW  HW  EP  OW  HW  
HW  EP  OW  HW  HW  EP  OW  HW  HW  EP  OW  HW  HW  EP  OW  HW  HW  EP  OW  HW  
HW  EP  OW  HW  HW  EP  OW  HW  HW  EP  OW  HW  HW  EP  OW  HW  HW  EP  OW  HW  
HW  EP  OW  HW  HW  EP  OW  HW  HW  EP  OW  HW  HW  EP  OW  HW  HW  EP  OW  HW  
HW  EP  OW  HW  HW  EP  OW  HW  HW  EP  OW  HW  HW  EP  OW  HW  HW  EP  OW  HW  
HW  EP  OW  HW  HW  EP  OW  HW  HW  EP  OW  HW  HW  EP  OW  HW  HW  EP  OW  HW  
HW  EP  OW  HW  HW  EP  OW  HW  HW  EP  OW  HW  HW  EP  OW  HW  HW  EP  OW  HW  
HW  EP  OW  HW  HW  EP  OW  HW  HW  EP  OW  HW  HW  EP  OW  HW  HW  EP  OW  HW  
HW  EP  OW  HW  HW  EP  OW  HW  HW  EP  OW  HW  HW  EP  OW  HW  HW  EP  OW  HW  
HW  EP  OW  HW  HW  EP  OW  HW  HW  EP  OW  HW  HW  EP  OW  HW  HW  EP  OW  HW  
HW  EP  OW  HW  HW  EP  OW  HW  HW  EP  OW  HW  HW  EP  OW  HW  HW  EP  OW  HW  
HW  EP  OW  HW  HW  EP  OW  HW  HW  EP  OW  HW  HW  EP  OW  HW  HW  EP  OW  HW  
HW  EP  OW  HW  HW  EP  OW  HW  HW  EP  OW  HW  HW  EP  OW  HW  HW  EP  OW  HW  
HW  EP  OW  HW  HW  EP  OW  HW  HW  EP  OW  HW  HW  EP  OW  HW  HW  EP  OW  HW  
HW  EP  OW  HW  HW  EP  OW  HW  HW  EP  OW  HW  HW  EP  OW  HW  HW  EP  OW  HW  
HW  EP  OW  HW  HW  EP  OW  HW  HW  EP  OW  HW  HW  EP  OW  HW  HW  EP  OW  HW  
HW  EP  OW  HW  HW  EP  OW  HW  HW  EP  OW  HW  HW  EP  OW  HW  HW  EP  OW  HW  
HW  EP  OW  HW  HW  EP  OW  HW  HW  EP  OW  HW  HW  EP  OW  HW  HW  EP  OW  HW  
HW  EP  OW  HW  HW  EP  OW  HW  HW  EP  OW  HW  HW  EP  OW  HW  HW  EP  OW  HW  
HW  EP  OW  HW  HW  EP  OW  HW  HW  EP  OW  HW  HW  EP  OW  HW  HW  EP  OW  HW  
HW  EP  OW  HW  HW  EP  OW  HW  HW  EP  OW  HW  HW  EP  OW  HW  HW  EP  OW  HW  
HW  EP  OW  HW  HW  EP  OW  HW  HW  EP  OW  HW  HW  EP  OW  HW  HW  EP  OW  HW  
HW  EP  OW  HW  HW  EP  OW  HW  HW  EP  OW  HW  HW  EP  OW  HW  HW  EP  OW  HW  
HW  EP  OW  HW  HW  EP  OW  HW  HW  EP  OW  HW  HW  EP  OW  HW  HW  EP  OW  HW  
HW  EP  OW  HW  HW  EP  OW  HW  HW  EP  OW  HW  HW  EP  OW  HW  HW  EP  OW  HW  
HW  EP  OW  HW  HW  EP  OW  HW  HW  EP  OW  HW  HW  EP  OW  HW  HW  EP  OW  HW  
HW  EP  OW  HW  HW  EP  OW  HW  HW  EP  OW  HW  HW  EP  OW  HW  HW  EP  OW  HW  
HW  EP  OW  HW  HW  EP  OW  HW  HW  EP  OW  HW  HW  EP  OW  HW  HW  EP  OW  HW  
HW  EP  OW  HW  HW  EP  OW  HW  HW  EP  OW  HW  HW  EP  OW  HW  HW  EP  OW  HW  
HW  EP  OW  HW  HW  EP  OW  HW  HW  EP  OW  HW  HW  EP  OW  HW  HW  EP  OW  HW  
HW  EP  OW  HW  HW  EP  OW  HW  HW  EP  OW  HW  HW  EP  OW  HW  HW  EP  OW  HW  
HW  EP  OW  HW  HW  EP  OW  HW  HW  EP  OW  HW  HW  EP  OW  HW  HW  EP  OW  HW  
HW  EP  OW  HW  HW  EP  OW  HW  HW  EP  OW  HW  HW  EP  OW  HW  HW  EP  OW  HW  
HW  EP  OW  HW  HW  EP  OW  HW  HW  EP  OW  HW  HW  EP  OW  HW  HW  EP  OW  HW  
HW  EP  OW  HW  HW  EP  OW  HW  HW  EP  OW  HW  HW  EP  OW  HW  HW  EP  OW  HW  
HW  EP  OW  HW  HW  EP  OW  HW  HW  EP  OW  HW  HW  EP  OW  HW  HW  EP  OW  HW  
HW  EP  OW  HW  HW  EP  OW  HW  HW  EP  OW  HW  HW  EP  OW  HW  HW  EP  OW  HW  
HW  EP  OW  HW  HW  EP  OW  HW  HW  EP  OW  HW  HW  EP  OW  HW  HW  EP  OW  HW  
HW  EP  OW  HW  HW  EP  OW  HW  HW  EP  OW  HW  HW  EP  OW  HW  HW  EP  OW  HW  
HW  EP  OW  HW  HW  EP  OW  HW  HW  EP  OW  HW  HW  EP  OW  HW  HW  EP  OW  HW  
HW  EP  OW  HW  HW  EP  OW  HW  HW  EP  OW  HW  HW  EP  OW  HW  HW  EP  OW  HW  
HW  EP  OW  HW  HW  EP  OW  HW  HW  EP  OW  HW  HW  EP  OW  HW  HW  EP  OW  HW  
HW  EP  OW  HW  HW  EP  OW  HW  HW  EP  OW  HW  HW  EP  OW  HW  HW  EP  OW  HW  
HW  EP  OW  HW  HW  EP  OW  HW  HW  EP  OW  HW  HW  EP  OW  HW  HW  EP  OW  HW  
HW  EP  OW  HW  HW  EP  OW  HW  HW  EP  OW  HW  HW  EP  OW  HW  HW  EP  OW  HW  
HW  EP  OW  HW  HW  EP  OW  HW  HW  EP  OW  HW  HW  EP  OW  HW  HW  EP  OW  HW  
HW  EP  OW  HW  HW  EP  OW  HW  HW  EP  OW  HW  HW  EP  OW  HW  HW  EP  OW  HW  
HW  EP  OW  HW  HW  EP  OW  HW  HW  EP  OW  HW  HW  EP  OW  HW  HW  EP  OW  HW  
HW  EP  OW  HW  HW  EP  OW  HW  HW  EP  OW  HW  HW  EP  OW  HW  HW  EP  OW  HW  
HW  EP  OW  HW  HW  EP  OW  HW  HW  EP  OW  HW  HW  EP  OW  HW  HW  EP  OW  HW  
HW  EP  OW  HW  HW  EP  OW  HW  HW  EP  OW  HW  HW  EP  OW  HW  HW  EP  OW  HW  
HW  EP  OW  HW  HW  EP  OW  HW  HW  EP  OW  HW  HW  EP  OW  HW  HW  EP  OW  HW  
HW  EP  OW  HW  HW  EP  OW  HW  HW  EP  OW  HW  HW  EP  OW  HW  HW  EP  OW  HW  
HW  EP  OW  HW  HW  EP  OW  HW  HW  EP  OW  HW  HW  EP  OW  HW  HW  EP  OW  HW  
HW  EP  OW  HW  HW  EP  OW  HW  HW  EP  OW  HW  HW  EP  OW  HW  HW  EP  OW  HW  
HW  EP  OW  HW  HW  EP  OW  HW  HW  EP  OW  HW  HW  EP  OW  HW  HW  EP  OW  HW  
HW  EP  OW  HW  HW  EP  OW  HW  HW  EP  OW  HW  HW  EP  OW  HW  HW  EP  OW  HW  
HW  EP  OW  HW  HW  EP  OW  HW  HW  EP  OW  HW  HW  EP  OW  HW  HW  EP  OW  HW  
HW  EP  OW  HW  HW  EP  OW  HW  HW  EP  OW  HW  HW  EP  OW  HW  HW  EP  OW  HW  
HW  EP  OW  HW  HW  EP  OW  HW  HW  EP  OW  HW  HW  EP  OW  HW  HW  EP  OW  HW  
HW  EP  OW  HW  HW  EP  OW  HW  HW  EP  OW  HW  HW  EP  OW  HW  HW  EP  OW  HW  
HW  EP  OW  HW  HW  EP  OW  HW  HW  EP  OW  HW  HW  EP  OW  HW  HW  EP  OW  HW  
HW  EP  OW  HW  HW  EP  OW  HW  HW  EP  OW  HW  HW  EP  OW  HW  HW  EP  OW  HW  
HW  EP  OW  HW  HW  EP  OW  HW  HW  EP  OW  HW  HW  EP  OW  HW  HW  EP  OW  HW  
HW  EP  OW  HW  HW  EP  OW  HW  HW  EP  OW  HW  HW  EP  OW  HW  HW  EP  OW  HW  
HW  EP  OW  HW  HW  EP  OW  HW  HW  EP  OW  HW  HW  EP  OW  HW  HW  EP  OW  HW  
HW  EP  OW  HW  HW  EP  OW  HW  HW  EP  OW  HW  HW  EP  OW  HW  HW  EP  OW  HW  
HW  EP  OW  HW  HW  EP  OW  HW  HW  EP  OW  HW  HW  EP  OW  HW  HW  EP  OW  HW  
HW  EP  OW  HW  HW  EP  OW  HW  HW  EP  OW  HW  HW  EP  OW  HW  HW  EP  OW  HW  
HW  EP  OW  HW  HW  EP  OW  HW  HW  EP  OW  HW  HW  EP  OW  HW  HW  EP  OW  HW  
HW  EP  OW  HW  HW  EP  OW  HW  HW  EP  OW  HW  HW  EP  OW  HW  HW  EP  OW  HW  
HW  EP  OW  HW  HW  EP  OW  HW  HW  EP  OW  HW  HW  EP  OW  HW  HW  EP  OW  HW  
HW  EP  OW  HW  HW  EP  OW  HW  HW  EP  OW  HW  HW  EP  OW  HW  HW  EP  OW  HW  
HW  EP  OW  HW  HW  EP  OW  HW  HW  EP  OW  HW  HW  EP  OW  HW  HW  EP  OW  HW  
HW  EP  OW  HW  HW  EP  OW  HW  HW  EP  OW  HW  HW  EP  OW  HW  HW  EP  OW  HW  
HW  EP  OW  HW  HW  EP  OW  HW  HW  EP  OW  HW  HW  EP  OW  HW  HW  EP  OW  HW  
HW  EP  OW  HW  HW  EP  OW  HW  HW  EP  OW  HW  HW  EP  OW  HW  HW  EP  OW  HW  
HW  EP  OW  HW  HW  EP  OW  HW  HW  EP  OW  HW  HW  EP  OW  HW  HW  EP  OW  HW  
HW  EP  OW  HW  HW  EP  OW  HW  HW  EP  OW  HW  HW  EP  OW  HW  HW  EP  OW  HW  
HW  EP  OW  HW  HW  EP  OW  HW  HW  EP  OW  HW  HW  EP  OW  HW  HW  EP  OW  HW  
HW  EP  OW  HW  HW  EP  OW  HW  HW  EP  OW  HW  HW  EP  OW  HW  HW  EP  OW  HW  
HW  EP  OW  HW  HW  EP  OW  HW  HW  EP  OW  HW  HW  EP  OW  HW  HW  EP  OW  HW  
HW  EP  OW  HW  HW  EP  OW  HW  HW  EP  OW  HW  HW  EP  OW  HW  HW  EP  OW  HW  
HW  EP  OW  HW  HW  EP  OW  HW  HW  EP  OW  HW  HW  EP  OW  HW  HW  EP  OW  HW  
HW  EP  OW  HW  HW  EP  OW  HW  HW  EP  OW  HW  HW  EP  OW  HW  HW  EP  OW  HW  
HW  EP  OW  HW  HW  EP  OW  HW  HW  EP  OW  HW  HW  EP  OW  HW  HW  EP  OW  HW  
HW  EP  OW  HW  HW  EP  OW  HW  HW  EP  OW  HW  HW  EP  OW  HW  HW  EP  OW  HW  
HW  EP  OW  HW  HW  EP  OW  HW  HW  EP  OW  HW  HW  EP  OW  HW  HW  EP  OW  HW  
HW  EP  OW  HW  HW  EP  OW  HW  HW  EP  OW  HW  HW  EP  OW  HW  HW  EP  OW  HW  
HW  EP  OW  HW  HW  EP  OW  HW  HW  EP  OW  HW  HW  EP  OW  HW  HW  EP  OW  HW  
HW  EP  OW  HW  HW  EP  OW  HW  HW  EP  OW  HW  HW  EP  OW  HW  HW  EP  OW  HW  
HW  EP  OW  HW  HW  EP  OW  HW  HW  EP  OW  HW  HW  EP  OW  HW  HW  EP  OW  HW  
HW  EP  OW  HW  HW  EP  OW  HW  HW  EP  OW  HW  HW  EP  OW  HW  HW  EP  OW  HW  
HW  EP  OW  HW  HW  EP  OW  HW  HW  EP  OW  HW  HW  EP  OW  HW  HW  EP  OW  HW  
HW  EP  OW  HW  HW  EP  OW  HW  HW  EP  OW  HW  HW  EP  OW  HW  HW  EP  OW  HW  
HW  EP  OW  HW  HW  EP  OW  HW  HW  EP  OW  HW  HW  EP  OW  HW  HW  EP  OW  HW  
HW  EP  OW  HW  HW  EP  OW  HW  HW  EP  OW  HW  HW  EP  OW  HW  HW  EP  OW  HW  
HW  EP  OW  HW  HW  EP  OW  HW  HW  EP  OW  HW  HW  EP  OW  HW  HW  EP  OW  HW  
HW  EP  OW  HW  HW  EP  OW  HW  HW  EP  OW  HW  HW  EP  OW  HW  HW  EP  OW  HW  
HW  EP  OW  HW  HW  EP  OW  HW  HW  EP  OW  HW  HW  EP  OW  HW  HW  EP  OW  HW  
HW  EP  OW  HW  HW  EP  OW  HW  HW  EP  OW  HW  HW  EP  OW  HW  HW  EP  OW  HW  
HW  EP  OW  HW  HW  EP  OW  HW  HW  EP  OW  HW  HW  EP  OW  HW  HW  EP  OW  HW  
HW  EP  OW  HW  HW  EP  OW  HW  HW  EP  OW  HW  HW  EP  OW  HW  HW  EP  OW  HW  
HW  EP  OW  HW  HW  EP  OW  HW  HW  EP  OW  HW  HW  EP  OW  HW  HW  EP  OW  HW  
HW  EP  OW  HW  HW  EP  OW  HW  HW  EP  OW  HW  HW  EP  OW  HW  HW  EP  OW  HW  
HW  EP  OW  HW  HW  EP  OW  HW  HW  EP  OW  HW  HW  EP  OW  HW  HW  EP  OW  HW  
HW  EP  OW  HW  HW  EP  OW  HW  HW  EP  OW  HW  HW  EP  OW  HW  HW  EP  OW  HW  
HW  EP  OW  HW  HW  EP  OW  HW  HW  EP  OW  HW  HW  EP  OW  HW  HW  EP  OW  HW  
HW  EP  OW  HW  HW  EP  OW  HW  HW  EP  OW  HW  HW  EP  OW  HW  HW  EP  OW  HW  
HW  EP  OW  HW  HW  EP  OW  HW  HW  EP  OW  HW  HW  EP  OW  HW  HW  EP  OW  HW  
HW  EP  OW  HW  HW  EP  OW  HW  HW  EP  OW  HW  HW  EP  OW  HW  HW  EP  OW  HW  
HW  EP  OW  HW  HW  EP  OW  HW  HW  EP  OW  HW  HW  EP  OW  HW  HW  EP  OW  HW  
HW  EP  OW  HW  HW  EP  OW  HW  HW  EP  OW  HW  HW  EP  OW  HW  HW  EP  OW  HW  
HW  EP  OW  HW  HW  EP  OW  HW  HW  EP  OW  HW  HW  EP  OW  HW  HW  EP  OW  HW  
HW  EP  OW  HW  HW  EP  OW  HW  HW  EP  OW  HW  HW  EP  OW  HW  HW  EP  OW  HW  
HW  EP  OW  HW  HW  EP  OW  HW  HW  EP  OW  HW  HW  EP  OW  HW  HW  EP  OW  HW  
HW  EP  OW  HW  HW  EP  OW  HW  HW  EP  OW  HW  HW  EP  OW  HW  HW  EP  OW  HW  
HW  EP  OW  HW  HW  EP  OW  HW  HW  EP  OW  HW  HW  EP  OW  HW  HW  EP  OW  HW  
HW  EP  OW  HW  HW  EP  OW  HW  HW  EP  OW  HW  HW  EP  OW  HW  HW  EP  OW  HW  
HW  EP  OW  HW  HW  EP  OW  HW  HW  EP  OW  HW  HW  EP  OW  HW  HW  EP  OW  HW  
HW  EP  OW  HW  HW  EP  OW  HW  HW  EP  OW  HW  HW  EP  OW  HW  HW  EP  OW  HW  
HW  EP  OW  HW  HW  EP  OW  HW  HW  EP  OW  HW  HW  EP  OW  HW  HW  EP  OW  HW  
HW  EP  OW  HW  HW  EP  OW  HW  HW  EP  OW  HW  HW  EP  OW  HW  HW  EP  OW  HW  
HW  EP  OW  HW  HW  EP  OW  HW  HW  EP  OW  HW  HW  EP  OW  HW  HW  EP  OW  HW  
HW  EP  OW  HW  HW  EP  OW  HW  HW  EP  OW  HW  HW  EP  OW  HW  HW  EP  OW  HW  
HW  EP  OW  HW  HW  EP  OW  HW  HW  EP  OW  HW  HW  EP  OW  HW  HW  EP  OW  HW  
HW  EP  OW  HW  HW  EP  OW  HW  HW  EP  OW  HW  HW  EP  OW  HW  HW  EP  OW  HW  
HW  EP  OW  HW  HW  EP  OW  HW  HW  EP  OW  HW  HW  EP  OW  HW  HW  EP  OW  HW  
HW  EP  OW  HW  HW  EP  OW  HW  HW  EP  OW  HW  HW  EP  OW  HW  HW  EP  OW  HW  
HW  EP  OW  HW  HW  EP  OW  HW  HW  EP  OW  HW  HW  EP  OW  HW  HW  EP  OW  HW  
HW  EP  OW  HW  HW  EP  OW  HW  HW  EP  OW  HW  HW  EP  OW  HW  HW  EP  OW  HW  
HW  EP  OW  HW  HW  EP  OW  HW  HW  EP  OW  HW  HW  EP  OW  HW  HW  EP  OW  HW  
HW  EP  OW  HW  HW  EP  OW  HW  HW  EP  OW  HW  HW  EP  OW  HW  HW  EP  OW  HW  
HW  EP  OW  HW  HW  EP  OW  HW  HW  EP  OW  HW  HW  EP  OW  HW  HW  EP  OW  HW  
HW  EP  OW  HW  HW  EP  OW  HW  HW  EP  OW  HW  HW  EP  OW  HW  HW  EP  OW  HW  
HW  EP  OW  HW  HW  EP  OW  HW  HW  EP  OW  HW  HW  EP  OW  HW  HW  EP  OW  HW  
HW  EP  OW  HW  HW  EP  OW  HW  HW  EP  OW  HW  HW  EP  OW  HW  HW  EP  OW  HW  
HW  EP  OW  HW  HW  EP  OW  HW  HW  EP  OW  HW  HW  EP  OW  HW  HW  EP  OW  HW  
HW  EP  OW  HW  HW  EP  OW  HW  HW  EP  OW  HW  HW  EP  OW  HW  HW  EP  OW  HW  
HW  EP  OW  HW  HW  EP  OW  HW  HW  EP  OW  HW  HW  EP  OW  HW  HW  EP  OW  HW  
HW  EP  OW  HW  HW  EP  OW  HW  HW  EP  OW  HW  HW  EP  OW  HW  HW  EP  OW  HW  
HW  EP  OW  HW  HW  EP  OW  HW  HW  EP  OW  HW  HW  EP  OW  HW  HW  EP  OW  HW  
HW  EP  OW  HW  HW  EP  OW  HW  HW  EP  OW  HW  HW  EP  OW  HW  HW  EP  OW  HW  
HW  EP  OW  HW  HW  EP  OW  HW  HW  EP  OW  HW  HW  EP  OW  HW  HW  EP  OW  HW  
HW  EP  OW  HW  HW  EP  OW  HW  HW  EP  OW  HW  HW  EP  OW  HW  HW  EP  OW  HW  
HW  EP  OW  HW  HW  EP  OW  HW  HW  EP  OW  HW  HW  EP  OW  HW  HW  EP  OW  HW  
HW  EP  OW  HW  HW  EP  OW  HW  HW  EP  OW  HW  HW  EP  OW  HW  HW  EP  OW  HW  
HW  EP  OW  HW  HW  EP  OW  HW  HW  EP  OW  HW  HW  EP  OW  HW  HW  EP  OW  HW  
HW  EP  OW  HW  HW  EP  OW  HW  HW  EP  OW  HW  HW  EP  OW  HW  HW  EP  OW  HW  
HW  EP  OW  HW  HW  EP  OW  HW  HW  EP  OW  HW  HW  EP  OW  HW  HW  EP  OW  HW  
HW  EP  OW  HW  HW  EP  OW  HW  HW  EP  OW  HW  HW  EP  OW  HW  HW  EP  OW  HW  
HW  EP  OW  HW  HW  EP  OW  HW  HW  EP  OW  HW  HW  EP  OW  HW  HW  EP  OW  HW  
HW  EP  OW  HW  HW  EP  OW  HW  HW  EP  OW  HW  HW  EP  OW  HW  HW  EP  OW  HW  
HW  EP  OW  HW  HW  EP  OW  HW  HW  EP  OW  HW  HW  EP  OW  HW  HW  EP  OW  HW  
HW  EP  OW  HW  HW  EP  OW  HW  HW  EP  OW  HW  HW  EP  OW  HW  HW  EP  OW  HW  
HW  EP  OW  HW  HW  EP  OW  HW  HW  EP  OW  HW  HW  EP  OW  HW  HW  EP  OW  HW  
HW  EP  OW  HW  HW  EP  OW  HW  HW  EP  OW  HW  HW  EP  OW  HW  HW  EP  OW  HW  
HW  EP  OW  HW  HW  EP  OW  HW  HW  EP  OW  HW  HW  EP  OW  HW  HW  EP  OW  HW  
HW  EP  OW  HW  HW  EP  OW  HW  HW  EP  OW  HW  HW  EP  OW  HW  HW  EP  OW  HW  
HW  EP  OW  HW  HW  EP  OW  HW  HW  EP  OW  HW  HW  EP  OW  HW  HW  EP  OW  HW  
HW  EP  OW  HW  HW  EP  OW  HW  HW  EP  OW  HW  HW  EP  OW  HW  HW  EP  OW  HW  
HW  EP  OW  HW  HW  EP  OW  HW  HW  EP  OW  HW  HW  EP  OW  HW  HW  EP  OW  HW  
HW  EP  OW  HW  HW  EP  OW  HW  HW  EP  OW  HW  HW  EP  OW  HW  HW  EP  OW  HW  
HW  EP  OW  HW  HW  EP  OW  HW  HW  EP  OW  HW  HW  EP  OW  HW  HW  EP  OW  HW  
HW  EP  OW  HW  HW  EP  OW  HW  HW  EP  OW  HW  HW  EP  OW  HW  HW  EP  OW  HW  
HW  EP  OW  HW  HW  EP  OW  HW  HW  EP  OW  HW  HW  EP  OW  HW  HW  EP  OW  HW  
HW  EP  OW  HW  HW  EP  OW  HW  HW  EP  OW  HW  HW  EP  OW  HW  HW  EP  OW  HW  
HW  EP  OW  HW  HW  EP  OW  HW  HW  EP  OW  HW  HW  EP  OW  HW  HW  EP  OW  HW  
HW  EP  OW  HW  HW  EP  OW  HW  HW  EP  OW  HW  HW  EP  OW  HW  HW  EP  OW  HW  
HW  EP  OW  HW  HW  EP  OW  HW  HW  EP  OW  HW  HW  EP  OW  HW  HW  EP  OW  HW  
HW  EP  OW  HW  HW  EP  OW  HW  HW  EP  OW  HW  HW  EP  OW  HW  HW  EP  OW  HW  
HW  EP  OW  HW  HW  EP  OW  HW  HW  EP  OW  HW  HW  EP  OW  HW  HW  EP  OW  HW  
HW  EP  OW  HW  HW  EP  OW  HW  HW  EP  OW  HW  HW  EP  OW  HW  HW  EP  OW  HW  
HW  EP  OW  HW  HW  EP  OW  HW  HW  EP  OW  HW  HW  EP  OW  HW  HW  EP  OW  HW  
HW  EP  OW  HW  HW  EP  OW  HW  HW  EP  OW  HW  HW  EP  OW  HW  HW  EP  OW  HW  
HW  EP  OW  HW  HW  EP  OW  HW  HW  EP  OW  HW  HW  EP  OW  HW  HW  EP  OW  HW  
HW  EP  OW  HW  HW  EP  OW  HW  HW  EP  OW  HW  HW  EP  OW  HW  HW  EP  OW  HW  
HW  EP  OW  HW  HW  EP  OW  HW  HW  EP  OW  HW  HW  EP  OW  HW  HW  EP  OW  HW  
HW  EP  OW  HW  HW  EP  OW  HW  HW  EP  OW  HW  HW  EP  OW  HW  HW  EP  OW  HW  
HW  EP  OW  HW  HW  EP  OW  HW  HW  EP  OW  HW  HW  EP  OW  HW  HW  EP  OW  HW  
HW  EP  OW  HW  HW  EP  OW  HW  HW  EP  OW  HW  HW  EP  OW  HW  HW  EP  OW  HW  
HW  EP  OW  HW  HW  EP  OW  HW  HW  EP  OW  HW  HW  EP  OW  HW  HW  EP  OW  HW  
HW  EP  OW  HW  HW  EP  OW  HW  HW  EP  OW  HW  HW  EP  OW  HW  HW  EP  OW  HW  
HW  EP  OW  HW  HW  EP  OW  HW  HW  EP  OW  HW  HW  EP  OW  HW  HW  EP  OW  HW  
HW  EP  OW  HW  HW  EP  OW  HW  HW  EP  OW  HW  HW  EP  OW  HW  HW  EP  OW  HW  
HW  EP  OW  HW  HW  EP  OW  HW  HW  EP  OW  HW  HW  EP  OW  HW  HW  EP  OW  HW  
HW  EP  OW  HW  HW  EP  OW  HW  HW  EP  OW  HW  HW  EP  OW  HW  HW  EP  OW  HW  
HW  EP  OW  HW  HW  EP  OW  HW  HW  EP  OW  HW  HW  EP  OW  HW  HW  EP  OW  HW  
HW  EP  OW  HW  HW  EP  OW  HW  HW  EP  OW  HW  HW  EP  OW  HW  HW  EP  OW  HW  
HW  EP  OW  HW  HW  EP  OW  HW  HW  EP  OW  HW  HW  EP  OW  HW  HW  EP  OW  HW  
HW  EP  OW  HW  HW  EP  OW  HW  HW  EP  OW  HW  HW  EP  OW  HW  HW  EP  OW  HW  
HW  EP  OW  HW  HW  EP  OW  HW  HW  EP  OW  HW  HW  EP  OW  HW  HW  EP  OW  HW  
HW  EP  OW  HW  HW  EP  OW  HW  HW  EP  OW  HW  HW  EP  OW  HW  HW  EP  OW  HW  
HW  EP  OW  HW  HW  EP  OW  HW  HW  EP  OW  HW  HW  EP  OW  HW  HW  EP  OW  HW  
HW  EP  OW  HW  HW  EP  OW  HW  HW  EP  OW  HW  HW  EP  OW  HW  HW  EP  OW  HW  
HW  EP  OW  HW  HW  EP  OW  HW  HW  EP  OW  HW  HW  EP  OW  HW  HW  EP  OW  HW  
HW  EP  OW  HW  HW  EP  OW  HW  HW  EP  OW  HW  HW  EP  OW  HW  HW  EP  OW  HW  
HW  EP  OW  HW  HW  EP  OW  HW  HW  EP  OW  HW  HW  EP  OW  HW  HW  EP  OW  HW  
HW  EP  OW  HW  HW  EP  OW  HW  HW  EP  OW  HW  HW  EP  OW  HW  HW  EP  OW  HW  
HW  EP  OW  HW  HW  EP  OW  HW  HW  EP  OW  HW  HW  EP  OW  HW  HW  EP  OW  HW  
HW  EP  OW  HW  HW  EP  OW  HW  HW  EP  OW  HW  HW  EP  OW  HW  HW  EP  OW  HW  
HW  EP  OW  HW  HW  EP  OW  HW  HW  EP  OW  HW  HW  EP  OW  HW  HW  EP  OW  HW  
HW  EP  OW  HW  HW  EP  OW  HW  HW  EP  OW  HW  HW  EP  OW  HW  HW  EP  OW  HW  
HW  EP  OW  HW  HW  EP  OW  HW  HW  EP  OW  HW  HW  EP  OW  HW  HW  EP  OW  HW  
HW  EP  OW  HW  HW  EP  OW  HW  HW  EP  OW  HW  HW  EP  OW  HW  HW  EP  OW  HW  
HW  EP  OW  HW  HW  EP  OW  HW  HW  EP  OW  HW  HW  EP  OW  HW  HW  EP  OW  HW  
HW  EP  OW  HW  HW  EP  OW  HW  HW  EP  OW  HW  HW  EP  OW  HW  HW  EP  OW  HW  
HW  EP  OW  HW  HW  EP  OW  HW  HW  EP  OW  HW  HW  EP  OW  HW  HW  EP  OW  HW  
HW  EP  OW  HW  HW  EP  OW  HW  HW  EP  OW  HW  HW  EP  OW  HW  HW  EP  OW  HW  
HW  EP  OW  HW  HW  EP  OW  HW  HW  EP  OW  HW  HW  EP  OW  HW  HW  EP  OW  HW  
HW  EP  OW  HW  HW  EP  OW  HW  HW  EP  OW  HW  HW  EP  OW  HW  HW  EP  OW  HW  
HW  EP  OW  HW  HW  EP  OW  HW  HW  EP  OW  HW  HW  EP  OW  HW  HW  EP  OW  HW  
HW  EP  OW  HW  HW  EP  OW  HW  HW  EP  OW  HW  HW  EP  OW  HW  HW  EP  OW  HW  
HW  EP  OW  HW  HW  EP  OW  HW  HW  EP  OW  HW  HW  EP  OW  HW  HW  EP  OW  HW  
HW  EP  OW  HW  HW  EP  OW  HW  HW  EP  OW  HW  HW  EP  OW  HW  HW  EP  OW  HW  
HW  EP  OW  HW  HW  EP  OW  HW  HW  EP  OW  HW  HW  EP  OW  HW  HW  EP  OW  HW  
HW  EP  OW  HW  HW  EP  OW  HW  HW  EP  OW  HW  HW  EP  OW  HW  HW  EP  OW  HW  
HW  EP  OW  HW  HW  EP  OW  HW  HW  EP  OW  HW  HW  EP  OW  HW  HW  EP  OW  HW  
HW  EP  OW  HW  HW  EP  OW  HW  HW  EP  OW  HW  HW  EP  OW  HW  HW  EP  OW  HW  
HW  EP  OW  HW  HW  EP  OW  HW  HW  EP  OW  HW  HW  EP  OW  HW  HW  EP  OW  HW  
HW  EP  OW  HW  HW  EP  OW  HW  HW  EP  OW  HW  HW  EP  OW  HW  HW  EP  OW  HW  
HW  EP  OW  HW  HW  EP  OW  HW  HW  EP  OW  HW  HW  EP  OW  HW  HW  EP  OW  HW  
HW  EP  OW  HW  HW  EP  OW  HW  HW  EP  OW  HW  HW  EP  OW  HW  HW  EP  OW  HW  
HW  EP  OW  HW  HW  EP  OW  HW  HW  EP  OW  HW  HW  EP  OW  HW  HW  EP  OW  HW  
HW  EP  OW  HW  HW  EP  OW  HW  HW  EP  OW  HW  HW  EP  OW  HW  HW  EP  OW  HW  
HW  EP  OW  HW  HW  EP  OW  HW  HW  EP  OW  HW  HW  EP  OW  HW  HW  EP  OW  HW  
HW  EP  OW  HW  HW  EP  
%FLAG TREE_CHAIN_CLASSIFICATION                                                 
%FORMAT(20a4)                                                                   
M   M   E   E   M   E   M   E   M   E   3   E   E   E   M   E   M   E   M   E   
3   E   E   E   M   E   M   E   M   E   3   E   E   E   M   E   M   E   M   E   
E   E   M   S   E   E   M   S   E   E   M   S   E   E   M   S   E   E   M   S   
E   E   M   S   E   E   M   S   E   E   M   S   E   E   M   S   E   E   M   S   
E   E   M   S   E   E   M   S   E   E   M   S   E   E   M   S   E   E   M   S   
E   E   M   S   E   E   M   S   E   E   M   S   E   E   M   S   E   E   M   S   
E   E   M   S   E   E   M   S   E   E   M   S   E   E   M   S   E   E   M   S   
E   E   M   S   E   E   M   S   E   E   M   S   E   E   M   S   E   E   M   S   
E   E   M   S   E   E   M   S   E   E   M   S   E   E   M   S   E   E   M   S   
E   E   M   S   E   E   M   S   E   E   M   S   E   E   M   S   E   E   M   S   
E   E   M   S   E   E   M   S   E   E   M   S   E   E   M   S   E   E   M   S   
E   E   M   S   E   E   M   S   E   E   M   S   E   E   M   S   E   E   M   S   
E   E   M   S   E   E   M   S   E   E   M   S   E   E   M   S   E   E   M   S   
E   E   M   S   E   E   M   S   E   E   M   S   E   E   M   S   E   E   M   S   
E   E   M   S   E   E   M   S   E   E   M   S   E   E   M   S   E   E   M   S   
E   E   M   S   E   E   M   S   E   E   M   S   E   E   M   S   E   E   M   S   
E   E   M   S   E   E   M   S   E   E   M   S   E   E   M   S   E   E   M   S   
E   E   M   S   E   E   M   S   E   E   M   S   E   E   M   S   E   E   M   S   
E   E   M   S   E   E   M   S   E   E   M   S   E   E   M   S   E   E   M   S   
E   E   M   S   E   E   M   S   E   E   M   S   E   E   M   S   E   E   M   S   
E   E   M   S   E   E   M   S   E   E   M   S   E   E   M   S   E   E   M   S   
E   E   M   S   E   E   M   S   E   E   M   S   E   E   M   S   E   E   M   S   
E   E   M   S   E   E   M   S   E   E   M   S   E   E   M   S   E   E   M   S   
E   E   M   S   E   E   M   S   E   E   M   S   E   E   M   S   E   E   M   S   
E   E   M   S   E   E   M   S   E   E   M   S   E   E   M   S   E   E   M   S   
E   E   M   S   E   E   M   S   E   E   M   S   E   E   M   S   E   E   M   S   
E   E   M   S   E   E   M   S   E   E   M   S   E   E   M   S   E   E   M   S   
E   E   M   S   E   E   M   S   E   E   M   S   E   E   M   S   E   E   M   S   
E   E   M   S   E   E   M   S   E   E   M   S   E   E   M   S   E   E   M   S   
E   E   M   S   E   E   M   S   E   E   M   S   E   E   M   S   E   E   M   S   
E   E   M   S   E   E   M   S   E   E   M   S   E   E   M   S   E   E   M   S   
E   E   M   S   E   E   M   S   E   E   M   S   E   E   M   S   E   E   M   S   
E   E   M   S   E   E   M   S   E   E   M   S   E   E   M   S   E   E   M   S   
E   E   M   S   E   E   M   S   E   E   M   S   E   E   M   S   E   E   M   S   
E   E   M   S   E   E   M   S   E   E   M   S   E   E   M   S   E   E   M   S   
E   E   M   S   E   E   M   S   E   E   M   S   E   E   M   S   E   E   M   S   
E   E   M   S   E   E   M   S   E   E   M   S   E   E   M   S   E   E   M   S   
E   E   M   S   E   E   M   S   E   E   M   S   E   E   M   S   E   E   M   S   
E   E   M   S   E   E   M   S   E   E   M   S   E   E   M   S   E   E   M   S   
E   E   M   S   E   E   M   S   E   E   M   S   E   E   M   S   E   E   M   S   
E   E   M   S   E   E   M   S   E   E   M   S   E   E   M   S   E   E   M   S   
E   E   M   S   E   E   M   S   E   E   M   S   E   E   M   S   E   E   M   S   
E   E   M   S   E   E   M   S   E   E   M   S   E   E   M   S   E   E   M   S   
E   E   M   S   E   E   M   S   E   E   M   S   E   E   M   S   E   E   M   S   
E   E   M   S   E   E   M   S   E   E   M   S   E   E   M   S   E   E   M   S   
E   E   M   S   E   E   M   S   E   E   M   S   E   E   M   S   E   E   M   S   
E   E   M   S   E   E   M   S   E   E   M   S   E   E   M   S   E   E   M   S   
E   E   M   S   E   E   M   S   E   E   M   S   E   E   M   S   E   E   M   S   
E   E   M   S   E   E   M   S   E   E   M   S   E   E   M   S   E   E   M   S   
E   E   M   S   E   E   M   S   E   E   M   S   E   E   M   S   E   E   M   S   
E   E   M   S   E   E   M   S   E   E   M   S   E   E   M   S   E   E   M   S   
E   E   M   S   E   E   M   S   E   E   M   S   E   E   M   S   E   E   M   S   
E   E   M   S   E   E   M   S   E   E   M   S   E   E   M   S   E   E   M   S   
E   E   M   S   E   E   M   S   E   E   M   S   E   E   M   S   E   E   M   S   
E   E   M   S   E   E   M   S   E   E   M   S   E   E   M   S   E   E   M   S   
E   E   M   S   E   E   M   S   E   E   M   S   E   E   M   S   E   E   M   S   
E   E   M   S   E   E   M   S   E   E   M   S   E   E   M   S   E   E   M   S   
E   E   M   S   E   E   M   S   E   E   M   S   E   E   M   S   E   E   M   S   
E   E   M   S   E   E   M   S   E   E   M   S   E   E   M   S   E   E   M   S   
E   E   M   S   E   E   M   S   E   E   M   S   E   E   M   S   E   E   M   S   
E   E   M   S   E   E   M   S   E   E   M   S   E   E   M   S   E   E   M   S   
E   E   M   S   E   E   M   S   E   E   M   S   E   E   M   S   E   E   M   S   
E   E   M   S   E   E   M   S   E   E   M   S   E   E   M   S   E   E   M   S   
E   E   M   S   E   E   M   S   E   E   M   S   E   E   M   S   E   E   M   S   
E   E   M   S   E   E   M   S   E   E   M   S   E   E   M   S   E   E   M   S   
E   E   M   S   E   E   M   S   E   E   M   S   E   E   M   S   E   E   M   S   
E   E   M   S   E   E   M   S   E   E   M   S   E   E   M   S   E   E   M   S   
E   E   M   S   E   E   M   S   E   E   M   S   E   E   M   S   E   E   M   S   
E   E   M   S   E   E   M   S   E   E   M   S   E   E   M   S   E   E   M   S   
E   E   M   S   E   E   M   S   E   E   M   S   E   E   M   S   E   E   M   S   
E   E   M   S   E   E   M   S   E   E   M   S   E   E   M   S   E   E   M   S   
E   E   M   S   E   E   M   S   E   E   M   S   E   E   M   S   E   E   M   S   
E   E   M   S   E   E   M   S   E   E   M   S   E   E   M   S   E   E   M   S   
E   E   M   S   E   E   M   S   E   E   M   S   E   E   M   S   E   E   M   S   
E   E   M   S   E   E   M   S   E   E   M   S   E   E   M   S   E   E   M   S   
E   E   M   S   E   E   M   S   E   E   M   S   E   E   M   S   E   E   M   S   
E   E   M   S   E   E   M   S   E   E   M   S   E   E   M   S   E   E   M   S   
E   E   M   S   E   E   M   S   E   E   M   S   E   E   M   S   E   E   M   S   
E   E   M   S   E   E   M   S   E   E   M   S   E   E   M   S   E   E   M   S   
E   E   M   S   E   E   M   S   E   E   M   S   E   E   M   S   E   E   M   S   
E   E   M   S   E   E   M   S   E   E   M   S   E   E   M   S   E   E   M   S   
E   E   M   S   E   E   M   S   E   E   M   S   E   E   M   S   E   E   M   S   
E   E   M   S   E   E   M   S   E   E   M   S   E   E   M   S   E   E   M   S   
E   E   M   S   E   E   M   S   E   E   M   S   E   E   M   S   E   E   M   S   
E   E   M   S   E   E   M   S   E   E   M   S   E   E   M   S   E   E   M   S   
E   E   M   S   E   E   M   S   E   E   M   S   E   E   M   S   E   E   M   S   
E   E   M   S   E   E   M   S   E   E   M   S   E   E   M   S   E   E   M   S   
E   E   M   S   E   E   M   S   E   E   M   S   E   E   M   S   E   E   M   S   
E   E   M   S   E   E   M   S   E   E   M   S   E   E   M   S   E   E   M   S   
E   E   M   S   E   E   M   S   E   E   M   S   E   E   M   S   E   E   M   S   
E   E   M   S   E   E   M   S   E   E   M   S   E   E   M   S   E   E   M   S   
E   E   M   S   E   E   M   S   E   E   M   S   E   E   M   S   E   E   M   S   
E   E   M   S   E   E   M   S   E   E   M   S   E   E   M   S   E   E   M   S   
E   E   M   S   E   E   M   S   E   E   M   S   E   E   M   S   E   E   M   S   
E   E   M   S   E   E   M   S   E   E   M   S   E   E   M   S   E   E   M   S   
E   E   M   S   E   E   M   S   E   E   M   S   E   E   M   S   E   E   M   S   
E   E   M   S   E   E   M   S   E   E   M   S   E   E   M   S   E   E   M   S   
E   E   M   S   E   E   M   S   E   E   M   S   E   E   M   S   E   E   M   S   
E   E   M   S   E   E   M   S   E   E   M   S   E   E   M   S   E   E   M   S   
E   E   M   S   E   E   M   S   E   E   M   S   E   E   M   S   E   E   M   S   
E   E   M   S   E   E   M   S   E   E   M   S   E   E   M   S   E   E   M   S   
E   E   M   S   E   E   M   S   E   E   M   S   E   E   M   S   E   E   M   S   
E   E   M   S   E   E   M   S   E   E   M   S   E   E   M   S   E   E   M   S   
E   E   M   S   E   E   M   S   E   E   M   S   E   E   M   S   E   E   M   S   
E   E   M   S   E   E   M   S   E   E   M   S   E   E   M   S   E   E   M   S   
E   E   M   S   E   E   M   S   E   E   M   S   E   E   M   S   E   E   M   S   
E   E   M   S   E   E   M   S   E   E   M   S   E   E   M   S   E   E   M   S   
E   E   M   S   E   E   M   S   E   E   M   S   E   E   M   S   E   E   M   S   
E   E   M   S   E   E   M   S   E   E   M   S   E   E   M   S   E   E   M   S   
E   E   M   S   E   E   M   S   E   E   M   S   E   E   M   S   E   E   M   S   
E   E   M   S   E   E   M   S   E   E   M   S   E   E   M   S   E   E   M   S   
E   E   M   S   E   E   M   S   E   E   M   S   E   E   M   S   E   E   M   S   
E   E   M   S   E   E   M   S   E   E   M   S   E   E   M   S   E   E   M   S   
E   E   M   S   E   E   M   S   E   E   M   S   E   E   M   S   E   E   M   S   
E   E   M   S   E   E   M   S   E   E   M   S   E   E   M   S   E   E   M   S   
E   E   M   S   E   E   M   S   E   E   M   S   E   E   M   S   E   E   M   S   
E   E   M   S   E   E   M   S   E   E   M   S   E   E   M   S   E   E   M   S   
E   E   M   S   E   E   M   S   E   E   M   S   E   E   M   S   E   E   M   S   
E   E   M   S   E   E   M   S   E   E   M   S   E   E   M   S   E   E   M   S   
E   E   M   S   E   E   M   S   E   E   M   S   E   E   M   S   E   E   M   S   
E   E   M   S   E   E   M   S   E   E   M   S   E   E   M   S   E   E   M   S   
E   E   M   S   E   E   M   S   E   E   M   S   E   E   M   S   E   E   M   S   
E   E   M   S   E   E   M   S   E   E   M   S   E   E   M   S   E   E   M   S   
E   E   M   S   E   E   M   S   E   E   M   S   E   E   M   S   E   E   M   S   
E   E   M   S   E   E   M   S   E   E   M   S   E   E   M   S   E   E   M   S   
E   E   M   S   E   E   M   S   E   E   M   S   E   E   M   S   E   E   M   S   
E   E   M   S   E   E   M   S   E   E   M   S   E   E   M   S   E   E   M   S   
E   E   M   S   E   E   M   S   E   E   M   S   E   E   M   S   E   E   M   S   
E   E   M   S   E   E   M   S   E   E   M   S   E   E   M   S   E   E   M   S   
E   E   M   S   E   E   M   S   E   E   M   S   E   E   M   S   E   E   M   S   
E   E   M   S   E   E   M   S   E   E   M   S   E   E   M   S   E   E   M   S   
E   E   M   S   E   E   M   S   E   E   M   S   E   E   M   S   E   E   M   S   
E   E   M   S   E   E   M   S   E   E   M   S   E   E   M   S   E   E   M   S   
E   E   M   S   E   E   M   S   E   E   M   S   E   E   M   S   E   E   M   S   
E   E   M   S   E   E   M   S   E   E   M   S   E   E   M   S   E   E   M   S   
E   E   M   S   E   E   M   S   E   E   M   S   E   E   M   S   E   E   M   S   
E   E   M   S   E   E   M   S   E   E   M   S   E   E   M   S   E   E   M   S   
E   E   M   S   E   E   M   S   E   E   M   S   E   E   M   S   E   E   M   S   
E   E   M   S   E   E   M   S   E   E   M   S   E   E   M   S   E   E   M   S   
E   E   M   S   E   E   M   S   E   E   M   S   E   E   M   S   E   E   M   S   
E   E   M   S   E   E   M   S   E   E   M   S   E   E   M   S   E   E   M   S   
E   E   M   S   E   E   M   S   E   E   M   S   E   E   M   S   E   E   M   S   
E   E   M   S   E   E   M   S   E   E   M   S   E   E   M   S   E   E   M   S   
E   E   M   S   E   E   M   S   E   E   M   S   E   E   M   S   E   E   M   S   
E   E   M   S   E   E   M   S   E   E   M   S   E   E   M   S   E   E   M   S   
E   E   M   S   E   E   M   S   E   E   M   S   E   E   M   S   E   E   M   S   
E   E   M   S   E   E   M   S   E   E   M   S   E   E   M   S   E   E   M   S   
E   E   M   S   E   E   M   S   E   E   M   S   E   E   M   S   E   E   M   S   
E   E   M   S   E   E   M   S   E   E   M   S   E   E   M   S   E   E   M   S   
E   E   M   S   E   E   M   S   E   E   M   S   E   E   M   S   E   E   M   S   
E   E   M   S   E   E   M   S   E   E   M   S   E   E   M   S   E   E   M   S   
E   E   M   S   E   E   M   S   E   E   M   S   E   E   M   S   E   E   M   S   
E   E   M   S   E   E   M   S   E   E   M   S   E   E   M   S   E   E   M   S   
E   E   M   S   E   E   M   S   E   E   M   S   E   E   M   S   E   E   M   S   
E   E   M   S   E   E   M   S   E   E   M   S   E   E   M   S   E   E   M   S   
E   E   M   S   E   E   M   S   E   E   M   S   E   E   M   S   E   E   M   S   
E   E   M   S   E   E   M   S   E   E   M   S   E   E   M   S   E   E   M   S   
E   E   M   S   E   E   M   S   E   E   M   S   E   E   M   S   E   E   M   S   
E   E   M   S   E   E   M   S   E   E   M   S   E   E   M   S   E   E   M   S   
E   E   M   S   E   E   M   S   E   E   M   S   E   E   M   S   E   E   M   S   
E   E   M   S   E   E   M   S   E   E   M   S   E   E   M   S   E   E   M   S   
E   E   M   S   E   E   M   S   E   E   M   S   E   E   M   S   E   E   M   S   
E   E   M   S   E   E   M   S   E   E   M   S   E   E   M   S   E   E   M   S   
E   E   M   S   E   E   M   S   E   E   M   S   E   E   M   S   E   E   M   S   
E   E   M   S   E   E   M   S   E   E   M   S   E   E   M   S   E   E   M   S   
E   E   M   S   E   E   M   S   E   E   M   S   E   E   M   S   E   E   M   S   
E   E   M   S   E   E   M   S   E   E   M   S   E   E   M   S   E   E   M   S   
E   E   M   S   E   E   M   S   E   E   M   S   E   E   M   S   E   E   M   S   
E   E   M   S   E   E   M   S   E   E   M   S   E   E   M   S   E   E   M   S   
E   E   M   S   E   E   M   S   E   E   M   S   E   E   M   S   E   E   M   S   
E   E   M   S   E   E   M   S   E   E   M   S   E   E   M   S   E   E   M   S   
E   E   M   S   E   E   M   S   E   E   M   S   E   E   M   S   E   E   M   S   
E   E   M   S   E   E   M   S   E   E   M   S   E   E   M   S   E   E   M   S   
E   E   M   S   E   E   M   S   E   E   M   S   E   E   M   S   E   E   M   S   
E   E   M   S   E   E   M   S   E   E   M   S   E   E   M   S   E   E   M   S   
E   E   M   S   E   E   M   S   E   E   M   S   E   E   M   S   E   E   M   S   
E   E   M   S   E   E   M   S   E   E   M   S   E   E   M   S   E   E   M   S   
E   E   M   S   E   E   M   S   E   E   M   S   E   E   M   S   E   E   M   S   
E   E   M   S   E   E   M   S   E   E   M   S   E   E   M   S   E   E   M   S   
E   E   M   S   E   E   M   S   E   E   M   S   E   E   M   S   E   E   M   S   
E   E   M   S   E   E   M   S   E   E   M   S   E   E   M   S   E   E   M   S   
E   E   M   S   E   E   M   S   E   E   M   S   E   E   M   S   E   E   M   S   
E   E   M   S   E   E   M   S   E   E   M   S   E   E   M   S   E   E   M   S   
E   E   M   S   E   E   M   S   E   E   M   S   E   E   M   S   E   E   M   S   
E   E   M   S   E   E   M   S   E   E   M   S   E   E   M   S   E   E   M   S   
E   E   M   S   E   E   M   S   E   E   M   S   E   E   M   S   E   E   M   S   
E   E   M   S   E   E   M   S   E   E   M   S   E   E   M   S   E   E   M   S   
E   E   M   S   E   E   M   S   E   E   M   S   E   E   M   S   E   E   M   S   
E   E   M   S   E   E   M   S   E   E   M   S   E   E   M   S   E   E   M   S   
E   E   M   S   E   E   M   S   E   E   M   S   E   E   M   S   E   E   M   S   
E   E   M   S   E   E   M   S   E   E   M   S   E   E   M   S   E   E   M   S   
E   E   M   S   E   E   M   S   E   E   M   S   E   E   M   S   E   E   M   S   
E   E   M   S   E   E   M   S   E   E   M   S   E   E   M   S   E   E   M   S   
E   E   M   S   E   E   M   S   E   E   M   S   E   E   M   S   E   E   M   S   
E   E   M   S   E   E   M   S   E   E   M   S   E   E   M   S   E   E   M   S   
E   E   M   S   E   E   M   S   E   E   M   S   E   E   M   S   E   E   M   S   
E   E   M   S   E   E   M   S   E   E   M   S   E   E   M   S   E   E   M   S   
E   E   M   S   E   E   M   S   E   E   M   S   E   E   M   S   E   E   M   S   
E   E   M   S   E   E   M   S   E   E   M   S   E   E   M   S   E   E   M   S   
E   E   M   S   E   E   M   S   E   E   M   S   E   E   M   S   E   E   M   S   
E   E   M   S   E   E   M   S   E   E   M   S   E   E   M   S   E   E   M   S   
E   E   M   S   E   E   M   S   E   E   M   S   E   E   M   S   E   E   M   S   
E   E   M   S   E   E   M   S   E   E   M   S   E   E   M   S   E   E   M   S   
E   E   M   S   E   E   M   S   E   E   M   S   E   E   M   S   E   E   M   S   
E   E   M   S   E   E   M   S   E   E   M   S   E   E   M   S   E   E   M   S   
E   E   M   S   E   E   M   S   E   E   M   S   E   E   M   S   E   E   M   S   
E   E   M   S   E   E   M   S   E   E   M   S   E   E   M   S   E   E   M   S   
E   E   M   S   E   E   M   S   E   E   M   S   E   E   M   S   E   E   M   S   
E   E   M   S   E   E   M   S   E   E   M   S   E   E   M   S   E   E   M   S   
E   E   M   S   E   E   M   S   E   E   M   S   E   E   M   S   E   E   M   S   
E   E   M   S   E   E   M   S   E   E   M   S   E   E   M   S   E   E   M   S   
E   E   M   S   E   E   M   S   E   E   M   S   E   E   M   S   E   E   M   S   
E   E   M   S   E   E   M   S   E   E   M   S   E   E   M   S   E   E   M   S   
E   E   M   S   E   E   M   S   E   E   M   S   E   E   M   S   E   E   M   S   
E   E   M   S   E   E   M   S   E   E   M   S   E   E   M   S   E   E   M   S   
E   E   M   S   E   E   M   S   E   E   M   S   E   E   M   S   E   E   M   S   
E   E   M   S   E   E   M   S   E   E   M   S   E   E   M   S   E   E   M   S   
E   E   M   S   E   E   M   S   E   E   M   S   E   E   M   S   E   E   M   S   
E   E   M   S   E   E   M   S   E   E   M   S   E   E   M   S   E   E   M   S   
E   E   M   S   E   E   M   S   E   E   M   S   E   E   M   S   E   E   M   S   
E   E   M   S   E   E   M   S   E   E   M   S   E   E   M   S   E   E   M   S   
E   E   M   S   E   E   M   S   E   E   M   S   E   E   M   S   E   E   M   S   
E   E   M   S   E   E   M   S   E   E   M   S   E   E   M   S   E   E   M   S   
E   E   M   S   E   E   M   S   E   E   M   S   E   E   M   S   E   E   M   S   
E   E   M   S   E   E   M   S   E   E   M   S   E   E   M   S   E   E   M   S   
E   E   M   S   E   E   M   S   E   E   M   S   E   E   M   S   E   E   M   S   
E   E   M   S   E   E   M   S   E   E   M   S   E   E   M   S   E   E   M   S   
E   E   M   S   E   E   M   S   E   E   M   S   E   E   M   S   E   E   M   S   
E   E   M   S   E   E   M   S   E   E   M   S   E   E   M   S   E   E   M   S   
E   E   M   S   E   E   M   S   E   E   M   S   E   E   M   S   E   E   M   S   
E   E   M   S   E   E   M   S   E   E   M   S   E   E   M   S   E   E   M   S   
E   E   M   S   E   E   M   S   E   E   M   S   E   E   M   S   E   E   M   S   
E   E   M   S   E   E   M   S   E   E   M   S   E   E   M   S   E   E   M   S   
E   E   M   S   E   E   M   S   E   E   M   S   E   E   M   S   E   E   M   S   
E   E   M   S   E   E   M   S   E   E   M   S   E   E   M   S   E   E   M   S   
E   E   M   S   E   E   M   S   E   E   M   S   E   E   M   S   E   E   M   S   
E   E   M   S   E   E   M   S   E   E   M   S   E   E   M   S   E   E   M   S   
E   E   M   S   E   E   M   S   E   E   M   S   E   E   M   S   E   E   M   S   
E   E   M   S   E   E   M   S   E   E   M   S   E   E   M   S   E   E   M   S   
E   E   M   S   E   E   M   S   E   E   M   S   E   E   M   S   E   E   M   S   
E   E   M   S   E   E   M   S   E   E   M   S   E   E   M   S   E   E   M   S   
E   E   M   S   E   E   M   S   E   E   M   S   E   E   M   S   E   E   M   S   
E   E   M   S   E   E   M   S   E   E   M   S   E   E   M   S   E   E   M   S   
E   E   M   S   E   E   M   S   E   E   M   S   E   E   M   S   E   E   M   S   
E   E   M   S   E   E   M   S   E   E   M   S   E   E   M   S   E   E   M   S   
E   E   M   S   E   E   M   S   E   E   M   S   E   E   M   S   E   E   M   S   
E   E   M   S   E   E   M   S   E   E   M   S   E   E   M   S   E   E   M   S   
E   E   M   S   E   E   M   S   E   E   M   S   E   E   M   S   E   E   M   S   
E   E   M   S   E   E   M   S   E   E   M   S   E   E   M   S   E   E   M   S   
E   E   M   S   E   E   M   S   E   E   M   S   E   E   M   S   E   E   M   S   
E   E   M   S   E   E   M   S   E   E   M   S   E   E   M   S   E   E   M   S   
E   E   M   S   E   E   M   S   E   E   M   S   E   E   M   S   E   E   M   S   
E   E   M   S   E   E   M   S   E   E   M   S   E   E   M   S   E   E   M   S   
E   E   M   S   E   E   M   S   E   E   M   S   E   E   M   S   E   E   M   S   
E   E   M   S   E   E   M   S   E   E   M   S   E   E   M   S   E   E   M   S   
E   E   M   S   E   E   M   S   E   E   M   S   E   E   M   S   E   E   M   S   
E   E   M   S   E   E   M   S   E   E   M   S   E   E   M   S   E   E   M   S   
E   E   M   S   E   E   M   S   E   E   M   S   E   E   M   S   E   E   M   S   
E   E   M   S   E   E   M   S   E   E   M   S   E   E   M   S   E   E   M   S   
E   E   M   S   E   E   M   S   E   E   M   S   E   E   M   S   E   E   M   S   
E   E   M   S   E   E   M   S   E   E   M   S   E   E   M   S   E   E   M   S   
E   E   M   S   E   E   M   S   E   E   M   S   E   E   M   S   E   E   M   S   
E   E   M   S   E   E   M   S   E   E   M   S   E   E   M   S   E   E   M   S   
E   E   M   S   E   E   M   S   E   E   M   S   E   E   M   S   E   E   M   S   
E   E   M   S   E   E   M   S   E   E   M   S   E   E   M   S   E   E   M   S   
E   E   M   S   E   E   M   S   E   E   M   S   E   E   M   S   E   E   M   S   
E   E   M   S   E   E   M   S   E   E   M   S   E   E   M   S   E   E   M   S   
E   E   M   S   E   E   M   S   E   E   M   S   E   E   M   S   E   E   M   S   
E   E   M   S   E   E   M   S   E   E   M   S   E   E   M   S   E   E   M   S   
E   E   M   S   E   E   M   S   E   E   M   S   E   E   M   S   E   E   M   S   
E   E   M   S   E   E   M   S   E   E   M   S   E   E   M   S   E   E   M   S   
E   E   M   S   E   E   M   S   E   E   M   S   E   E   M   S   E   E   M   S   
E   E   M   S   E   E   M   S   E   E   M   S   E   E   M   S   E   E   M   S   
E   E   M   S   E   E   M   S   E   E   M   S   E   E   M   S   E   E   M   S   
E   E   M   S   E   E   M   S   E   E   M   S   E   E   M   S   E   E   M   S   
E   E   M   S   E   E   M   S   E   E   M   S   E   E   M   S   E   E   M   S   
E   E   M   S   E   E   M   S   E   E   M   S   E   E   M   S   E   E   M   S   
E   E   M   S   E   E   M   S   E   E   M   S   E   E   M   S   E   E   M   S   
E   E   M   S   E   E   M   S   E   E   M   S   E   E   M   S   E   E   M   S   
E   E   M   S   E   E   M   S   E   E   M   S   E   E   M   S   E   E   M   S   
E   E   M   S   E   E   M   S   E   E   M   S   E   E   M   S   E   E   M   S   
E   E   M   S   E   E   M   S   E   E   M   S   E   E   M   S   E   E   M   S   
E   E   M   S   E   E   M   S   E   E   M   S   E   E   M   S   E   E   M   S   
E   E   M   S   E   E   M   S   E   E   M   S   E   E   M   S   E   E   M   S   
E   E   M   S   E   E   M   S   E   E   M   S   E   E   M   S   E   E   M   S   
E   E   M   S   E   E   M   S   E   E   M   S   E   E   M   S   E   E   M   S   
E   E   M   S   E   E   M   S   E   E   M   S   E   E   M   S   E   E   M   S   
E   E   M   S   E   E   M   S   E   E   M   S   E   E   M   S   E   E   M   S   
E   E   M   S   E   E   M   S   E   E   M   S   E   E   M   S   E   E   M   S   
E   E   M   S   E   E   M   S   E   E   M   S   E   E   M   S   E   E   M   S   
E   E   M   S   E   E   M   S   E   E   M   S   E   E   M   S   E   E   M   S   
E   E   M   S   E   E   M   S   E   E   M   S   E   E   M   S   E   E   M   S   
E   E   M   S   E   E   M   S   E   E   M   S   E   E   M   S   E   E   M   S   
E   E   M   S   E   E   M   S   E   E   M   S   E   E   M   S   E   E   M   S   
E   E   M   S   E   E   M   S   E   E   M   S   E   E   M   S   E   E   M   S   
E   E   M   S   E   E   M   S   E   E   M   S   E   E   M   S   E   E   M   S   
E   E   M   S   E   E   M   S   E   E   M   S   E   E   M   S   E   E   M   S   
E   E   M   S   E   E   M   S   E   E   M   S   E   E   M   S   E   E   M   S   
E   E   M   S   E   E   M   S   E   E   M   S   E   E   M   S   E   E   M   S   
E   E   M   S   E   E   M   S   E   E   M   S   E   E   M   S   E   E   M   S   
E   E   M   S   E   E   M   S   E   E   M   S   E   E   M   S   E   E   M   S   
E   E   M   S   E   E   M   S   E   E   M   S   E   E   M   S   E   E   M   S   
E   E   M   S   E   E   M   S   E   E   M   S   E   E   M   S   E   E   M   S   
E   E   M   S   E   E   M   S   E   E   M   S   E   E   M   S   E   E   M   S   
E   E   M   S   E   E   M   S   E   E   M   S   E   E   M   S   E   E   M   S   
E   E   M   S   E   E   M   S   E   E   M   S   E   E   M   S   E   E   M   S   
E   E   M   S   E   E   M   S   E   E   M   S   E   E   M   S   E   E   M   S   
E   E   M   S   E   E   M   S   E   E   M   S   E   E   M   S   E   E   M   S   
E   E   M   S   E   E   M   S   E   E   M   S   E   E   M   S   E   E   M   S   
E   E   M   S   E   E   M   S   E   E   M   S   E   E   M   S   E   E   M   S   
E   E   M   S   E   E   M   S   E   E   M   S   E   E   M   S   E   E   M   S   
E   E   M   S   E   E   M   S   E   E   M   S   E   E   M   S   E   E   M   S   
E   E   M   S   E   E   M   S   E   E   M   S   E   E   M   S   E   E   M   S   
E   E   M   S   E   E   M   S   E   E   M   S   E   E   M   S   E   E   M   S   
E   E   M   S   E   E   M   S   E   E   M   S   E   E   M   S   E   E   M   S   
E   E   M   S   E   E   M   S   E   E   M   S   E   E   M   S   E   E   M   S   
E   E   M   S   E   E   M   S   E   E   M   S   E   E   M   S   E   E   M   S   
E   E   M   S   E   E   M   S   E   E   M   S   E   E   M   S   E   E   M   S   
E   E   M   S   E   E   M   S   E   E   M   S   E   E   M   S   E   E   M   S   
E   E   M   S   E   E   
%FLAG JOIN_ARRAY                                                                
%FORMAT(10I8)                                                                   
       0       0       0       0       0       0       0       0       0       0
       0       0       0       0       0       0       0       0       0       0
       0       0       0       0       0       0       0       0       0       0
       0       0       0       0       0       0       0       0       0       0
       0       0       0       0       0       0       0       0       0       0
       0       0       0       0       0       0       0       0       0       0
       0       0       0       0       0       0       0       0       0       0
       0       0       0       0       0       0       0       0       0       0
       0       0       0       0       0       0       0       0       0       0
       0       0       0       0       0       0       0       0       0       0
       0       0       0       0       0       0       0       0       0       0
       0       0       0       0       0       0       0       0       0       0
       0       0       0       0       0       0       0       0       0       0
       0       0       0       0       0       0       0       0       0       0
       0       0       0       0       0       0       0       0       0       0
       0       0       0       0       0       0       0       0       0       0
       0       0       0       0       0       0       0       0       0       0
       0       0       0       0       0       0       0       0       0       0
       0       0       0       0       0       0       0       0       0       0
       0       0       0       0       0       0       0       0       0       0
       0       0       0       0       0       0       0       0       0       0
       0       0       0       0       0       0       0       0       0       0
       0       0       0       0       0       0       0       0       0       0
       0       0       0       0       0       0       0       0       0       0
       0       0       0       0       0       0       0       0       0       0
       0       0       0       0       0       0       0       0       0       0
       0       0       0       0       0       0       0       0       0       0
       0       0       0       0       0       0       0       0       0       0
       0       0       0       0       0       0       0       0       0       0
       0       0       0       0       0       0       0       0       0       0
       0       0       0       0       0       0       0       0       0       0
       0       0       0       0       0       0       0       0       0       0
       0       0       0       0       0       0       0       0       0       0
       0       0       0       0       0       0       0       0       0       0
       0       0       0       0       0       0       0       0       0       0
       0       0       0       0       0       0       0       0       0       0
       0       0       0       0       0       0       0       0       0       0
       0       0       0       0       0       0       0       0       0       0
       0       0       0       0       0       0       0       0       0       0
       0       0       0       0       0       0       0       0       0       0
       0       0       0       0       0       0       0       0       0       0
       0       0       0       0       0       0       0       0       0       0
       0       0       0       0       0       0       0       0       0       0
       0       0       0       0       0       0       0       0       0       0
       0       0       0       0       0       0       0       0       0       0
       0       0       0       0       0       0       0       0       0       0
       0       0       0       0       0       0       0       0       0       0
       0       0       0       0       0       0       0       0       0       0
       0       0       0       0       0       0       0       0       0       0
       0       0       0       0       0       0       0       0       0       0
       0       0       0       0       0       0       0       0       0       0
       0       0       0       0       0       0       0       0       0       0
       0       0       0       0       0       0       0       0       0       0
       0       0       0       0       0       0       0       0       0       0
       0       0       0       0       0       0       0       0       0       0
       0       0       0       0       0       0       0       0       0       0
       0       0       0       0       0       0       0       0       0       0
       0       0       0       0       0       0       0       0       0       0
       0       0       0       0       0       0       0       0       0       0
       0       0       0       0       0       0       0       0       0       0
       0       0       0       0       0       0       0       0       0       0
       0       0       0       0       0       0       0       0       0       0
       0       0       0       0       0       0       0       0       0       0
       0       0       0       0       0       0       0       0       0       0
       0       0       0       0       0       0       0       0       0       0
       0       0       0       0       0       0       0       0       0       0
       0       0       0       0       0       0       0       0       0       0
       0       0       0       0       0       0       0       0       0       0
       0       0       0       0       0       0       0       0       0       0
       0       0       0       0       0       0       0       0       0       0
       0       0       0       0       0       0       0       0       0       0
       0       0       0       0       0       0       0       0       0       0
       0       0       0       0       0       0       0       0       0       0
       0       0       0       0       0       0       0       0       0       0
       0       0       0       0       0       0       0       0       0       0
       0       0       0       0       0       0       0       0       0       0
       0       0       0       0       0       0       0       0       0       0
       0       0       0       0       0       0       0       0       0       0
       0       0       0       0       0       0       0       0       0       0
       0       0       0       0       0       0       0       0       0       0
       0       0       0       0       0       0       0       0       0       0
       0       0       0       0       0       0       0       0       0       0
       0       0       0       0       0       0       0       0       0       0
       0       0       0       0       0       0       0       0       0       0
       0       0       0       0       0       0       0       0       0       0
       0       0       0       0       0       0       0       0       0       0
       0       0       0       0       0       0       0       0       0       0
       0       0       0       0       0       0       0       0       0       0
       0       0       0       0       0       0       0       0       0       0
       0       0       0       0       0       0       0       0       0       0
       0       0       0       0       0       0       0       0       0       0
       0       0       0       0       0       0       0       0       0       0
       0       0       0       0       0       0       0       0       0       0
       0       0       0       0       0       0       0       0       0       0
       0       0       0       0       0       0       0       0       0       0
       0       0       0       0       0       0       0       0       0       0
       0       0       0       0       0       0       0       0       0       0
       0       0       0       0       0       0       0       0       0       0
       0       0       0       0       0       0       0       0       0       0
       0       0       0       0       0       0       0       0       0       0
       0       0       0       0       0       0       0       0       0       0
       0       0       0       0       0       0       0       0       0       0
       0       0       0       0       0       0       0       0       0       0
       0       0       0       0       0       0       0       0       0       0
       0       0       0       0       0       0       0       0       0       0
       0       0       0       0       0       0       0       0       0       0
       0       0       0       0       0       0       0       0       0       0
       0       0       0       0       0       0       0       0       0       0
       0       0       0       0       0       0       0       0       0       0
       0       0       0       0       0       0       0       0       0       0
       0       0       0       0       0       0       0       0       0       0
       0       0       0       0       0       0       0       0       0       0
       0       0       0       0       0       0       0       0       0       0
       0       0       0       0       0       0       0       0       0       0
       0       0       0       0       0       0       0       0       0       0
       0       0       0       0       0       0       0       0       0       0
       0       0       0       0       0       0       0       0       0       0
       0       0       0       0       0       0       0       0       0       0
       0       0       0       0       0       0       0       0       0       0
       0       0       0       0       0       0       0       0       0       0
       0       0       0       0       0       0       0       0       0       0
       0       0       0       0       0       0       0       0       0       0
       0       0       0       0       0       0       0       0       0       0
       0       0       0       0       0       0       0       0       0       0
       0       0       0       0       0       0       0       0       0       0
       0       0       0       0       0       0       0       0       0       0
       0       0       0       0       0       0       0       0       0       0
       0       0       0       0       0       0       0       0       0       0
       0       0       0       0       0       0       0       0       0       0
       0       0       0       0       0       0       0       0       0       0
       0       0       0       0       0       0       0       0       0       0
       0       0       0       0       0       0       0       0       0       0
       0       0       0       0       0       0       0       0       0       0
       0       0       0       0       0       0       0       0       0       0
       0       0       0       0       0       0       0       0       0       0
       0       0       0       0       0       0       0       0       0       0
       0       0       0       0       0       0       0       0       0       0
       0       0       0       0       0       0       0       0       0       0
       0       0       0       0       0       0       0       0       0       0
       0       0       0       0       0       0       0       0       0       0
       0       0       0       0       0       0       0       0       0       0
       0       0       0       0       0       0       0       0       0       0
       0       0       0       0       0       0       0       0       0       0
       0       0       0       0       0       0       0       0       0       0
       0       0       0       0       0       0       0       0       0       0
       0       0       0       0       0       0       0       0       0       0
       0       0       0       0       0       0       0       0       0       0
       0       0       0       0       0       0       0       0       0       0
       0       0       0       0       0       0       0       0       0       0
       0       0       0       0       0       0       0       0       0       0
       0       0       0       0       0       0       0       0       0       0
       0       0       0       0       0       0       0       0       0       0
       0       0       0       0       0       0       0       0       0       0
       0       0       0       0       0       0       0       0       0       0
       0       0       0       0       0       0       0       0       0       0
       0       0       0       0       0       0       0       0       0       0
       0       0       0       0       0       0       0       0       0       0
       0       0       0       0       0       0       0       0       0       0
       0       0       0       0       0       0       0       0       0       0
       0       0       0       0       0       0       0       0       0       0
       0       0       0       0       0       0       0       0       0       0
       0       0       0       0       0       0       0       0       0       0
       0       0       0       0       0       0       0       0       0       0
       0       0       0       0       0       0       0       0       0       0
       0       0       0       0       0       0       0       0       0       0
       0       0       0       0       0       0       0       0       0       0
       0       0       0       0       0       0       0       0       0       0
       0       0       0       0       0       0       0       0       0       0
       0       0       0       0       0       0       0       0       0       0
       0       0       0       0       0       0       0       0       0       0
       0       0       0       0       0       0       0       0       0       0
       0       0       0       0       0       0       0       0       0       0
       0       0       0       0       0       0       0       0       0       0
       0       0       0       0       0       0       0       0       0       0
       0       0       0       0       0       0       0       0       0       0
       0       0       0       0       0       0       0       0       0       0
       0       0       0       0       0       0       0       0       0       0
       0       0       0       0       0       0       0       0       0       0
       0       0       0       0       0       0       0       0       0       0
       0       0       0       0       0       0       0       0       0       0
       0       0       0       0       0       0       0       0       0       0
       0       0       0       0       0       0       0       0       0       0
       0       0       0       0       0       0       0       0       0       0
       0       0       0       0       0       0       0       0       0       0
       0       0       0       0       0       0       0       0       0       0
       0       0       0       0       0       0       0       0       0       0
       0       0       0       0       0       0       0       0       0       0
       0       0       0       0       0       0       0       0       0       0
       0       0       0       0       0       0       0       0       0       0
       0       0       0       0       0       0       0       0       0       0
       0       0       0       0       0       0       0       0       0       0
       0       0       0       0       0       0       0       0       0       0
       0       0       0       0       0       0       0       0       0       0
       0       0       0       0       0       0       0       0       0       0
       0       0       0       0       0       0       0       0       0       0
       0       0       0       0       0       0       0       0       0       0
       0       0       0       0       0       0       0       0       0       0
       0       0       0       0       0       0       0       0       0       0
       0       0       0       0       0       0       0       0       0       0
       0       0       0       0       0       0       0       0       0       0
       0       0       0       0       0       0       0       0       0       0
       0       0       0       0       0       0       0       0       0       0
       0       0       0       0       0       0       0       0       0       0
       0       0       0       0       0       0       0       0       0       0
       0       0       0       0       0       0       0       0       0       0
       0       0       0       0       0       0       0       0       0       0
       0       0       0       0       0       0       0       0       0       0
       0       0       0       0       0       0       0       0       0       0
       0       0       0       0       0       0       0       0       0       0
       0       0       0       0       0       0       0       0       0       0
       0       0       0       0       0       0       0       0       0       0
       0       0       0       0       0       0       0       0       0       0
       0       0       0       0       0       0       0       0       0       0
       0       0       0       0       0       0       0       0       0       0
       0       0       0       0       0       0       0       0       0       0
       0       0       0       0       0       0       0       0       0       0
       0       0       0       0       0       0       0       0       0       0
       0       0       0       0       0       0       0       0       0       0
       0       0       0       0       0       0       0       0       0       0
       0       0       0       0       0       0       0       0       0       0
       0       0       0       0       0       0       0       0       0       0
       0       0       0       0       0       0       0       0       0       0
       0       0       0       0       0       0       0       0       0       0
       0       0       0       0       0       0       0       0       0       0
       0       0       0       0       0       0       0       0       0       0
       0       0       0       0       0       0       0       0       0       0
       0       0       0       0       0       0       0       0       0       0
       0       0       0       0       0       0       0       0       0       0
       0       0       0       0       0       0       0       0       0       0
       0       0       0       0       0       0       0       0       0       0
       0       0       0       0       0       0       0       0       0       0
       0       0       0       0       0       0       0       0       0       0
       0       0       0       0       0       0       0       0       0       0
       0       0       0       0       0       0       0       0       0       0
       0       0       0       0       0       0       0       0       0       0
       0       0       0       0       0       0       0       0       0       0
       0       0       0       0       0       0       0       0       0       0
       0       0       0       0       0       0       0       0       0       0
       0       0       0       0       0       0       0       0       0       0
       0       0       0       0       0       0       0       0       0       0
       0       0       0       0       0       0       0       0       0       0
       0       0       0       0       0       0       0       0       0       0
       0       0       0       0       0       0       0       0       0       0
       0       0       0       0       0       0       0       0       0       0
       0       0       0       0       0       0       0       0       0       0
       0       0       0       0       0       0       0       0       0       0
       0       0       0       0       0       0       0       0       0       0
       0       0       0       0       0       0       0       0       0       0
       0       0       0       0       0       0       0       0       0       0
       0       0       0       0       0       0       0       0       0       0
       0       0       0       0       0       0       0       0       0       0
       0       0       0       0       0       0       0       0       0       0
       0       0       0       0       0       0       0       0       0       0
       0       0       0       0       0       0       0       0       0       0
       0       0       0       0       0       0       0       0       0       0
       0       0       0       0       0       0       0       0       0       0
       0       0       0       0       0       0       0       0       0       0
       0       0       0       0       0       0       0       0       0       0
       0       0       0       0       0       0       0       0       0       0
       0       0       0       0       0       0       0       0       0       0
       0       0       0       0       0       0       0       0       0       0
       0       0       0       0       0       0       0       0       0       0
       0       0       0       0       0       0       0       0       0       0
       0       0       0       0       0       0       0       0       0       0
       0       0       0       0       0       0       0       0       0       0
       0       0       0       0       0       0       0       0       0       0
       0       0       0       0       0       0       0       0       0       0
       0       0       0       0       0       0       0       0       0       0
       0       0       0       0       0       0       0       0       0       0
       0       0       0       0       0       0       0       0       0       0
       0       0       0       0       0       0       0       0       0       0
       0       0       0       0       0       0       0       0       0       0
       0       0       0       0       0       0       0       0       0       0
       0       0       0       0       0       0       0       0       0       0
       0       0       0       0       0       0       0       0       0       0
       0       0       0       0       0       0       0       0       0       0
       0       0       0       0       0       0       0       0       0       0
       0       0       0       0       0       0       0       0       0       0
       0       0       0       0       0       0       0       0       0       0
       0       0       0       0       0       0       0       0       0       0
       0       0       0       0       0       0       0       0       0       0
       0       0       0       0       0       0       0       0       0       0
       0       0       0       0       0       0       0       0       0       0
       0       0       0       0       0       0       0       0       0       0
       0       0       0       0       0       0       0       0       0       0
       0       0       0       0       0       0       0       0       0       0
       0       0       0       0       0       0       0       0       0       0
       0       0       0       0       0       0       0       0       0       0
       0       0       0       0       0       0       0       0       0       0
       0       0       0       0       0       0       0       0       0       0
       0       0       0       0       0       0       0       0       0       0
       0       0       0       0       0       0       0       0       0       0
       0       0       0       0       0       0       0       0       0       0
       0       0       0       0       0       0       0       0       0       0
       0       0       0       0       0       0       0       0       0       0
       0       0       0       0       0       0       0       0       0       0
       0       0       0       0       0       0       0       0       0       0
       0       0       0       0       0       0       0       0       0       0
       0       0       0       0       0       0       0       0       0       0
       0       0       0       0       0       0       0       0       0       0
       0       0       0       0       0       0       0       0       0       0
       0       0       0       0       0       0       0       0       0       0
       0       0       0       0       0       0       0       0       0       0
       0       0       0       0       0       0       0       0       0       0
       0       0       0       0       0       0       0       0       0       0
       0       0       0       0       0       0       0       0       0       0
       0       0       0       0       0       0       0       0       0       0
       0       0       0       0       0       0       0       0       0       0
       0       0       0       0       0       0       0       0       0       0
       0       0       0       0       0       0       0       0       0       0
       0       0       0       0       0       0       0       0       0       0
       0       0       0       0       0       0       0       0       0       0
       0       0       0       0       0       0       0       0       0       0
       0       0       0       0       0       0       0       0       0       0
       0       0       0       0       0       0       0       0       0       0
       0       0       0       0       0       0       0       0       0       0
       0       0       0       0       0       0       0       0       0       0
       0       0       0       0       0       0       0       0       0       0
       0       0       0       0       0       0       0       0       0       0
       0       0       0       0       0       0       0       0       0       0
       0       0       0       0       0       0       0       0       0       0
       0       0       0       0       0       0       0       0       0       0
       0       0       0       0       0       0       0       0       0       0
       0       0       0       0       0       0       0       0       0       0
       0       0       0       0       0       0       0       0       0       0
       0       0       0       0       0       0       0       0       0       0
       0       0       0       0       0       0       0       0       0       0
       0       0       0       0       0       0       0       0       0       0
       0       0       0       0       0       0       0       0       0       0
       0       0       0       0       0       0       0       0       0       0
       0       0       0       0       0       0       0       0       0       0
       0       0       0       0       0       0       0       0       0       0
       0       0       0       0       0       0       0       0       0       0
       0       0       0       0       0       0       0       0       0       0
       0       0       0       0       0       0       0       0       0       0
       0       0       0       0       0       0       0       0       0       0
       0       0       0       0       0       0       0       0       0       0
       0       0       0       0       0       0       0       0       0       0
       0       0       0       0       0       0       0       0       0       0
       0       0       0       0       0       0       0       0       0       0
       0       0       0       0       0       0       0       0       0       0
       0       0       0       0       0       0       0       0       0       0
       0       0       0       0       0       0       0       0       0       0
       0       0       0       0       0       0       0       0       0       0
       0       0       0       0       0       0       0       0       0       0
       0       0       0       0       0       0       0       0       0       0
       0       0       0       0       0       0       0       0       0       0
       0       0       0       0       0       0       0       0       0       0
       0       0       0       0       0       0       0       0       0       0
       0       0       0       0       0       0       0       0       0       0
       0       0       0       0       0       0       0       0       0       0
       0       0       0       0       0       0       0       0       0       0
       0       0       0       0       0       0       0       0       0       0
       0       0       0       0       0       0       0       0       0       0
       0       0       0       0       0       0       0       0       0       0
       0       0       0       0       0       0       0       0       0       0
       0       0       0       0       0       0       0       0       0       0
       0       0       0       0       0       0       0       0       0       0
       0       0       0       0       0       0       0       0       0       0
       0       0       0       0       0       0       0       0       0       0
       0       0       0       0       0       0       0       0       0       0
       0       0       0       0       0       0       0       0       0       0
       0       0       0       0       0       0       0       0       0       0
       0       0       0       0       0       0       0       0       0       0
       0       0       0       0       0       0       0       0       0       0
       0       0       0       0       0       0       0       0       0       0
       0       0       0       0       0       0       0       0       0       0
       0       0       0       0       0       0       0       0       0       0
       0       0       0       0       0       0       0       0       0       0
       0       0       0       0       0       0       0       0       0       0
       0       0       0       0       0       0       0       0       0       0
       0       0       0       0       0       0       0       0       0       0
       0       0       0       0       0       0       0       0       0       0
       0       0       0       0       0       0       0       0       0       0
       0       0       0       0       0       0       0       0       0       0
       0       0       0       0       0       0       0       0       0       0
       0       0       0       0       0       0       0       0       0       0
       0       0       0       0       0       0       0       0       0       0
       0       0       0       0       0       0       0       0       0       0
       0       0       0       0       0       0       0       0       0       0
       0       0       0       0       0       0       0       0       0       0
       0       0       0       0       0       0       0       0       0       0
       0       0       0       0       0       0       0       0       0       0
       0       0       0       0       0       0       0       0       0       0
       0       0       0       0       0       0       0       0       0       0
       0       0       0       0       0       0       0       0       0       0
       0       0       0       0       0       0       0       0       0       0
       0       0       0       0       0       0       0       0       0       0
       0       0       0       0       0       0       0       0       0       0
       0       0       0       0       0       0       0       0       0       0
       0       0       0       0       0       0       0       0       0       0
       0       0       0       0       0       0       0       0       0       0
       0       0       0       0       0       0       0       0       0       0
       0       0       0       0       0       0       0       0       0       0
       0       0       0       0       0       0       0       0       0       0
       0       0       0       0       0       0       0       0       0       0
       0       0       0       0       0       0       0       0       0       0
       0       0       0       0       0       0       0       0       0       0
       0       0       0       0       0       0       0       0       0       0
       0       0       0       0       0       0       0       0       0       0
       0       0       0       0       0       0       0       0       0       0
       0       0       0       0       0       0       0       0       0       0
       0       0       0       0       0       0       0       0       0       0
       0       0       0       0       0       0       0       0       0       0
       0       0       0       0       0       0       0       0       0       0
       0       0       0       0       0       0       0       0       0       0
       0       0       0       0       0       0       0       0       0       0
       0       0       0       0       0       0       0       0       0       0
       0       0       0       0       0       0       0       0       0       0
       0       0       0       0       0       0       0       0       0       0
       0       0       0       0       0       0       0       0       0       0
       0       0       0       0       0       0       0       0       0       0
       0       0       0       0       0       0       0       0       0       0
       0       0       0       0       0       0       0       0       0       0
       0       0       0       0       0       0       0       0       0       0
       0       0       0       0       0       0       0       0       0       0
       0       0       0       0       0       0       0       0       0       0
       0       0       0       0       0       0       0       0       0       0
       0       0       0       0       0       0       0       0       0       0
       0       0       0       0       0       0       0       0       0       0
       0       0       0       0       0       0       0       0       0       0
       0       0       0       0       0       0       0       0       0       0
       0       0       0       0       0       0       0       0       0       0
       0       0       0       0       0       0       0       0       0       0
       0       0       0       0       0       0       0       0       0       0
       0       0       0       0       0       0       0       0       0       0
       0       0       0       0       0       0       0       0       0       0
       0       0       0       0       0       0       0       0       0       0
       0       0       0       0       0       0       0       0       0       0
       0       0       0       0       0       0       0       0       0       0
       0       0       0       0       0       0       0       0       0       0
       0       0       0       0       0       0       0       0       0       0
       0       0       0       0       0       0       0       0       0       0
       0       0       0       0       0       0       0       0       0       0
       0       0       0       0       0       0       0       0       0       0
       0       0       0       0       0       0       0       0       0       0
       0       0       0       0       0       0       0       0       0       0
       0       0       0       0       0       0       0       0       0       0
       0       0       0       0       0       0       0       0       0       0
       0       0       0       0       0       0       0       0       0       0
       0       0       0       0       0       0       0       0       0       0
       0       0       0       0       0       0       0       0       0       0
       0       0       0       0       0       0       0       0       0       0
       0       0       0       0       0       0       0       0       0       0
       0       0       0       0       0       0       0       0       0       0
       0       0       0       0       0       0       0       0       0       0
       0       0       0       0       0       0       0       0       0       0
       0       0       0       0       0       0       0       0       0       0
       0       0       0       0       0       0       0       0       0       0
       0       0       0       0       0       0       0       0       0       0
       0       0       0       0       0       0       0       0       0       0
       0       0       0       0       0       0       0       0       0       0
       0       0       0       0       0       0       0       0       0       0
       0       0       0       0       0       0       0       0       0       0
       0       0       0       0       0       0       0       0       0       0
       0       0       0       0       0       0       0       0       0       0
       0       0       0       0       0       0       0       0       0       0
       0       0       0       0       0       0       0       0       0       0
       0       0       0       0       0       0       0       0       0       0
       0       0       0       0       0       0       0       0       0       0
       0       0       0       0       0       0       0       0       0       0
       0       0       0       0       0       0       0       0       0       0
       0       0       0       0       0       0       0       0       0       0
       0       0       0       0       0       0       0       0       0       0
       0       0       0       0       0       0       0       0       0       0
       0       0       0       0       0       0       0       0       0       0
       0       0       0       0       0       0       0       0       0       0
       0       0       0       0       0       0       0       0       0       0
       0       0       0       0       0       0       0       0       0       0
       0       0       0       0       0       0       0       0       0       0
       0       0       0       0       0       0       0       0       0       0
       0       0       0       0       0       0       0       0       0       0
       0       0       0       0       0       0       0       0       0       0
       0       0       0       0       0       0       0       0       0       0
       0       0       0       0       0       0       0       0       0       0
       0       0       0       0       0       0       0       0       0       0
       0       0       0       0       0       0       0       0       0       0
       0       0       0       0       0       0       0       0       0       0
       0       0       0       0       0       0       0       0       0       0
       0       0       0       0       0       0       0       0       0       0
       0       0       0       0       0       0       0       0       0       0
       0       0       0       0       0       0       0       0       0       0
       0       0       0       0       0       0       0       0       0       0
       0       0       0       0       0       0       0       0       0       0
       0       0       0       0       0       0       0       0       0       0
       0       0       0       0       0       0       0       0       0       0
       0       0       0       0       0       0       0       0       0       0
       0       0       0       0       0       0       0       0       0       0
       0       0       0       0       0       0       0       0       0       0
       0       0       0       0       0       0       0       0       0       0
       0       0       0       0       0       0       0       0       0       0
       0       0       0       0       0       0       0       0       0       0
       0       0       0       0       0       0       0       0       0       0
       0       0       0       0       0       0       0       0       0       0
       0       0       0       0       0       0       0       0       0       0
       0       0       0       0       0       0       0       0       0       0
       0       0       0       0       0       0       0       0       0       0
       0       0       0       0       0       0       0       0       0       0
       0       0       0       0       0       0       0       0       0       0
       0       0       0       0       0       0       0       0       0       0
       0       0       0       0       0       0       0       0       0       0
       0       0       0       0       0       0       0       0       0       0
       0       0       0       0       0       0       0       0       0       0
       0       0       0       0       0       0       0       0       0       0
       0       0       0       0       0       0       0       0       0       0
       0       0       0       0       0       0       0       0       0       0
       0       0       0       0       0       0       0       0       0       0
       0       0       0       0       0       0       0       0       0       0
       0       0       0       0       0       0       0       0       0       0
       0       0       0       0       0       0       0       0       0       0
       0       0       0       0       0       0       0       0       0       0
       0       0       0       0       0       0       0       0       0       0
       0       0       0       0       0       0       0       0       0       0
       0       0       0       0       0       0       0       0       0       0
       0       0       0       0       0       0       0       0       0       0
       0       0       0       0       0       0       0       0       0       0
       0       0       0       0       0       0       0       0       0       0
       0       0       0       0       0       0       0       0       0       0
       0       0       0       0       0       0       0       0       0       0
       0       0       0       0       0       0       0       0       0       0
       0       0       0       0       0       0       0       0       0       0
       0       0       0       0       0       0       0       0       0       0
       0       0       0       0       0       0       0       0       0       0
       0       0       0       0       0       0       0       0       0       0
       0       0       0       0       0       0       0       0       0       0
       0       0       0       0       0       0       0       0       0       0
       0       0       0       0       0       0       0       0       0       0
       0       0       0       0       0       0       0       0       0       0
       0       0       0       0       0       0       0       0       0       0
       0       0       0       0       0       0       0       0       0       0
       0       0       0       0       0       0       0       0       0       0
       0       0       0       0       0       0       0       0       0       0
       0       0       0       0       0       0       0       0       0       0
       0       0       0       0       0       0       0       0       0       0
       0       0       0       0       0       0       0       0       0       0
       0       0       0       0       0       0       0       0       0       0
       0       0       0       0       0       0       0       0       0       0
       0       0       0       0       0       0       0       0       0       0
       0       0       0       0       0       0       0       0       0       0
       0       0       0       0       0       0       0       0       0       0
       0       0       0       0       0       0       0       0       0       0
       0       0       0       0       0       0       0       0       0       0
       0       0       0       0       0       0       0       0       0       0
       0       0       0       0       0       0       0       0       0       0
       0       0       0       0       0       0       0       0       0       0
       0       0       0       0       0       0       0       0       0       0
       0       0       0       0       0       0       0       0       0       0
       0       0       0       0       0       0       0       0       0       0
       0       0       0       0       0       0       0       0       0       0
       0       0       0       0       0       0       0       0       0       0
       0       0       0       0       0       0       0       0       0       0
       0       0       0       0       0       0       0       0       0       0
       0       0       0       0       0       0       0       0       0       0
       0       0       0       0       0       0       0       0       0       0
       0       0       0       0       0       0       0       0       0       0
       0       0       0       0       0       0       0       0       0       0
       0       0       0       0       0       0       0       0       0       0
       0       0       0       0       0       0       0       0       0       0
       0       0       0       0       0       0       0       0       0       0
       0       0       0       0       0       0       0       0       0       0
       0       0       0       0       0       0       0       0       0       0
       0       0       0       0       0       0       0       0       0       0
       0       0       0       0       0       0       0       0       0       0
       0       0       0       0       0       0       0       0       0       0
       0       0       0       0       0       0       0       0       0       0
       0       0       0       0       0       0       0       0       0       0
       0       0       0       0       0       0       0       0       0       0
       0       0       0       0       0       0       0       0       0       0
       0       0       0       0       0       0       0       0       0       0
       0       0       0       0       0       0       0       0       0       0
       0       0       0       0       0       0       0       0       0       0
       0       0       0       0       0       0       0       0       0       0
       0       0       0       0       0       0       0       0       0       0
       0       0       0       0       0       0       0       0       0       0
       0       0       0       0       0       0       0       0       0       0
       0       0       0       0       0       0       0       0       0       0
       0       0       0       0       0       0       0       0       0       0
       0       0       0       0       0       0       0       0       0       0
       0       0       0       0       0       0       0       0       0       0
       0       0       0       0       0       0       0       0       0       0
       0       0       0       0       0       0       0       0       0       0
       0       0       0       0       0       0       0       0       0       0
       0       0       0       0       0       0       0       0       0       0
       0       0       0       0       0       0       0       0       0       0
       0       0       0       0       0       0       0       0       0       0
       0       0       0       0       0       0       0       0       0       0
       0       0       0       0       0       0       0       0       0       0
       0       0       0       0       0       0       0       0       0       0
       0       0       0       0       0       0       0       0       0       0
       0       0       0       0       0       0       0       0       0       0
       0       0       0       0       0       0       0       0       0       0
       0       0       0       0       0       0       0       0       0       0
       0       0       0       0       0       0       0       0       0       0
       0       0       0       0       0       0       0       0       0       0
       0       0       0       0       0       0       0       0       0       0
       0       0       0       0       0       0       0       0       0       0
       0       0       0       0       0       0       0       0       0       0
       0       0       0       0       0       0       0       0       0       0
       0       0       0       0       0       0       0       0       0       0
       0       0       0       0       0       0       0       0       0       0
       0       0       0       0       0       0       0       0       0       0
       0       0       0       0       0       0       0       0       0       0
       0       0       0       0       0       0       0       0       0       0
       0       0       0       0       0       0       0       0       0       0
       0       0       0       0       0       0       0       0       0       0
       0       0       0       0       0       0       0       0       0       0
       0       0       0       0       0       0       0       0       0       0
       0       0       0       0       0       0       0       0       0       0
       0       0       0       0       0       0       0       0       0       0
       0       0       0       0       0       0       0       0       0       0
       0       0       0       0       0       0       0       0       0       0
       0       0       0       0       0       0       0       0       0       0
       0       0       0       0       0       0       0       0       0       0
       0       0       0       0       0       0       0       0       0       0
       0       0       0       0       0       0       0       0       0       0
       0       0       0       0       0       0       0       0       0       0
       0       0       0       0       0       0       0       0       0       0
       0       0       0       0       0       0       0       0       0       0
       0       0       0       0       0       0       0       0       0       0
       0       0       0       0       0       0       0       0       0       0
       0       0       0       0       0       0       0       0       0       0
       0       0       0       0       0       0       0       0       0       0
       0       0       0       0       0       0       0       0       0       0
       0       0       0       0       0       0       0       0       0       0
       0       0       0       0       0       0       0       0       0       0
       0       0       0       0       0       0       0       0       0       0
       0       0       0       0       0       0       0       0       0       0
       0       0       0       0       0       0       0       0       0       0
       0       0       0       0       0       0       0       0       0       0
       0       0       0       0       0       0       0       0       0       0
       0       0       0       0       0       0       0       0       0       0
       0       0       0       0       0       0       0       0       0       0
       0       0       0       0       0       0       0       0       0       0
       0       0       0       0       0       0       0       0       0       0
       0       0       0       0       0       0       0       0       0       0
       0       0       0       0       0       0       0       0       0       0
       0       0       0       0       0       0       0       0       0       0
       0       0       0       0       0       0       0       0       0       0
       0       0       0       0       0       0
%FLAG IROTAT                                                                    
%FORMAT(10I8)                                                                   
       0       0       0       0       0       0       0       0       0       0
       0       0       0       0       0       0       0       0       0       0
       0       0       0       0       0       0       0       0       0       0
       0       0       0       0       0       0       0       0       0       0
       0       0       0       0       0       0       0       0       0       0
       0       0       0       0       0       0       0       0       0       0
       0       0       0       0       0       0       0       0       0       0
       0       0       0       0       0       0       0       0       0       0
       0       0       0       0       0       0       0       0       0       0
       0       0       0       0       0       0       0       0       0       0
       0       0       0       0       0       0       0       0       0       0
       0       0       0       0       0       0       0       0       0       0
       0       0       0       0       0       0       0       0       0       0
       0       0       0       0       0       0       0       0       0       0
       0       0       0       0       0       0       0       0       0       0
       0       0       0       0       0       0       0       0       0       0
       0       0       0       0       0       0       0       0       0       0
       0       0       0       0       0       0       0       0       0       0
       0       0       0       0       0       0       0       0       0       0
       0       0       0       0       0       0       0       0       0       0
       0       0       0       0       0       0       0       0       0       0
       0       0       0       0       0       0       0       0       0       0
       0       0       0       0       0       0       0       0       0       0
       0       0       0       0       0       0       0       0       0       0
       0       0       0       0       0       0       0       0       0       0
       0       0       0       0       0       0       0       0       0       0
       0       0       0       0       0       0       0       0       0       0
       0       0       0       0       0       0       0       0       0       0
       0       0       0       0       0       0       0       0       0       0
       0       0       0       0       0       0       0       0       0       0
       0       0       0       0       0       0       0       0       0       0
       0       0       0       0       0       0       0       0       0       0
       0       0       0       0       0       0       0       0       0       0
       0       0       0       0       0       0       0       0       0       0
       0       0       0       0       0       0       0       0       0       0
       0       0       0       0       0       0       0       0       0       0
       0       0       0       0       0       0       0       0       0       0
       0       0       0       0       0       0       0       0       0       0
       0       0       0       0       0       0       0       0       0       0
       0       0       0       0       0       0       0       0       0       0
       0       0       0       0       0       0       0       0       0       0
       0       0       0       0       0       0       0       0       0       0
       0       0       0       0       0       0       0       0       0       0
       0       0       0       0       0       0       0       0       0       0
       0       0       0       0       0       0       0       0       0       0
       0       0       0       0       0       0       0       0       0       0
       0       0       0       0       0       0       0       0       0       0
       0       0       0       0       0       0       0       0       0       0
       0       0       0       0       0       0       0       0       0       0
       0       0       0       0       0       0       0       0       0       0
       0       0       0       0       0       0       0       0       0       0
       0       0       0       0       0       0       0       0       0       0
       0       0       0       0       0       0       0       0       0       0
       0       0       0       0       0       0       0       0       0       0
       0       0       0       0       0       0       0       0       0       0
       0       0       0       0       0       0       0       0       0       0
       0       0       0       0       0       0       0       0       0       0
       0       0       0       0       0       0       0       0       0       0
       0       0       0       0       0       0       0       0       0       0
       0       0       0       0       0       0       0       0       0       0
       0       0       0       0       0       0       0       0       0       0
       0       0       0       0       0       0       0       0       0       0
       0       0       0       0       0       0       0       0       0       0
       0       0       0       0       0       0       0       0       0       0
       0       0       0       0       0       0       0       0       0       0
       0       0       0       0       0       0       0       0       0       0
       0       0       0       0       0       0       0       0       0       0
       0       0       0       0       0       0       0       0       0       0
       0       0       0       0       0       0       0       0       0       0
       0       0       0       0       0       0       0       0       0       0
       0       0       0       0       0       0       0       0       0       0
       0       0       0       0       0       0       0       0       0       0
       0       0       0       0       0       0       0       0       0       0
       0       0       0       0       0       0       0       0       0       0
       0       0       0       0       0       0       0       0       0       0
       0       0       0       0       0       0       0       0       0       0
       0       0       0       0       0       0       0       0       0       0
       0       0       0       0       0       0       0       0       0       0
       0       0       0       0       0       0       0       0       0       0
       0       0       0       0       0       0       0       0       0       0
       0       0       0       0       0       0       0       0       0       0
       0       0       0       0       0       0       0       0       0       0
       0       0       0       0       0       0       0       0       0       0
       0       0       0       0       0       0       0       0       0       0
       0       0       0       0       0       0       0       0       0       0
       0       0       0       0       0       0       0       0       0       0
       0       0       0       0       0       0       0       0       0       0
       0       0       0       0       0       0       0       0       0       0
       0       0       0       0       0       0       0       0       0       0
       0       0       0       0       0       0       0       0       0       0
       0       0       0       0       0       0       0       0       0       0
       0       0       0       0       0       0       0       0       0       0
       0       0       0       0       0       0       0       0       0       0
       0       0       0       0       0       0       0       0       0       0
       0       0       0       0       0       0       0       0       0       0
       0       0       0       0       0       0       0       0       0       0
       0       0       0       0       0       0       0       0       0       0
       0       0       0       0       0       0       0       0       0       0
       0       0       0       0       0       0       0       0       0       0
       0       0       0       0       0       0       0       0       0       0
       0       0       0       0       0       0       0       0       0       0
       0       0       0       0       0       0       0       0       0       0
       0       0       0       0       0       0       0       0       0       0
       0       0       0       0       0       0       0       0       0       0
       0       0       0       0       0       0       0       0       0       0
       0       0       0       0       0       0       0       0       0       0
       0       0       0       0       0       0       0       0       0       0
       0       0       0       0       0       0       0       0       0       0
       0       0       0       0       0       0       0       0       0       0
       0       0       0       0       0       0       0       0       0       0
       0       0       0       0       0       0       0       0       0       0
       0       0       0       0       0       0       0       0       0       0
       0       0       0       0       0       0       0       0       0       0
       0       0       0       0       0       0       0       0       0       0
       0       0       0       0       0       0       0       0       0       0
       0       0       0       0       0       0       0       0       0       0
       0       0       0       0       0       0       0       0       0       0
       0       0       0       0       0       0       0       0       0       0
       0       0       0       0       0       0       0       0       0       0
       0       0       0       0       0       0       0       0       0       0
       0       0       0       0       0       0       0       0       0       0
       0       0       0       0       0       0       0       0       0       0
       0       0       0       0       0       0       0       0       0       0
       0       0       0       0       0       0       0       0       0       0
       0       0       0       0       0       0       0       0       0       0
       0       0       0       0       0       0       0       0       0       0
       0       0       0       0       0       0       0       0       0       0
       0       0       0       0       0       0       0       0       0       0
       0       0       0       0       0       0       0       0       0       0
       0       0       0       0       0       0       0       0       0       0
       0       0       0       0       0       0       0       0       0       0
       0       0       0       0       0       0       0       0       0       0
       0       0       0       0       0       0       0       0       0       0
       0       0       0       0       0       0       0       0       0       0
       0       0       0       0       0       0       0       0       0       0
       0       0       0       0       0       0       0       0       0       0
       0       0       0       0       0       0       0       0       0       0
       0       0       0       0       0       0       0       0       0       0
       0       0       0       0       0       0       0       0       0       0
       0       0       0       0       0       0       0       0       0       0
       0       0       0       0       0       0       0       0       0       0
       0       0       0       0       0       0       0       0       0       0
       0       0       0       0       0       0       0       0       0       0
       0       0       0       0       0       0       0       0       0       0
       0       0       0       0       0       0       0       0       0       0
       0       0       0       0       0       0       0       0       0       0
       0       0       0       0       0       0       0       0       0       0
       0       0       0       0       0       0       0       0       0       0
       0       0       0       0       0       0       0       0       0       0
       0       0       0       0       0       0       0       0       0       0
       0       0       0       0       0       0       0       0       0       0
       0       0       0       0       0       0       0       0       0       0
       0       0       0       0       0       0       0       0       0       0
       0       0       0       0       0       0       0       0       0       0
       0       0       0       0       0       0       0       0       0       0
       0       0       0       0       0       0       0       0       0       0
       0       0       0       0       0       0       0       0       0       0
       0       0       0       0       0       0       0       0       0       0
       0       0       0       0       0       0       0       0       0       0
       0       0       0       0       0       0       0       0       0       0
       0       0       0       0       0       0       0       0       0       0
       0       0       0       0       0       0       0       0       0       0
       0       0       0       0       0       0       0       0       0       0
       0       0       0       0       0       0       0       0       0       0
       0       0       0       0       0       0       0       0       0       0
       0       0       0       0       0       0       0       0       0       0
       0       0       0       0       0       0       0       0       0       0
       0       0       0       0       0       0       0       0       0       0
       0       0       0       0       0       0       0       0       0       0
       0       0       0       0       0       0       0       0       0       0
       0       0       0       0       0       0       0       0       0       0
       0       0       0       0       0       0       0       0       0       0
       0       0       0       0       0       0       0       0       0       0
       0       0       0       0       0       0       0       0       0       0
       0       0       0       0       0       0       0       0       0       0
       0       0       0       0       0       0       0       0       0       0
       0       0       0       0       0       0       0       0       0       0
       0       0       0       0       0       0       0       0       0       0
       0       0       0       0       0       0       0       0       0       0
       0       0       0       0       0       0       0       0       0       0
       0       0       0       0       0       0       0       0       0       0
       0       0       0       0       0       0       0       0       0       0
       0       0       0       0       0       0       0       0       0       0
       0       0       0       0       0       0       0       0       0       0
       0       0       0       0       0       0       0       0       0       0
       0       0       0       0       0       0       0       0       0       0
       0       0       0       0       0       0       0       0       0       0
       0       0       0       0       0       0       0       0       0       0
       0       0       0       0       0       0       0       0       0       0
       0       0       0       0       0       0       0       0       0       0
       0       0       0       0       0       0       0       0       0       0
       0       0       0       0       0       0       0       0       0       0
       0       0       0       0       0       0       0       0       0       0
       0       0       0       0       0       0       0       0       0       0
       0       0       0       0       0       0       0       0       0       0
       0       0       0       0       0       0       0       0       0       0
       0       0       0       0       0       0       0       0       0       0
       0       0       0       0       0       0       0       0       0       0
       0       0       0       0       0       0       0       0       0       0
       0       0       0       0       0       0       0       0       0       0
       0       0       0       0       0       0       0       0       0       0
       0       0       0       0       0       0       0       0       0       0
       0       0       0       0       0       0       0       0       0       0
       0       0       0       0       0       0       0       0       0       0
       0       0       0       0       0       0       0       0       0       0
       0       0       0       0       0       0       0       0       0       0
       0       0       0       0       0       0       0       0       0       0
       0       0       0       0       0       0       0       0       0       0
       0       0       0       0       0       0       0       0       0       0
       0       0       0       0       0       0       0       0       0       0
       0       0       0       0       0       0       0       0       0       0
       0       0       0       0       0       0       0       0       0       0
       0       0       0       0       0       0       0       0       0       0
       0       0       0       0       0       0       0       0       0       0
       0       0       0       0       0       0       0       0       0       0
       0       0       0       0       0       0       0       0       0       0
       0       0       0       0       0       0       0       0       0       0
       0       0       0       0       0       0       0       0       0       0
       0       0       0       0       0       0       0       0       0       0
       0       0       0       0       0       0       0       0       0       0
       0       0       0       0       0       0       0       0       0       0
       0       0       0       0       0       0       0       0       0       0
       0       0       0       0       0       0       0       0       0       0
       0       0       0       0       0       0       0       0       0       0
       0       0       0       0       0       0       0       0       0       0
       0       0       0       0       0       0       0       0       0       0
       0       0       0       0       0       0       0       0       0       0
       0       0       0       0       0       0       0       0       0       0
       0       0       0       0       0       0       0       0       0       0
       0       0       0       0       0       0       0       0       0       0
       0       0       0       0       0       0       0       0       0       0
       0       0       0       0       0       0       0       0       0       0
       0       0       0       0       0       0       0       0       0       0
       0       0       0       0       0       0       0       0       0       0
       0       0       0       0       0       0       0       0       0       0
       0       0       0       0       0       0       0       0       0       0
       0       0       0       0       0       0       0       0       0       0
       0       0       0       0       0       0       0       0       0       0
       0       0       0       0       0       0       0       0       0       0
       0       0       0       0       0       0       0       0       0       0
       0       0       0       0       0       0       0       0       0       0
       0       0       0       0       0       0       0       0       0       0
       0       0       0       0       0       0       0       0       0       0
       0       0       0       0       0       0       0       0       0       0
       0       0       0       0       0       0       0       0       0       0
       0       0       0       0       0       0       0       0       0       0
       0       0       0       0       0       0       0       0       0       0
       0       0       0       0       0       0       0       0       0       0
       0       0       0       0       0       0       0       0       0       0
       0       0       0       0       0       0       0       0       0       0
       0       0       0       0       0       0       0       0       0       0
       0       0       0       0       0       0       0       0       0       0
       0       0       0       0       0       0       0       0       0       0
       0       0       0       0       0       0       0       0       0       0
       0       0       0       0       0       0       0       0       0       0
       0       0       0       0       0       0       0       0       0       0
       0       0       0       0       0       0       0       0       0       0
       0       0       0       0       0       0       0       0       0       0
       0       0       0       0       0       0       0       0       0       0
       0       0       0       0       0       0       0       0       0       0
       0       0       0       0       0       0       0       0       0       0
       0       0       0       0       0       0       0       0       0       0
       0       0       0       0       0       0       0       0       0       0
       0       0       0       0       0       0       0       0       0       0
       0       0       0       0       0       0       0       0       0       0
       0       0       0       0       0       0       0       0       0       0
       0       0       0       0       0       0       0       0       0       0
       0       0       0       0       0       0       0       0       0       0
       0       0       0       0       0       0       0       0       0       0
       0       0       0       0       0       0       0       0       0       0
       0       0       0       0       0       0       0       0       0       0
       0       0       0       0       0       0       0       0       0       0
       0       0       0       0       0       0       0       0       0       0
       0       0       0       0       0       0       0       0       0       0
       0       0       0       0       0       0       0       0       0       0
       0       0       0       0       0       0       0       0       0       0
       0       0       0       0       0       0       0       0       0       0
       0       0       0       0       0       0       0       0       0       0
       0       0       0       0       0       0       0       0       0       0
       0       0       0       0       0       0       0       0       0       0
       0       0       0       0       0       0       0       0       0       0
       0       0       0       0       0       0       0       0       0       0
       0       0       0       0       0       0       0       0       0       0
       0       0       0       0       0       0       0       0       0       0
       0       0       0       0       0       0       0       0       0       0
       0       0       0       0       0       0       0       0       0       0
       0       0       0       0       0       0       0       0       0       0
       0       0       0       0       0       0       0       0       0       0
       0       0       0       0       0       0       0       0       0       0
       0       0       0       0       0       0       0       0       0       0
       0       0       0       0       0       0       0       0       0       0
       0       0       0       0       0       0       0       0       0       0
       0       0       0       0       0       0       0       0       0       0
       0       0       0       0       0       0       0       0       0       0
       0       0       0       0       0       0       0       0       0       0
       0       0       0       0       0       0       0       0       0       0
       0       0       0       0       0       0       0       0       0       0
       0       0       0       0       0       0       0       0       0       0
       0       0       0       0       0       0       0       0       0       0
       0       0       0       0       0       0       0       0       0       0
       0       0       0       0       0       0       0       0       0       0
       0       0       0       0       0       0       0       0       0       0
       0       0       0       0       0       0       0       0       0       0
       0       0       0       0       0       0       0       0       0       0
       0       0       0       0       0       0       0       0       0       0
       0       0       0       0       0       0       0       0       0       0
       0       0       0       0       0       0       0       0       0       0
       0       0       0       0       0       0       0       0       0       0
       0       0       0       0       0       0       0       0       0       0
       0       0       0       0       0       0       0       0       0       0
       0       0       0       0       0       0       0       0       0       0
       0       0       0       0       0       0       0       0       0       0
       0       0       0       0       0       0       0       0       0       0
       0       0       0       0       0       0       0       0       0       0
       0       0       0       0       0       0       0       0       0       0
       0       0       0       0       0       0       0       0       0       0
       0       0       0       0       0       0       0       0       0       0
       0       0       0       0       0       0       0       0       0       0
       0       0       0       0       0       0       0       0       0       0
       0       0       0       0       0       0       0       0       0       0
       0       0       0       0       0       0       0       0       0       0
       0       0       0       0       0       0       0       0       0       0
       0       0       0       0       0       0       0       0       0       0
       0       0       0       0       0       0       0       0       0       0
       0       0       0       0       0       0       0       0       0       0
       0       0       0       0       0       0       0       0       0       0
       0       0       0       0       0       0       0       0       0       0
       0       0       0       0       0       0       0       0       0       0
       0       0       0       0       0       0       0       0       0       0
       0       0       0       0       0       0       0       0       0       0
       0       0       0       0       0       0       0       0       0       0
       0       0       0       0       0       0       0       0       0       0
       0       0       0       0       0       0       0       0       0       0
       0       0       0       0       0       0       0       0       0       0
       0       0       0       0       0       0       0       0       0       0
       0       0       0       0       0       0       0       0       0       0
       0       0       0       0       0       0       0       0       0       0
       0       0       0       0       0       0       0       0       0       0
       0       0       0       0       0       0       0       0       0       0
       0       0       0       0       0       0       0       0       0       0
       0       0       0       0       0       0       0       0       0       0
       0       0       0       0       0       0       0       0       0       0
       0       0       0       0       0       0       0       0       0       0
       0       0       0       0       0       0       0       0       0       0
       0       0       0       0       0       0       0       0       0       0
       0       0       0       0       0       0       0       0       0       0
       0       0       0       0       0       0       0       0       0       0
       0       0       0       0       0       0       0       0       0       0
       0       0       0       0       0       0       0       0       0       0
       0       0       0       0       0       0       0       0       0       0
       0       0       0       0       0       0       0       0       0       0
       0       0       0       0       0       0       0       0       0       0
       0       0       0       0       0       0       0       0       0       0
       0       0       0       0       0       0       0       0       0       0
       0       0       0       0       0       0       0       0       0       0
       0       0       0       0       0       0       0       0       0       0
       0       0       0       0       0       0       0       0       0       0
       0       0       0       0       0       0       0       0       0       0
       0       0       0       0       0       0       0       0       0       0
       0       0       0       0       0       0       0       0       0       0
       0       0       0       0       0       0       0       0       0       0
       0       0       0       0       0       0       0       0       0       0
       0       0       0       0       0       0       0       0       0       0
       0       0       0       0       0       0       0       0       0       0
       0       0       0       0       0       0       0       0       0       0
       0       0       0       0       0       0       0       0       0       0
       0       0       0       0       0       0       0       0       0       0
       0       0       0       0       0       0       0       0       0       0
       0       0       0       0       0       0       0       0       0       0
       0       0       0       0       0       0       0       0       0       0
       0       0       0       0       0       0       0       0       0       0
       0       0       0       0       0       0       0       0       0       0
       0       0       0       0       0       0       0       0       0       0
       0       0       0       0       0       0       0       0       0       0
       0       0       0       0       0       0       0       0       0       0
       0       0       0       0       0       0       0       0       0       0
       0       0       0       0       0       0       0       0       0       0
       0       0       0       0       0       0       0       0       0       0
       0       0       0       0       0       0       0       0       0       0
       0       0       0       0       0       0       0       0       0       0
       0       0       0       0       0       0       0       0       0       0
       0       0       0       0       0       0       0       0       0       0
       0       0       0       0       0       0       0       0       0       0
       0       0       0       0       0       0       0       0       0       0
       0       0       0       0       0       0       0       0       0       0
       0       0       0       0       0       0       0       0       0       0
       0       0       0       0       0       0       0       0       0       0
       0       0       0       0       0       0       0       0       0       0
       0       0       0       0       0       0       0       0       0       0
       0       0       0       0       0       0       0       0       0       0
       0       0       0       0       0       0       0       0       0       0
       0       0       0       0       0       0       0       0       0       0
       0       0       0       0       0       0       0       0       0       0
       0       0       0       0       0       0       0       0       0       0
       0       0       0       0       0       0       0       0       0       0
       0       0       0       0       0       0       0       0       0       0
       0       0       0       0       0       0       0       0       0       0
       0       0       0       0       0       0       0       0       0       0
       0       0       0       0       0       0       0       0       0       0
       0       0       0       0       0       0       0       0       0       0
       0       0       0       0       0       0       0       0       0       0
       0       0       0       0       0       0       0       0       0       0
       0       0       0       0       0       0       0       0       0       0
       0       0       0       0       0       0       0       0       0       0
       0       0       0       0       0       0       0       0       0       0
       0       0       0       0       0       0       0       0       0       0
       0       0       0       0       0       0       0       0       0       0
       0       0       0       0       0       0       0       0       0       0
       0       0       0       0       0       0       0       0       0       0
       0       0       0       0       0       0       0       0       0       0
       0       0       0       0       0       0       0       0       0       0
       0       0       0       0       0       0       0       0       0       0
       0       0       0       0       0       0       0       0       0       0
       0       0       0       0       0       0       0       0       0       0
       0       0       0       0       0       0       0       0       0       0
       0       0       0       0       0       0       0       0       0       0
       0       0       0       0       0       0       0       0       0       0
       0       0       0       0       0       0       0       0       0       0
       0       0       0       0       0       0       0       0       0       0
       0       0       0       0       0       0       0       0       0       0
       0       0       0       0       0       0       0       0       0       0
       0       0       0       0       0       0       0       0       0       0
       0       0       0       0       0       0       0       0       0       0
       0       0       0       0       0       0       0       0       0       0
       0       0       0       0       0       0       0       0       0       0
       0       0       0       0       0       0       0       0       0       0
       0       0       0       0       0       0       0       0       0       0
       0       0       0       0       0       0       0       0       0       0
       0       0       0       0       0       0       0       0       0       0
       0       0       0       0       0       0       0       0       0       0
       0       0       0       0       0       0       0       0       0       0
       0       0       0       0       0       0       0       0       0       0
       0       0       0       0       0       0       0       0       0       0
       0       0       0       0       0       0       0       0       0       0
       0       0       0       0       0       0       0       0       0       0
       0       0       0       0       0       0       0       0       0       0
       0       0       0       0       0       0       0       0       0       0
       0       0       0       0       0       0       0       0       0       0
       0       0       0       0       0       0       0       0       0       0
       0       0       0       0       0       0       0       0       0       0
       0       0       0       0       0       0       0       0       0       0
       0       0       0       0       0       0       0       0       0       0
       0       0       0       0       0       0       0       0       0       0
       0       0       0       0       0       0       0       0       0       0
       0       0       0       0       0       0       0       0       0       0
       0       0       0       0       0       0       0       0       0       0
       0       0       0       0       0       0       0       0       0       0
       0       0       0       0       0       0       0       0       0       0
       0       0       0       0       0       0       0       0       0       0
       0       0       0       0       0       0       0       0       0       0
       0       0       0       0       0       0       0       0       0       0
       0       0       0       0       0       0       0       0       0       0
       0       0       0       0       0       0       0       0       0       0
       0       0       0       0       0       0       0       0       0       0
       0       0       0       0       0       0       0       0       0       0
       0       0       0       0       0       0       0       0       0       0
       0       0       0       0       0       0       0       0       0       0
       0       0       0       0       0       0       0       0       0       0
       0       0       0       0       0       0       0       0       0       0
       0       0       0       0       0       0       0       0       0       0
       0       0       0       0       0       0       0       0       0       0
       0       0       0       0       0       0       0       0       0       0
       0       0       0       0       0       0       0       0       0       0
       0       0       0       0       0       0       0       0       0       0
       0       0       0       0       0       0       0       0       0       0
       0       0       0       0       0       0       0       0       0       0
       0       0       0       0       0       0       0       0       0       0
       0       0       0       0       0       0       0       0       0       0
       0       0       0       0       0       0       0       0       0       0
       0       0       0       0       0       0       0       0       0       0
       0       0       0       0       0       0       0       0       0       0
       0       0       0       0       0       0       0       0       0       0
       0       0       0       0       0       0       0       0       0       0
       0       0       0       0       0       0       0       0       0       0
       0       0       0       0       0       0       0       0       0       0
       0       0       0       0       0       0       0       0       0       0
       0       0       0       0       0       0       0       0       0       0
       0       0       0       0       0       0       0       0       0       0
       0       0       0       0       0       0       0       0       0       0
       0       0       0       0       0       0       0       0       0       0
       0       0       0       0       0       0       0       0       0       0
       0       0       0       0       0       0       0       0       0       0
       0       0       0       0       0       0       0       0       0       0
       0       0       0       0       0       0       0       0       0       0
       0       0       0       0       0       0       0       0       0       0
       0       0       0       0       0       0       0       0       0       0
       0       0       0       0       0       0       0       0       0       0
       0       0       0       0       0       0       0       0       0       0
       0       0       0       0       0       0       0       0       0       0
       0       0       0       0       0       0       0       0       0       0
       0       0       0       0       0       0       0       0       0       0
       0       0       0       0       0       0       0       0       0       0
       0       0       0       0       0       0       0       0       0       0
       0       0       0       0       0       0       0       0       0       0
       0       0       0       0       0       0       0       0       0       0
       0       0       0       0       0       0       0       0       0       0
       0       0       0       0       0       0       0       0       0       0
       0       0       0       0       0       0       0       0       0       0
       0       0       0       0       0       0       0       0       0       0
       0       0       0       0       0       0       0       0       0       0
       0       0       0       0       0       0       0       0       0       0
       0       0       0       0       0       0       0       0       0       0
       0       0       0       0       0       0       0       0       0       0
       0       0       0       0       0       0       0       0       0       0
       0       0       0       0       0       0       0       0       0       0
       0       0       0       0       0       0       0       0       0       0
       0       0       0       0       0       0       0       0       0       0
       0       0       0       0       0       0       0       0       0       0
       0       0       0       0       0       0       0       0       0       0
       0       0       0       0       0       0       0       0       0       0
       0       0       0       0       0       0       0       0       0       0
       0       0       0       0       0       0       0       0       0       0
       0       0       0       0       0       0       0       0       0       0
       0       0       0       0       0       0       0       0       0       0
       0       0       0       0       0       0       0       0       0       0
       0       0       0       0       0       0       0       0       0       0
       0       0       0       0       0       0       0       0       0       0
       0       0       0       0       0       0       0       0       0       0
       0       0       0       0       0       0       0       0       0       0
       0       0       0       0       0       0       0       0       0       0
       0       0       0       0       0       0       0       0       0       0
       0       0       0       0       0       0       0       0       0       0
       0       0       0       0       0       0       0       0       0       0
       0       0       0       0       0       0       0       0       0       0
       0       0       0       0       0       0       0       0       0       0
       0       0       0       0       0       0       0       0       0       0
       0       0       0       0       0       0       0       0       0       0
       0       0       0       0       0       0       0       0       0       0
       0       0       0       0       0       0       0       0       0       0
       0       0       0       0       0       0       0       0       0       0
       0       0       0       0       0       0       0       0       0       0
       0       0       0       0       0       0       0       0       0       0
       0       0       0       0       0       0       0       0       0       0
       0       0       0       0       0       0       0       0       0       0
       0       0       0       0       0       0       0       0       0       0
       0       0       0       0       0       0       0       0       0       0
       0       0       0       0       0       0       0       0       0       0
       0       0       0       0       0       0       0       0       0       0
       0       0       0       0       0       0       0       0       0       0
       0       0       0       0       0       0       0       0       0       0
       0       0       0       0       0       0       0       0       0       0
       0       0       0       0       0       0       0       0       0       0
       0       0       0       0       0       0       0       0       0       0
       0       0       0       0       0       0       0       0       0       0
       0       0       0       0       0       0       0       0       0       0
       0       0       0       0       0       0       0       0       0       0
       0       0       0       0       0       0       0       0       0       0
       0       0       0       0       0       0       0       0       0       0
       0       0       0       0       0       0       0       0       0       0
       0       0       0       0       0       0       0       0       0       0
       0       0       0       0       0       0       0       0       0       0
       0       0       0       0       0       0       0       0       0       0
       0       0       0       0       0       0       0       0       0       0
       0       0       0       0       0       0       0       0       0       0
       0       0       0       0       0       0       0       0       0       0
       0       0       0       0       0       0       0       0       0       0
       0       0       0       0       0       0       0       0       0       0
       0       0       0       0       0       0       0       0       0       0
       0       0       0       0       0       0       0       0       0       0
       0       0       0       0       0       0       0       0       0       0
       0       0       0       0       0       0       0       0       0       0
       0       0       0       0       0       0       0       0       0       0
       0       0       0       0       0       0       0       0       0       0
       0       0       0       0       0       0       0       0       0       0
       0       0       0       0       0       0       0       0       0       0
       0       0       0       0       0       0       0       0       0       0
       0       0       0       0       0       0       0       0       0       0
       0       0       0       0       0       0       0       0       0       0
       0       0       0       0       0       0       0       0       0       0
       0       0       0       0       0       0       0       0       0       0
       0       0       0       0       0       0       0       0       0       0
       0       0       0       0       0       0       0       0       0       0
       0       0       0       0       0       0       0       0       0       0
       0       0       0       0       0       0       0       0       0       0
       0       0       0       0       0       0       0       0       0       0
       0       0       0       0       0       0       0       0       0       0
       0       0       0       0       0       0       0       0       0       0
       0       0       0       0       0       0       0       0       0       0
       0       0       0       0       0       0       0       0       0       0
       0       0       0       0       0       0       0       0       0       0
       0       0       0       0       0       0       0       0       0       0
       0       0       0       0       0       0       0       0       0       0
       0       0       0       0       0       0       0       0       0       0
       0       0       0       0       0       0       0       0       0       0
       0       0       0       0       0       0       0       0       0       0
       0       0       0       0       0       0       0       0       0       0
       0       0       0       0       0       0       0       0       0       0
       0       0       0       0       0       0       0       0       0       0
       0       0       0       0       0       0       0       0       0       0
       0       0       0       0       0       0       0       0       0       0
       0       0       0       0       0       0       0       0       0       0
       0       0       0       0       0       0       0       0       0       0
       0       0       0       0       0       0       0       0       0       0
       0       0       0       0       0       0       0       0       0       0
       0       0       0       0       0       0       0       0       0       0
       0       0       0       0       0       0       0       0       0       0
       0       0       0       0       0       0       0       0       0       0
       0       0       0       0       0       0       0       0       0       0
       0       0       0       0       0       0       0       0       0       0
       0       0       0       0       0       0       0       0       0       0
       0       0       0       0       0       0       0       0       0       0
       0       0       0       0       0       0       0       0       0       0
       0       0       0       0       0       0       0       0       0       0
       0       0       0       0       0       0       0       0       0       0
       0       0       0       0       0       0       0       0       0       0
       0       0       0       0       0       0       0       0       0       0
       0       0       0       0       0       0       0       0       0       0
       0       0       0       0       0       0       0       0       0       0
       0       0       0       0       0       0       0       0       0       0
       0       0       0       0       0       0       0       0       0       0
       0       0       0       0       0       0       0       0       0       0
       0       0       0       0       0       0       0       0       0       0
       0       0       0       0       0       0       0       0       0       0
       0       0       0       0       0       0       0       0       0       0
       0       0       0       0       0       0       0       0       0       0
       0       0       0       0       0       0       0       0       0       0
       0       0       0       0       0       0       0       0       0       0
       0       0       0       0       0       0       0       0       0       0
       0       0       0       0       0       0       0       0       0       0
       0       0       0       0       0       0       0       0       0       0
       0       0       0       0       0       0       0       0       0       0
       0       0       0       0       0       0       0       0       0       0
       0       0       0       0       0       0       0       0       0       0
       0       0       0       0       0       0       0       0       0       0
       0       0       0       0       0       0       0       0       0       0
       0       0       0       0       0       0       0       0       0       0
       0       0       0       0       0       0       0       0       0       0
       0       0       0       0       0       0       0       0       0       0
       0       0       0       0       0       0       0       0       0       0
       0       0       0       0       0       0       0       0       0       0
       0       0       0       0       0       0       0       0       0       0
       0       0       0       0       0       0       0       0       0       0
       0       0       0       0       0       0       0       0       0       0
       0       0       0       0       0       0       0       0       0       0
       0       0       0       0       0       0       0       0       0       0
       0       0       0       0       0       0       0       0       0       0
       0       0       0       0       0       0       0       0       0       0
       0       0       0       0       0       0       0       0       0       0
       0       0       0       0       0       0
%FLAG SOLVENT_POINTERS                                                          
%FORMAT(3I8)                                                                    
       5    1587       2
%FLAG ATOMS_PER_MOLECULE                                                        
%FORMAT(10I8)                                                                   
      42       4       4       4       4       4       4       4       4       4
       4       4       4       4       4       4       4       4       4       4
       4       4       4       4       4       4       4       4       4       4
       4       4       4       4       4       4       4       4       4       4
       4       4       4       4       4       4       4       4       4       4
       4       4       4       4       4       4       4       4       4       4
       4       4       4       4       4       4       4       4       4       4
       4       4       4       4       4       4       4       4       4       4
       4       4       4       4       4       4       4       4       4       4
       4       4       4       4       4       4       4       4       4       4
       4       4       4       4       4       4       4       4       4       4
       4       4       4       4       4       4       4       4       4       4
       4       4       4       4       4       4       4       4       4       4
       4       4       4       4       4       4       4       4       4       4
       4       4       4       4       4       4       4       4       4       4
       4       4       4       4       4       4       4       4       4       4
       4       4       4       4       4       4       4       4       4       4
       4       4       4       4       4       4       4       4       4       4
       4       4       4       4       4       4       4       4       4       4
       4       4       4       4       4       4       4       4       4       4
       4       4       4       4       4       4       4       4       4       4
       4       4       4       4       4       4       4       4       4       4
       4       4       4       4       4       4       4       4       4       4
       4       4       4       4       4       4       4       4       4       4
       4       4       4       4       4       4       4       4       4       4
       4       4       4       4       4       4       4       4       4       4
       4       4       4       4       4       4       4       4       4       4
       4       4       4       4       4       4       4       4       4       4
       4       4       4       4       4       4       4       4       4       4
       4       4       4       4       4       4       4       4       4       4
       4       4       4       4       4       4       4       4       4       4
       4       4       4       4       4       4       4       4       4       4
       4       4       4       4       4       4       4       4       4       4
       4       4       4       4       4       4       4       4       4       4
       4       4       4       4       4       4       4       4       4       4
       4       4       4       4       4       4       4       4       4       4
       4       4       4       4       4       4       4       4       4       4
       4       4       4       4       4       4       4       4       4       4
       4       4       4       4       4       4       4       4       4       4
       4       4       4       4       4       4       4       4       4       4
       4       4       4       4       4       4       4       4       4       4
       4       4       4       4       4       4       4       4       4       4
       4       4       4       4       4       4       4       4       4       4
       4       4       4       4       4       4       4       4       4       4
       4       4       4       4       4       4       4       4       4       4
       4       4       4       4       4       4       4       4       4       4
       4       4       4       4       4       4       4       4       4       4
       4       4       4       4       4       4       4       4       4       4
       4       4       4       4       4       4       4       4       4       4
       4       4       4       4       4       4       4       4       4       4
       4       4       4       4       4       4       4       4       4       4
       4       4       4       4       4       4       4       4       4       4
       4       4       4       4       4       4       4       4       4       4
       4       4       4       4       4       4       4       4       4       4
       4       4       4       4       4       4       4       4       4       4
       4       4       4       4       4       4       4       4       4       4
       4       4       4       4       4       4       4       4       4       4
       4       4       4       4       4       4       4       4       4       4
       4       4       4       4       4       4       4       4       4       4
       4       4       4       4       4       4       4       4       4       4
       4       4       4       4       4       4       4       4       4       4
       4       4       4       4       4       4       4       4       4       4
       4       4       4       4       4       4       4       4       4       4
       4       4       4       4       4       4       4       4       4       4
       4       4       4       4       4       4       4       4       4       4
       4       4       4       4       4       4       4       4       4       4
       4       4       4       4       4       4       4       4       4       4
       4       4       4       4       4       4       4       4       4       4
       4       4       4       4       4       4       4       4       4       4
       4       4       4       4       4       4       4       4       4       4
       4       4       4       4       4       4       4       4       4       4
       4       4       4       4       4       4       4       4       4       4
       4       4       4       4       4       4       4       4       4       4
       4       4       4       4       4       4       4       4       4       4
       4       4       4       4       4       4       4       4       4       4
       4       4       4       4       4       4       4       4       4       4
       4       4       4       4       4       4       4       4       4       4
       4       4       4       4       4       4       4       4       4       4
       4       4       4       4       4       4       4       4       4       4
       4       4       4       4       4       4       4       4       4       4
       4       4       4       4       4       4       4       4       4       4
       4       4       4       4       4       4       4       4       4       4
       4       4       4       4       4       4       4       4       4       4
       4       4       4       4       4       4       4       4       4       4
       4       4       4       4       4       4       4       4       4       4
       4       4       4       4       4       4       4       4       4       4
       4       4       4       4       4       4       4       4       4       4
       4       4       4       4       4       4       4       4       4       4
       4       4       4       4       4       4       4       4       4       4
       4       4       4       4       4       4       4       4       4       4
       4       4       4       4       4       4       4       4       4       4
       4       4       4       4       4       4       4       4       4       4
       4       4       4       4       4       4       4       4       4       4
       4       4       4       4       4       4       4       4       4       4
       4       4       4       4       4       4       4       4       4       4
       4       4       4       4       4       4       4       4       4       4
       4       4       4       4       4       4       4       4       4       4
       4       4       4       4       4       4       4       4       4       4
       4       4       4       4       4       4       4       4       4       4
       4       4       4       4       4       4       4       4       4       4
       4       4       4       4       4       4       4       4       4       4
       4       4       4       4       4       4       4       4       4       4
       4       4       4       4       4       4       4       4       4       4
       4       4       4       4       4       4       4       4       4       4
       4       4       4       4       4       4       4       4       4       4
       4       4       4       4       4       4       4       4       4       4
       4       4       4       4       4       4       4       4       4       4
       4       4       4       4       4       4       4       4       4       4
       4       4       4       4       4       4       4       4       4       4
       4       4       4       4       4       4       4       4       4       4
       4       4       4       4       4       4       4       4       4       4
       4       4       4       4       4       4       4       4       4       4
       4       4       4       4       4       4       4       4       4       4
       4       4       4       4       4       4       4       4       4       4
       4       4       4       4       4       4       4       4       4       4
       4       4       4       4       4       4       4       4       4       4
       4       4       4       4       4       4       4       4       4       4
       4       4       4       4       4       4       4       4       4       4
       4       4       4       4       4       4       4       4       4       4
       4       4       4       4       4       4       4       4       4       4
       4       4       4       4       4       4       4       4       4       4
       4       4       4       4       4       4       4       4       4       4
       4       4       4       4       4       4       4       4       4       4
       4       4       4       4       4       4       4       4       4       4
       4       4       4       4       4       4       4       4       4       4
       4       4       4       4       4       4       4       4       4       4
       4       4       4       4       4       4       4       4       4       4
       4       4       4       4       4       4       4       4       4       4
       4       4       4       4       4       4       4       4       4       4
       4       4       4       4       4       4       4       4       4       4
       4       4       4       4       4       4       4       4       4       4
       4       4       4       4       4       4       4       4       4       4
       4       4       4       4       4       4       4       4       4       4
       4       4       4       4       4       4       4       4       4       4
       4       4       4       4       4       4       4       4       4       4
       4       4       4       4       4       4       4       4       4       4
       4       4       4       4       4       4       4       4       4       4
       4       4       4       4       4       4       4       4       4       4
       4       4       4       4       4       4       4       4       4       4
       4       4       4       4       4       4       4       4       4       4
       4       4       4       4       4       4       4       4       4       4
       4       4       4       4       4       4       4       4       4       4
       4       4       4       4       4       4       4       4       4       4
       4       4       4       4       4       4       4       4       4       4
       4       4       4       4       4       4       4       4       4       4
       4       4       4       4       4       4       4       4       4       4
       4       4       4       4       4       4       4       4       4       4
       4       4       4       4       4       4       4       4       4       4
       4       4       4       4       4       4       4       4       4       4
       4       4       4       4       4       4       4       4       4       4
       4       4       4       4       4       4       4       4       4       4
       4       4       4       4       4       4       4       4       4       4
       4       4       4       4       4       4       4       4       4       4
       4       4       4       4       4       4       4       4       4       4
       4       4       4       4       4       4       4       4       4       4
       4       4       4       4       4       4       4       4       4       4
       4       4       4       4       4       4       4       4       4       4
       4       4       4       4       4       4       4       4       4       4
       4       4       4       4       4       4       4
%FLAG BOX_DIMENSIONS                                                            
%FORMAT(5E16.8)                                                                 
  1.09471219E+02  4.17360453E+01  4.17360453E+01  4.17360453E+01
%FLAG RADIUS_SET                                                                
%FORMAT(1a80)                                                                   
modified Bondi radii (mbondi)                                                   
%FLAG RADII                                                                     
%FORMAT(5E16.8)                                                                 
  1.30000000E+00  1.70000000E+00  1.30000000E+00  1.30000000E+00  1.70000000E+00
  1.50000000E+00  1.55000000E+00  1.30000000E+00  1.70000000E+00  1.30000000E+00
  1.70000000E+00  1.30000000E+00  1.30000000E+00  1.30000000E+00  1.70000000E+00
  1.50000000E+00  1.55000000E+00  1.30000000E+00  1.70000000E+00  1.30000000E+00
  1.70000000E+00  1.30000000E+00  1.30000000E+00  1.30000000E+00  1.70000000E+00
  1.50000000E+00  1.55000000E+00  1.30000000E+00  1.70000000E+00  1.30000000E+00
  1.70000000E+00  1.30000000E+00  1.30000000E+00  1.30000000E+00  1.70000000E+00
  1.50000000E+00  1.55000000E+00  1.30000000E+00  1.70000000E+00  1.30000000E+00
  1.30000000E+00  1.30000000E+00  1.50000000E+00  8.00000000E-01  8.00000000E-01
  1.50000000E+00  1.50000000E+00  8.00000000E-01  8.00000000E-01  1.50000000E+00
  1.50000000E+00  8.00000000E-01  8.00000000E-01  1.50000000E+00  1.50000000E+00
  8.00000000E-01  8.00000000E-01  1.50000000E+00  1.50000000E+00  8.00000000E-01
  8.00000000E-01  1.50000000E+00  1.50000000E+00  8.00000000E-01  8.00000000E-01
  1.50000000E+00  1.50000000E+00  8.00000000E-01  8.00000000E-01  1.50000000E+00
  1.50000000E+00  8.00000000E-01  8.00000000E-01  1.50000000E+00  1.50000000E+00
  8.00000000E-01  8.00000000E-01  1.50000000E+00  1.50000000E+00  8.00000000E-01
  8.00000000E-01  1.50000000E+00  1.50000000E+00  8.00000000E-01  8.00000000E-01
  1.50000000E+00  1.50000000E+00  8.00000000E-01  8.00000000E-01  1.50000000E+00
  1.50000000E+00  8.00000000E-01  8.00000000E-01  1.50000000E+00  1.50000000E+00
  8.00000000E-01  8.00000000E-01  1.50000000E+00  1.50000000E+00  8.00000000E-01
  8.00000000E-01  1.50000000E+00  1.50000000E+00  8.00000000E-01  8.00000000E-01
  1.50000000E+00  1.50000000E+00  8.00000000E-01  8.00000000E-01  1.50000000E+00
  1.50000000E+00  8.00000000E-01  8.00000000E-01  1.50000000E+00  1.50000000E+00
  8.00000000E-01  8.00000000E-01  1.50000000E+00  1.50000000E+00  8.00000000E-01
  8.00000000E-01  1.50000000E+00  1.50000000E+00  8.00000000E-01  8.00000000E-01
  1.50000000E+00  1.50000000E+00  8.00000000E-01  8.00000000E-01  1.50000000E+00
  1.50000000E+00  8.00000000E-01  8.00000000E-01  1.50000000E+00  1.50000000E+00
  8.00000000E-01  8.00000000E-01  1.50000000E+00  1.50000000E+00  8.00000000E-01
  8.00000000E-01  1.50000000E+00  1.50000000E+00  8.00000000E-01  8.00000000E-01
  1.50000000E+00  1.50000000E+00  8.00000000E-01  8.00000000E-01  1.50000000E+00
  1.50000000E+00  8.00000000E-01  8.00000000E-01  1.50000000E+00  1.50000000E+00
  8.00000000E-01  8.00000000E-01  1.50000000E+00  1.50000000E+00  8.00000000E-01
  8.00000000E-01  1.50000000E+00  1.50000000E+00  8.00000000E-01  8.00000000E-01
  1.50000000E+00  1.50000000E+00  8.00000000E-01  8.00000000E-01  1.50000000E+00
  1.50000000E+00  8.00000000E-01  8.00000000E-01  1.50000000E+00  1.50000000E+00
  8.00000000E-01  8.00000000E-01  1.50000000E+00  1.50000000E+00  8.00000000E-01
  8.00000000E-01  1.50000000E+00  1.50000000E+00  8.00000000E-01  8.00000000E-01
  1.50000000E+00  1.50000000E+00  8.00000000E-01  8.00000000E-01  1.50000000E+00
  1.50000000E+00  8.00000000E-01  8.00000000E-01  1.50000000E+00  1.50000000E+00
  8.00000000E-01  8.00000000E-01  1.50000000E+00  1.50000000E+00  8.00000000E-01
  8.00000000E-01  1.50000000E+00  1.50000000E+00  8.00000000E-01  8.00000000E-01
  1.50000000E+00  1.50000000E+00  8.00000000E-01  8.00000000E-01  1.50000000E+00
  1.50000000E+00  8.00000000E-01  8.00000000E-01  1.50000000E+00  1.50000000E+00
  8.00000000E-01  8.00000000E-01  1.50000000E+00  1.50000000E+00  8.00000000E-01
  8.00000000E-01  1.50000000E+00  1.50000000E+00  8.00000000E-01  8.00000000E-01
  1.50000000E+00  1.50000000E+00  8.00000000E-01  8.00000000E-01  1.50000000E+00
  1.50000000E+00  8.00000000E-01  8.00000000E-01  1.50000000E+00  1.50000000E+00
  8.00000000E-01  8.00000000E-01  1.50000000E+00  1.50000000E+00  8.00000000E-01
  8.00000000E-01  1.50000000E+00  1.50000000E+00  8.00000000E-01  8.00000000E-01
  1.50000000E+00  1.50000000E+00  8.00000000E-01  8.00000000E-01  1.50000000E+00
  1.50000000E+00  8.00000000E-01  8.00000000E-01  1.50000000E+00  1.50000000E+00
  8.00000000E-01  8.00000000E-01  1.50000000E+00  1.50000000E+00  8.00000000E-01
  8.00000000E-01  1.50000000E+00  1.50000000E+00  8.00000000E-01  8.00000000E-01
  1.50000000E+00  1.50000000E+00  8.00000000E-01  8.00000000E-01  1.50000000E+00
  1.50000000E+00  8.00000000E-01  8.00000000E-01  1.50000000E+00  1.50000000E+00
  8.00000000E-01  8.00000000E-01  1.50000000E+00  1.50000000E+00  8.00000000E-01
  8.00000000E-01  1.50000000E+00  1.50000000E+00  8.00000000E-01  8.00000000E-01
  1.50000000E+00  1.50000000E+00  8.00000000E-01  8.00000000E-01  1.50000000E+00
  1.50000000E+00  8.00000000E-01  8.00000000E-01  1.50000000E+00  1.50000000E+00
  8.00000000E-01  8.00000000E-01  1.50000000E+00  1.50000000E+00  8.00000000E-01
  8.00000000E-01  1.50000000E+00  1.50000000E+00  8.00000000E-01  8.00000000E-01
  1.50000000E+00  1.50000000E+00  8.00000000E-01  8.00000000E-01  1.50000000E+00
  1.50000000E+00  8.00000000E-01  8.00000000E-01  1.50000000E+00  1.50000000E+00
  8.00000000E-01  8.00000000E-01  1.50000000E+00  1.50000000E+00  8.00000000E-01
  8.00000000E-01  1.50000000E+00  1.50000000E+00  8.00000000E-01  8.00000000E-01
  1.50000000E+00  1.50000000E+00  8.00000000E-01  8.00000000E-01  1.50000000E+00
  1.50000000E+00  8.00000000E-01  8.00000000E-01  1.50000000E+00  1.50000000E+00
  8.00000000E-01  8.00000000E-01  1.50000000E+00  1.50000000E+00  8.00000000E-01
  8.00000000E-01  1.50000000E+00  1.50000000E+00  8.00000000E-01  8.00000000E-01
  1.50000000E+00  1.50000000E+00  8.00000000E-01  8.00000000E-01  1.50000000E+00
  1.50000000E+00  8.00000000E-01  8.00000000E-01  1.50000000E+00  1.50000000E+00
  8.00000000E-01  8.00000000E-01  1.50000000E+00  1.50000000E+00  8.00000000E-01
  8.00000000E-01  1.50000000E+00  1.50000000E+00  8.00000000E-01  8.00000000E-01
  1.50000000E+00  1.50000000E+00  8.00000000E-01  8.00000000E-01  1.50000000E+00
  1.50000000E+00  8.00000000E-01  8.00000000E-01  1.50000000E+00  1.50000000E+00
  8.00000000E-01  8.00000000E-01  1.50000000E+00  1.50000000E+00  8.00000000E-01
  8.00000000E-01  1.50000000E+00  1.50000000E+00  8.00000000E-01  8.00000000E-01
  1.50000000E+00  1.50000000E+00  8.00000000E-01  8.00000000E-01  1.50000000E+00
  1.50000000E+00  8.00000000E-01  8.00000000E-01  1.50000000E+00  1.50000000E+00
  8.00000000E-01  8.00000000E-01  1.50000000E+00  1.50000000E+00  8.00000000E-01
  8.00000000E-01  1.50000000E+00  1.50000000E+00  8.00000000E-01  8.00000000E-01
  1.50000000E+00  1.50000000E+00  8.00000000E-01  8.00000000E-01  1.50000000E+00
  1.50000000E+00  8.00000000E-01  8.00000000E-01  1.50000000E+00  1.50000000E+00
  8.00000000E-01  8.00000000E-01  1.50000000E+00  1.50000000E+00  8.00000000E-01
  8.00000000E-01  1.50000000E+00  1.50000000E+00  8.00000000E-01  8.00000000E-01
  1.50000000E+00  1.50000000E+00  8.00000000E-01  8.00000000E-01  1.50000000E+00
  1.50000000E+00  8.00000000E-01  8.00000000E-01  1.50000000E+00  1.50000000E+00
  8.00000000E-01  8.00000000E-01  1.50000000E+00  1.50000000E+00  8.00000000E-01
  8.00000000E-01  1.50000000E+00  1.50000000E+00  8.00000000E-01  8.00000000E-01
  1.50000000E+00  1.50000000E+00  8.00000000E-01  8.00000000E-01  1.50000000E+00
  1.50000000E+00  8.00000000E-01  8.00000000E-01  1.50000000E+00  1.50000000E+00
  8.00000000E-01  8.00000000E-01  1.50000000E+00  1.50000000E+00  8.00000000E-01
  8.00000000E-01  1.50000000E+00  1.50000000E+00  8.00000000E-01  8.00000000E-01
  1.50000000E+00  1.50000000E+00  8.00000000E-01  8.00000000E-01  1.50000000E+00
  1.50000000E+00  8.00000000E-01  8.00000000E-01  1.50000000E+00  1.50000000E+00
  8.00000000E-01  8.00000000E-01  1.50000000E+00  1.50000000E+00  8.00000000E-01
  8.00000000E-01  1.50000000E+00  1.50000000E+00  8.00000000E-01  8.00000000E-01
  1.50000000E+00  1.50000000E+00  8.00000000E-01  8.00000000E-01  1.50000000E+00
  1.50000000E+00  8.00000000E-01  8.00000000E-01  1.50000000E+00  1.50000000E+00
  8.00000000E-01  8.00000000E-01  1.50000000E+00  1.50000000E+00  8.00000000E-01
  8.00000000E-01  1.50000000E+00  1.50000000E+00  8.00000000E-01  8.00000000E-01
  1.50000000E+00  1.50000000E+00  8.00000000E-01  8.00000000E-01  1.50000000E+00
  1.50000000E+00  8.00000000E-01  8.00000000E-01  1.50000000E+00  1.50000000E+00
  8.00000000E-01  8.00000000E-01  1.50000000E+00  1.50000000E+00  8.00000000E-01
  8.00000000E-01  1.50000000E+00  1.50000000E+00  8.00000000E-01  8.00000000E-01
  1.50000000E+00  1.50000000E+00  8.00000000E-01  8.00000000E-01  1.50000000E+00
  1.50000000E+00  8.00000000E-01  8.00000000E-01  1.50000000E+00  1.50000000E+00
  8.00000000E-01  8.00000000E-01  1.50000000E+00  1.50000000E+00  8.00000000E-01
  8.00000000E-01  1.50000000E+00  1.50000000E+00  8.00000000E-01  8.00000000E-01
  1.50000000E+00  1.50000000E+00  8.00000000E-01  8.00000000E-01  1.50000000E+00
  1.50000000E+00  8.00000000E-01  8.00000000E-01  1.50000000E+00  1.50000000E+00
  8.00000000E-01  8.00000000E-01  1.50000000E+00  1.50000000E+00  8.00000000E-01
  8.00000000E-01  1.50000000E+00  1.50000000E+00  8.00000000E-01  8.00000000E-01
  1.50000000E+00  1.50000000E+00  8.00000000E-01  8.00000000E-01  1.50000000E+00
  1.50000000E+00  8.00000000E-01  8.00000000E-01  1.50000000E+00  1.50000000E+00
  8.00000000E-01  8.00000000E-01  1.50000000E+00  1.50000000E+00  8.00000000E-01
  8.00000000E-01  1.50000000E+00  1.50000000E+00  8.00000000E-01  8.00000000E-01
  1.50000000E+00  1.50000000E+00  8.00000000E-01  8.00000000E-01  1.50000000E+00
  1.50000000E+00  8.00000000E-01  8.00000000E-01  1.50000000E+00  1.50000000E+00
  8.00000000E-01  8.00000000E-01  1.50000000E+00  1.50000000E+00  8.00000000E-01
  8.00000000E-01  1.50000000E+00  1.50000000E+00  8.00000000E-01  8.00000000E-01
  1.50000000E+00  1.50000000E+00  8.00000000E-01  8.00000000E-01  1.50000000E+00
  1.50000000E+00  8.00000000E-01  8.00000000E-01  1.50000000E+00  1.50000000E+00
  8.00000000E-01  8.00000000E-01  1.50000000E+00  1.50000000E+00  8.00000000E-01
  8.00000000E-01  1.50000000E+00  1.50000000E+00  8.00000000E-01  8.00000000E-01
  1.50000000E+00  1.50000000E+00  8.00000000E-01  8.00000000E-01  1.50000000E+00
  1.50000000E+00  8.00000000E-01  8.00000000E-01  1.50000000E+00  1.50000000E+00
  8.00000000E-01  8.00000000E-01  1.50000000E+00  1.50000000E+00  8.00000000E-01
  8.00000000E-01  1.50000000E+00  1.50000000E+00  8.00000000E-01  8.00000000E-01
  1.50000000E+00  1.50000000E+00  8.00000000E-01  8.00000000E-01  1.50000000E+00
  1.50000000E+00  8.00000000E-01  8.00000000E-01  1.50000000E+00  1.50000000E+00
  8.00000000E-01  8.00000000E-01  1.50000000E+00  1.50000000E+00  8.00000000E-01
  8.00000000E-01  1.50000000E+00  1.50000000E+00  8.00000000E-01  8.00000000E-01
  1.50000000E+00  1.50000000E+00  8.00000000E-01  8.00000000E-01  1.50000000E+00
  1.50000000E+00  8.00000000E-01  8.00000000E-01  1.50000000E+00  1.50000000E+00
  8.00000000E-01  8.00000000E-01  1.50000000E+00  1.50000000E+00  8.00000000E-01
  8.00000000E-01  1.50000000E+00  1.50000000E+00  8.00000000E-01  8.00000000E-01
  1.50000000E+00  1.50000000E+00  8.00000000E-01  8.00000000E-01  1.50000000E+00
  1.50000000E+00  8.00000000E-01  8.00000000E-01  1.50000000E+00  1.50000000E+00
  8.00000000E-01  8.00000000E-01  1.50000000E+00  1.50000000E+00  8.00000000E-01
  8.00000000E-01  1.50000000E+00  1.50000000E+00  8.00000000E-01  8.00000000E-01
  1.50000000E+00  1.50000000E+00  8.00000000E-01  8.00000000E-01  1.50000000E+00
  1.50000000E+00  8.00000000E-01  8.00000000E-01  1.50000000E+00  1.50000000E+00
  8.00000000E-01  8.00000000E-01  1.50000000E+00  1.50000000E+00  8.00000000E-01
  8.00000000E-01  1.50000000E+00  1.50000000E+00  8.00000000E-01  8.00000000E-01
  1.50000000E+00  1.50000000E+00  8.00000000E-01  8.00000000E-01  1.50000000E+00
  1.50000000E+00  8.00000000E-01  8.00000000E-01  1.50000000E+00  1.50000000E+00
  8.00000000E-01  8.00000000E-01  1.50000000E+00  1.50000000E+00  8.00000000E-01
  8.00000000E-01  1.50000000E+00  1.50000000E+00  8.00000000E-01  8.00000000E-01
  1.50000000E+00  1.50000000E+00  8.00000000E-01  8.00000000E-01  1.50000000E+00
  1.50000000E+00  8.00000000E-01  8.00000000E-01  1.50000000E+00  1.50000000E+00
  8.00000000E-01  8.00000000E-01  1.50000000E+00  1.50000000E+00  8.00000000E-01
  8.00000000E-01  1.50000000E+00  1.50000000E+00  8.00000000E-01  8.00000000E-01
  1.50000000E+00  1.50000000E+00  8.00000000E-01  8.00000000E-01  1.50000000E+00
  1.50000000E+00  8.00000000E-01  8.00000000E-01  1.50000000E+00  1.50000000E+00
  8.00000000E-01  8.00000000E-01  1.50000000E+00  1.50000000E+00  8.00000000E-01
  8.00000000E-01  1.50000000E+00  1.50000000E+00  8.00000000E-01  8.00000000E-01
  1.50000000E+00  1.50000000E+00  8.00000000E-01  8.00000000E-01  1.50000000E+00
  1.50000000E+00  8.00000000E-01  8.00000000E-01  1.50000000E+00  1.50000000E+00
  8.00000000E-01  8.00000000E-01  1.50000000E+00  1.50000000E+00  8.00000000E-01
  8.00000000E-01  1.50000000E+00  1.50000000E+00  8.00000000E-01  8.00000000E-01
  1.50000000E+00  1.50000000E+00  8.00000000E-01  8.00000000E-01  1.50000000E+00
  1.50000000E+00  8.00000000E-01  8.00000000E-01  1.50000000E+00  1.50000000E+00
  8.00000000E-01  8.00000000E-01  1.50000000E+00  1.50000000E+00  8.00000000E-01
  8.00000000E-01  1.50000000E+00  1.50000000E+00  8.00000000E-01  8.00000000E-01
  1.50000000E+00  1.50000000E+00  8.00000000E-01  8.00000000E-01  1.50000000E+00
  1.50000000E+00  8.00000000E-01  8.00000000E-01  1.50000000E+00  1.50000000E+00
  8.00000000E-01  8.00000000E-01  1.50000000E+00  1.50000000E+00  8.00000000E-01
  8.00000000E-01  1.50000000E+00  1.50000000E+00  8.00000000E-01  8.00000000E-01
  1.50000000E+00  1.50000000E+00  8.00000000E-01  8.00000000E-01  1.50000000E+00
  1.50000000E+00  8.00000000E-01  8.00000000E-01  1.50000000E+00  1.50000000E+00
  8.00000000E-01  8.00000000E-01  1.50000000E+00  1.50000000E+00  8.00000000E-01
  8.00000000E-01  1.50000000E+00  1.50000000E+00  8.00000000E-01  8.00000000E-01
  1.50000000E+00  1.50000000E+00  8.00000000E-01  8.00000000E-01  1.50000000E+00
  1.50000000E+00  8.00000000E-01  8.00000000E-01  1.50000000E+00  1.50000000E+00
  8.00000000E-01  8.00000000E-01  1.50000000E+00  1.50000000E+00  8.00000000E-01
  8.00000000E-01  1.50000000E+00  1.50000000E+00  8.00000000E-01  8.00000000E-01
  1.50000000E+00  1.50000000E+00  8.00000000E-01  8.00000000E-01  1.50000000E+00
  1.50000000E+00  8.00000000E-01  8.00000000E-01  1.50000000E+00  1.50000000E+00
  8.00000000E-01  8.00000000E-01  1.50000000E+00  1.50000000E+00  8.00000000E-01
  8.00000000E-01  1.50000000E+00  1.50000000E+00  8.00000000E-01  8.00000000E-01
  1.50000000E+00  1.50000000E+00  8.00000000E-01  8.00000000E-01  1.50000000E+00
  1.50000000E+00  8.00000000E-01  8.00000000E-01  1.50000000E+00  1.50000000E+00
  8.00000000E-01  8.00000000E-01  1.50000000E+00  1.50000000E+00  8.00000000E-01
  8.00000000E-01  1.50000000E+00  1.50000000E+00  8.00000000E-01  8.00000000E-01
  1.50000000E+00  1.50000000E+00  8.00000000E-01  8.00000000E-01  1.50000000E+00
  1.50000000E+00  8.00000000E-01  8.00000000E-01  1.50000000E+00  1.50000000E+00
  8.00000000E-01  8.00000000E-01  1.50000000E+00  1.50000000E+00  8.00000000E-01
  8.00000000E-01  1.50000000E+00  1.50000000E+00  8.00000000E-01  8.00000000E-01
  1.50000000E+00  1.50000000E+00  8.00000000E-01  8.00000000E-01  1.50000000E+00
  1.50000000E+00  8.00000000E-01  8.00000000E-01  1.50000000E+00  1.50000000E+00
  8.00000000E-01  8.00000000E-01  1.50000000E+00  1.50000000E+00  8.00000000E-01
  8.00000000E-01  1.50000000E+00  1.50000000E+00  8.00000000E-01  8.00000000E-01
  1.50000000E+00  1.50000000E+00  8.00000000E-01  8.00000000E-01  1.50000000E+00
  1.50000000E+00  8.00000000E-01  8.00000000E-01  1.50000000E+00  1.50000000E+00
  8.00000000E-01  8.00000000E-01  1.50000000E+00  1.50000000E+00  8.00000000E-01
  8.00000000E-01  1.50000000E+00  1.50000000E+00  8.00000000E-01  8.00000000E-01
  1.50000000E+00  1.50000000E+00  8.00000000E-01  8.00000000E-01  1.50000000E+00
  1.50000000E+00  8.00000000E-01  8.00000000E-01  1.50000000E+00  1.50000000E+00
  8.00000000E-01  8.00000000E-01  1.50000000E+00  1.50000000E+00  8.00000000E-01
  8.00000000E-01  1.50000000E+00  1.50000000E+00  8.00000000E-01  8.00000000E-01
  1.50000000E+00  1.50000000E+00  8.00000000E-01  8.00000000E-01  1.50000000E+00
  1.50000000E+00  8.00000000E-01  8.00000000E-01  1.50000000E+00  1.50000000E+00
  8.00000000E-01  8.00000000E-01  1.50000000E+00  1.50000000E+00  8.00000000E-01
  8.00000000E-01  1.50000000E+00  1.50000000E+00  8.00000000E-01  8.00000000E-01
  1.50000000E+00  1.50000000E+00  8.00000000E-01  8.00000000E-01  1.50000000E+00
  1.50000000E+00  8.00000000E-01  8.00000000E-01  1.50000000E+00  1.50000000E+00
  8.00000000E-01  8.00000000E-01  1.50000000E+00  1.50000000E+00  8.00000000E-01
  8.00000000E-01  1.50000000E+00  1.50000000E+00  8.00000000E-01  8.00000000E-01
  1.50000000E+00  1.50000000E+00  8.00000000E-01  8.00000000E-01  1.50000000E+00
  1.50000000E+00  8.00000000E-01  8.00000000E-01  1.50000000E+00  1.50000000E+00
  8.00000000E-01  8.00000000E-01  1.50000000E+00  1.50000000E+00  8.00000000E-01
  8.00000000E-01  1.50000000E+00  1.50000000E+00  8.00000000E-01  8.00000000E-01
  1.50000000E+00  1.50000000E+00  8.00000000E-01  8.00000000E-01  1.50000000E+00
  1.50000000E+00  8.00000000E-01  8.00000000E-01  1.50000000E+00  1.50000000E+00
  8.00000000E-01  8.00000000E-01  1.50000000E+00  1.50000000E+00  8.00000000E-01
  8.00000000E-01  1.50000000E+00  1.50000000E+00  8.00000000E-01  8.00000000E-01
  1.50000000E+00  1.50000000E+00  8.00000000E-01  8.00000000E-01  1.50000000E+00
  1.50000000E+00  8.00000000E-01  8.00000000E-01  1.50000000E+00  1.50000000E+00
  8.00000000E-01  8.00000000E-01  1.50000000E+00  1.50000000E+00  8.00000000E-01
  8.00000000E-01  1.50000000E+00  1.50000000E+00  8.00000000E-01  8.00000000E-01
  1.50000000E+00  1.50000000E+00  8.00000000E-01  8.00000000E-01  1.50000000E+00
  1.50000000E+00  8.00000000E-01  8.00000000E-01  1.50000000E+00  1.50000000E+00
  8.00000000E-01  8.00000000E-01  1.50000000E+00  1.50000000E+00  8.00000000E-01
  8.00000000E-01  1.50000000E+00  1.50000000E+00  8.00000000E-01  8.00000000E-01
  1.50000000E+00  1.50000000E+00  8.00000000E-01  8.00000000E-01  1.50000000E+00
  1.50000000E+00  8.00000000E-01  8.00000000E-01  1.50000000E+00  1.50000000E+00
  8.00000000E-01  8.00000000E-01  1.50000000E+00  1.50000000E+00  8.00000000E-01
  8.00000000E-01  1.50000000E+00  1.50000000E+00  8.00000000E-01  8.00000000E-01
  1.50000000E+00  1.50000000E+00  8.00000000E-01  8.00000000E-01  1.50000000E+00
  1.50000000E+00  8.00000000E-01  8.00000000E-01  1.50000000E+00  1.50000000E+00
  8.00000000E-01  8.00000000E-01  1.50000000E+00  1.50000000E+00  8.00000000E-01
  8.00000000E-01  1.50000000E+00  1.50000000E+00  8.00000000E-01  8.00000000E-01
  1.50000000E+00  1.50000000E+00  8.00000000E-01  8.00000000E-01  1.50000000E+00
  1.50000000E+00  8.00000000E-01  8.00000000E-01  1.50000000E+00  1.50000000E+00
  8.00000000E-01  8.00000000E-01  1.50000000E+00  1.50000000E+00  8.00000000E-01
  8.00000000E-01  1.50000000E+00  1.50000000E+00  8.00000000E-01  8.00000000E-01
  1.50000000E+00  1.50000000E+00  8.00000000E-01  8.00000000E-01  1.50000000E+00
  1.50000000E+00  8.00000000E-01  8.00000000E-01  1.50000000E+00  1.50000000E+00
  8.00000000E-01  8.00000000E-01  1.50000000E+00  1.50000000E+00  8.00000000E-01
  8.00000000E-01  1.50000000E+00  1.50000000E+00  8.00000000E-01  8.00000000E-01
  1.50000000E+00  1.50000000E+00  8.00000000E-01  8.00000000E-01  1.50000000E+00
  1.50000000E+00  8.00000000E-01  8.00000000E-01  1.50000000E+00  1.50000000E+00
  8.00000000E-01  8.00000000E-01  1.50000000E+00  1.50000000E+00  8.00000000E-01
  8.00000000E-01  1.50000000E+00  1.50000000E+00  8.00000000E-01  8.00000000E-01
  1.50000000E+00  1.50000000E+00  8.00000000E-01  8.00000000E-01  1.50000000E+00
  1.50000000E+00  8.00000000E-01  8.00000000E-01  1.50000000E+00  1.50000000E+00
  8.00000000E-01  8.00000000E-01  1.50000000E+00  1.50000000E+00  8.00000000E-01
  8.00000000E-01  1.50000000E+00  1.50000000E+00  8.00000000E-01  8.00000000E-01
  1.50000000E+00  1.50000000E+00  8.00000000E-01  8.00000000E-01  1.50000000E+00
  1.50000000E+00  8.00000000E-01  8.00000000E-01  1.50000000E+00  1.50000000E+00
  8.00000000E-01  8.00000000E-01  1.50000000E+00  1.50000000E+00  8.00000000E-01
  8.00000000E-01  1.50000000E+00  1.50000000E+00  8.00000000E-01  8.00000000E-01
  1.50000000E+00  1.50000000E+00  8.00000000E-01  8.00000000E-01  1.50000000E+00
  1.50000000E+00  8.00000000E-01  8.00000000E-01  1.50000000E+00  1.50000000E+00
  8.00000000E-01  8.00000000E-01  1.50000000E+00  1.50000000E+00  8.00000000E-01
  8.00000000E-01  1.50000000E+00  1.50000000E+00  8.00000000E-01  8.00000000E-01
  1.50000000E+00  1.50000000E+00  8.00000000E-01  8.00000000E-01  1.50000000E+00
  1.50000000E+00  8.00000000E-01  8.00000000E-01  1.50000000E+00  1.50000000E+00
  8.00000000E-01  8.00000000E-01  1.50000000E+00  1.50000000E+00  8.00000000E-01
  8.00000000E-01  1.50000000E+00  1.50000000E+00  8.00000000E-01  8.00000000E-01
  1.50000000E+00  1.50000000E+00  8.00000000E-01  8.00000000E-01  1.50000000E+00
  1.50000000E+00  8.00000000E-01  8.00000000E-01  1.50000000E+00  1.50000000E+00
  8.00000000E-01  8.00000000E-01  1.50000000E+00  1.50000000E+00  8.00000000E-01
  8.00000000E-01  1.50000000E+00  1.50000000E+00  8.00000000E-01  8.00000000E-01
  1.50000000E+00  1.50000000E+00  8.00000000E-01  8.00000000E-01  1.50000000E+00
  1.50000000E+00  8.00000000E-01  8.00000000E-01  1.50000000E+00  1.50000000E+00
  8.00000000E-01  8.00000000E-01  1.50000000E+00  1.50000000E+00  8.00000000E-01
  8.00000000E-01  1.50000000E+00  1.50000000E+00  8.00000000E-01  8.00000000E-01
  1.50000000E+00  1.50000000E+00  8.00000000E-01  8.00000000E-01  1.50000000E+00
  1.50000000E+00  8.00000000E-01  8.00000000E-01  1.50000000E+00  1.50000000E+00
  8.00000000E-01  8.00000000E-01  1.50000000E+00  1.50000000E+00  8.00000000E-01
  8.00000000E-01  1.50000000E+00  1.50000000E+00  8.00000000E-01  8.00000000E-01
  1.50000000E+00  1.50000000E+00  8.00000000E-01  8.00000000E-01  1.50000000E+00
  1.50000000E+00  8.00000000E-01  8.00000000E-01  1.50000000E+00  1.50000000E+00
  8.00000000E-01  8.00000000E-01  1.50000000E+00  1.50000000E+00  8.00000000E-01
  8.00000000E-01  1.50000000E+00  1.50000000E+00  8.00000000E-01  8.00000000E-01
  1.50000000E+00  1.50000000E+00  8.00000000E-01  8.00000000E-01  1.50000000E+00
  1.50000000E+00  8.00000000E-01  8.00000000E-01  1.50000000E+00  1.50000000E+00
  8.00000000E-01  8.00000000E-01  1.50000000E+00  1.50000000E+00  8.00000000E-01
  8.00000000E-01  1.50000000E+00  1.50000000E+00  8.00000000E-01  8.00000000E-01
  1.50000000E+00  1.50000000E+00  8.00000000E-01  8.00000000E-01  1.50000000E+00
  1.50000000E+00  8.00000000E-01  8.00000000E-01  1.50000000E+00  1.50000000E+00
  8.00000000E-01  8.00000000E-01  1.50000000E+00  1.50000000E+00  8.00000000E-01
  8.00000000E-01  1.50000000E+00  1.50000000E+00  8.00000000E-01  8.00000000E-01
  1.50000000E+00  1.50000000E+00  8.00000000E-01  8.00000000E-01  1.50000000E+00
  1.50000000E+00  8.00000000E-01  8.00000000E-01  1.50000000E+00  1.50000000E+00
  8.00000000E-01  8.00000000E-01  1.50000000E+00  1.50000000E+00  8.00000000E-01
  8.00000000E-01  1.50000000E+00  1.50000000E+00  8.00000000E-01  8.00000000E-01
  1.50000000E+00  1.50000000E+00  8.00000000E-01  8.00000000E-01  1.50000000E+00
  1.50000000E+00  8.00000000E-01  8.00000000E-01  1.50000000E+00  1.50000000E+00
  8.00000000E-01  8.00000000E-01  1.50000000E+00  1.50000000E+00  8.00000000E-01
  8.00000000E-01  1.50000000E+00  1.50000000E+00  8.00000000E-01  8.00000000E-01
  1.50000000E+00  1.50000000E+00  8.00000000E-01  8.00000000E-01  1.50000000E+00
  1.50000000E+00  8.00000000E-01  8.00000000E-01  1.50000000E+00  1.50000000E+00
  8.00000000E-01  8.00000000E-01  1.50000000E+00  1.50000000E+00  8.00000000E-01
  8.00000000E-01  1.50000000E+00  1.50000000E+00  8.00000000E-01  8.00000000E-01
  1.50000000E+00  1.50000000E+00  8.00000000E-01  8.00000000E-01  1.50000000E+00
  1.50000000E+00  8.00000000E-01  8.00000000E-01  1.50000000E+00  1.50000000E+00
  8.00000000E-01  8.00000000E-01  1.50000000E+00  1.50000000E+00  8.00000000E-01
  8.00000000E-01  1.50000000E+00  1.50000000E+00  8.00000000E-01  8.00000000E-01
  1.50000000E+00  1.50000000E+00  8.00000000E-01  8.00000000E-01  1.50000000E+00
  1.50000000E+00  8.00000000E-01  8.00000000E-01  1.50000000E+00  1.50000000E+00
  8.00000000E-01  8.00000000E-01  1.50000000E+00  1.50000000E+00  8.00000000E-01
  8.00000000E-01  1.50000000E+00  1.50000000E+00  8.00000000E-01  8.00000000E-01
  1.50000000E+00  1.50000000E+00  8.00000000E-01  8.00000000E-01  1.50000000E+00
  1.50000000E+00  8.00000000E-01  8.00000000E-01  1.50000000E+00  1.50000000E+00
  8.00000000E-01  8.00000000E-01  1.50000000E+00  1.50000000E+00  8.00000000E-01
  8.00000000E-01  1.50000000E+00  1.50000000E+00  8.00000000E-01  8.00000000E-01
  1.50000000E+00  1.50000000E+00  8.00000000E-01  8.00000000E-01  1.50000000E+00
  1.50000000E+00  8.00000000E-01  8.00000000E-01  1.50000000E+00  1.50000000E+00
  8.00000000E-01  8.00000000E-01  1.50000000E+00  1.50000000E+00  8.00000000E-01
  8.00000000E-01  1.50000000E+00  1.50000000E+00  8.00000000E-01  8.00000000E-01
  1.50000000E+00  1.50000000E+00  8.00000000E-01  8.00000000E-01  1.50000000E+00
  1.50000000E+00  8.00000000E-01  8.00000000E-01  1.50000000E+00  1.50000000E+00
  8.00000000E-01  8.00000000E-01  1.50000000E+00  1.50000000E+00  8.00000000E-01
  8.00000000E-01  1.50000000E+00  1.50000000E+00  8.00000000E-01  8.00000000E-01
  1.50000000E+00  1.50000000E+00  8.00000000E-01  8.00000000E-01  1.50000000E+00
  1.50000000E+00  8.00000000E-01  8.00000000E-01  1.50000000E+00  1.50000000E+00
  8.00000000E-01  8.00000000E-01  1.50000000E+00  1.50000000E+00  8.00000000E-01
  8.00000000E-01  1.50000000E+00  1.50000000E+00  8.00000000E-01  8.00000000E-01
  1.50000000E+00  1.50000000E+00  8.00000000E-01  8.00000000E-01  1.50000000E+00
  1.50000000E+00  8.00000000E-01  8.00000000E-01  1.50000000E+00  1.50000000E+00
  8.00000000E-01  8.00000000E-01  1.50000000E+00  1.50000000E+00  8.00000000E-01
  8.00000000E-01  1.50000000E+00  1.50000000E+00  8.00000000E-01  8.00000000E-01
  1.50000000E+00  1.50000000E+00  8.00000000E-01  8.00000000E-01  1.50000000E+00
  1.50000000E+00  8.00000000E-01  8.00000000E-01  1.50000000E+00  1.50000000E+00
  8.00000000E-01  8.00000000E-01  1.50000000E+00  1.50000000E+00  8.00000000E-01
  8.00000000E-01  1.50000000E+00  1.50000000E+00  8.00000000E-01  8.00000000E-01
  1.50000000E+00  1.50000000E+00  8.00000000E-01  8.00000000E-01  1.50000000E+00
  1.50000000E+00  8.00000000E-01  8.00000000E-01  1.50000000E+00  1.50000000E+00
  8.00000000E-01  8.00000000E-01  1.50000000E+00  1.50000000E+00  8.00000000E-01
  8.00000000E-01  1.50000000E+00  1.50000000E+00  8.00000000E-01  8.00000000E-01
  1.50000000E+00  1.50000000E+00  8.00000000E-01  8.00000000E-01  1.50000000E+00
  1.50000000E+00  8.00000000E-01  8.00000000E-01  1.50000000E+00  1.50000000E+00
  8.00000000E-01  8.00000000E-01  1.50000000E+00  1.50000000E+00  8.00000000E-01
  8.00000000E-01  1.50000000E+00  1.50000000E+00  8.00000000E-01  8.00000000E-01
  1.50000000E+00  1.50000000E+00  8.00000000E-01  8.00000000E-01  1.50000000E+00
  1.50000000E+00  8.00000000E-01  8.00000000E-01  1.50000000E+00  1.50000000E+00
  8.00000000E-01  8.00000000E-01  1.50000000E+00  1.50000000E+00  8.00000000E-01
  8.00000000E-01  1.50000000E+00  1.50000000E+00  8.00000000E-01  8.00000000E-01
  1.50000000E+00  1.50000000E+00  8.00000000E-01  8.00000000E-01  1.50000000E+00
  1.50000000E+00  8.00000000E-01  8.00000000E-01  1.50000000E+00  1.50000000E+00
  8.00000000E-01  8.00000000E-01  1.50000000E+00  1.50000000E+00  8.00000000E-01
  8.00000000E-01  1.50000000E+00  1.50000000E+00  8.00000000E-01  8.00000000E-01
  1.50000000E+00  1.50000000E+00  8.00000000E-01  8.00000000E-01  1.50000000E+00
  1.50000000E+00  8.00000000E-01  8.00000000E-01  1.50000000E+00  1.50000000E+00
  8.00000000E-01  8.00000000E-01  1.50000000E+00  1.50000000E+00  8.00000000E-01
  8.00000000E-01  1.50000000E+00  1.50000000E+00  8.00000000E-01  8.00000000E-01
  1.50000000E+00  1.50000000E+00  8.00000000E-01  8.00000000E-01  1.50000000E+00
  1.50000000E+00  8.00000000E-01  8.00000000E-01  1.50000000E+00  1.50000000E+00
  8.00000000E-01  8.00000000E-01  1.50000000E+00  1.50000000E+00  8.00000000E-01
  8.00000000E-01  1.50000000E+00  1.50000000E+00  8.00000000E-01  8.00000000E-01
  1.50000000E+00  1.50000000E+00  8.00000000E-01  8.00000000E-01  1.50000000E+00
  1.50000000E+00  8.00000000E-01  8.00000000E-01  1.50000000E+00  1.50000000E+00
  8.00000000E-01  8.00000000E-01  1.50000000E+00  1.50000000E+00  8.00000000E-01
  8.00000000E-01  1.50000000E+00  1.50000000E+00  8.00000000E-01  8.00000000E-01
  1.50000000E+00  1.50000000E+00  8.00000000E-01  8.00000000E-01  1.50000000E+00
  1.50000000E+00  8.00000000E-01  8.00000000E-01  1.50000000E+00  1.50000000E+00
  8.00000000E-01  8.00000000E-01  1.50000000E+00  1.50000000E+00  8.00000000E-01
  8.00000000E-01  1.50000000E+00  1.50000000E+00  8.00000000E-01  8.00000000E-01
  1.50000000E+00  1.50000000E+00  8.00000000E-01  8.00000000E-01  1.50000000E+00
  1.50000000E+00  8.00000000E-01  8.00000000E-01  1.50000000E+00  1.50000000E+00
  8.00000000E-01  8.00000000E-01  1.50000000E+00  1.50000000E+00  8.00000000E-01
  8.00000000E-01  1.50000000E+00  1.50000000E+00  8.00000000E-01  8.00000000E-01
  1.50000000E+00  1.50000000E+00  8.00000000E-01  8.00000000E-01  1.50000000E+00
  1.50000000E+00  8.00000000E-01  8.00000000E-01  1.50000000E+00  1.50000000E+00
  8.00000000E-01  8.00000000E-01  1.50000000E+00  1.50000000E+00  8.00000000E-01
  8.00000000E-01  1.50000000E+00  1.50000000E+00  8.00000000E-01  8.00000000E-01
  1.50000000E+00  1.50000000E+00  8.00000000E-01  8.00000000E-01  1.50000000E+00
  1.50000000E+00  8.00000000E-01  8.00000000E-01  1.50000000E+00  1.50000000E+00
  8.00000000E-01  8.00000000E-01  1.50000000E+00  1.50000000E+00  8.00000000E-01
  8.00000000E-01  1.50000000E+00  1.50000000E+00  8.00000000E-01  8.00000000E-01
  1.50000000E+00  1.50000000E+00  8.00000000E-01  8.00000000E-01  1.50000000E+00
  1.50000000E+00  8.00000000E-01  8.00000000E-01  1.50000000E+00  1.50000000E+00
  8.00000000E-01  8.00000000E-01  1.50000000E+00  1.50000000E+00  8.00000000E-01
  8.00000000E-01  1.50000000E+00  1.50000000E+00  8.00000000E-01  8.00000000E-01
  1.50000000E+00  1.50000000E+00  8.00000000E-01  8.00000000E-01  1.50000000E+00
  1.50000000E+00  8.00000000E-01  8.00000000E-01  1.50000000E+00  1.50000000E+00
  8.00000000E-01  8.00000000E-01  1.50000000E+00  1.50000000E+00  8.00000000E-01
  8.00000000E-01  1.50000000E+00  1.50000000E+00  8.00000000E-01  8.00000000E-01
  1.50000000E+00  1.50000000E+00  8.00000000E-01  8.00000000E-01  1.50000000E+00
  1.50000000E+00  8.00000000E-01  8.00000000E-01  1.50000000E+00  1.50000000E+00
  8.00000000E-01  8.00000000E-01  1.50000000E+00  1.50000000E+00  8.00000000E-01
  8.00000000E-01  1.50000000E+00  1.50000000E+00  8.00000000E-01  8.00000000E-01
  1.50000000E+00  1.50000000E+00  8.00000000E-01  8.00000000E-01  1.50000000E+00
  1.50000000E+00  8.00000000E-01  8.00000000E-01  1.50000000E+00  1.50000000E+00
  8.00000000E-01  8.00000000E-01  1.50000000E+00  1.50000000E+00  8.00000000E-01
  8.00000000E-01  1.50000000E+00  1.50000000E+00  8.00000000E-01  8.00000000E-01
  1.50000000E+00  1.50000000E+00  8.00000000E-01  8.00000000E-01  1.50000000E+00
  1.50000000E+00  8.00000000E-01  8.00000000E-01  1.50000000E+00  1.50000000E+00
  8.00000000E-01  8.00000000E-01  1.50000000E+00  1.50000000E+00  8.00000000E-01
  8.00000000E-01  1.50000000E+00  1.50000000E+00  8.00000000E-01  8.00000000E-01
  1.50000000E+00  1.50000000E+00  8.00000000E-01  8.00000000E-01  1.50000000E+00
  1.50000000E+00  8.00000000E-01  8.00000000E-01  1.50000000E+00  1.50000000E+00
  8.00000000E-01  8.00000000E-01  1.50000000E+00  1.50000000E+00  8.00000000E-01
  8.00000000E-01  1.50000000E+00  1.50000000E+00  8.00000000E-01  8.00000000E-01
  1.50000000E+00  1.50000000E+00  8.00000000E-01  8.00000000E-01  1.50000000E+00
  1.50000000E+00  8.00000000E-01  8.00000000E-01  1.50000000E+00  1.50000000E+00
  8.00000000E-01  8.00000000E-01  1.50000000E+00  1.50000000E+00  8.00000000E-01
  8.00000000E-01  1.50000000E+00  1.50000000E+00  8.00000000E-01  8.00000000E-01
  1.50000000E+00  1.50000000E+00  8.00000000E-01  8.00000000E-01  1.50000000E+00
  1.50000000E+00  8.00000000E-01  8.00000000E-01  1.50000000E+00  1.50000000E+00
  8.00000000E-01  8.00000000E-01  1.50000000E+00  1.50000000E+00  8.00000000E-01
  8.00000000E-01  1.50000000E+00  1.50000000E+00  8.00000000E-01  8.00000000E-01
  1.50000000E+00  1.50000000E+00  8.00000000E-01  8.00000000E-01  1.50000000E+00
  1.50000000E+00  8.00000000E-01  8.00000000E-01  1.50000000E+00  1.50000000E+00
  8.00000000E-01  8.00000000E-01  1.50000000E+00  1.50000000E+00  8.00000000E-01
  8.00000000E-01  1.50000000E+00  1.50000000E+00  8.00000000E-01  8.00000000E-01
  1.50000000E+00  1.50000000E+00  8.00000000E-01  8.00000000E-01  1.50000000E+00
  1.50000000E+00  8.00000000E-01  8.00000000E-01  1.50000000E+00  1.50000000E+00
  8.00000000E-01  8.00000000E-01  1.50000000E+00  1.50000000E+00  8.00000000E-01
  8.00000000E-01  1.50000000E+00  1.50000000E+00  8.00000000E-01  8.00000000E-01
  1.50000000E+00  1.50000000E+00  8.00000000E-01  8.00000000E-01  1.50000000E+00
  1.50000000E+00  8.00000000E-01  8.00000000E-01  1.50000000E+00  1.50000000E+00
  8.00000000E-01  8.00000000E-01  1.50000000E+00  1.50000000E+00  8.00000000E-01
  8.00000000E-01  1.50000000E+00  1.50000000E+00  8.00000000E-01  8.00000000E-01
  1.50000000E+00  1.50000000E+00  8.00000000E-01  8.00000000E-01  1.50000000E+00
  1.50000000E+00  8.00000000E-01  8.00000000E-01  1.50000000E+00  1.50000000E+00
  8.00000000E-01  8.00000000E-01  1.50000000E+00  1.50000000E+00  8.00000000E-01
  8.00000000E-01  1.50000000E+00  1.50000000E+00  8.00000000E-01  8.00000000E-01
  1.50000000E+00  1.50000000E+00  8.00000000E-01  8.00000000E-01  1.50000000E+00
  1.50000000E+00  8.00000000E-01  8.00000000E-01  1.50000000E+00  1.50000000E+00
  8.00000000E-01  8.00000000E-01  1.50000000E+00  1.50000000E+00  8.00000000E-01
  8.00000000E-01  1.50000000E+00  1.50000000E+00  8.00000000E-01  8.00000000E-01
  1.50000000E+00  1.50000000E+00  8.00000000E-01  8.00000000E-01  1.50000000E+00
  1.50000000E+00  8.00000000E-01  8.00000000E-01  1.50000000E+00  1.50000000E+00
  8.00000000E-01  8.00000000E-01  1.50000000E+00  1.50000000E+00  8.00000000E-01
  8.00000000E-01  1.50000000E+00  1.50000000E+00  8.00000000E-01  8.00000000E-01
  1.50000000E+00  1.50000000E+00  8.00000000E-01  8.00000000E-01  1.50000000E+00
  1.50000000E+00  8.00000000E-01  8.00000000E-01  1.50000000E+00  1.50000000E+00
  8.00000000E-01  8.00000000E-01  1.50000000E+00  1.50000000E+00  8.00000000E-01
  8.00000000E-01  1.50000000E+00  1.50000000E+00  8.00000000E-01  8.00000000E-01
  1.50000000E+00  1.50000000E+00  8.00000000E-01  8.00000000E-01  1.50000000E+00
  1.50000000E+00  8.00000000E-01  8.00000000E-01  1.50000000E+00  1.50000000E+00
  8.00000000E-01  8.00000000E-01  1.50000000E+00  1.50000000E+00  8.00000000E-01
  8.00000000E-01  1.50000000E+00  1.50000000E+00  8.00000000E-01  8.00000000E-01
  1.50000000E+00  1.50000000E+00  8.00000000E-01  8.00000000E-01  1.50000000E+00
  1.50000000E+00  8.00000000E-01  8.00000000E-01  1.50000000E+00  1.50000000E+00
  8.00000000E-01  8.00000000E-01  1.50000000E+00  1.50000000E+00  8.00000000E-01
  8.00000000E-01  1.50000000E+00  1.50000000E+00  8.00000000E-01  8.00000000E-01
  1.50000000E+00  1.50000000E+00  8.00000000E-01  8.00000000E-01  1.50000000E+00
  1.50000000E+00  8.00000000E-01  8.00000000E-01  1.50000000E+00  1.50000000E+00
  8.00000000E-01  8.00000000E-01  1.50000000E+00  1.50000000E+00  8.00000000E-01
  8.00000000E-01  1.50000000E+00  1.50000000E+00  8.00000000E-01  8.00000000E-01
  1.50000000E+00  1.50000000E+00  8.00000000E-01  8.00000000E-01  1.50000000E+00
  1.50000000E+00  8.00000000E-01  8.00000000E-01  1.50000000E+00  1.50000000E+00
  8.00000000E-01  8.00000000E-01  1.50000000E+00  1.50000000E+00  8.00000000E-01
  8.00000000E-01  1.50000000E+00  1.50000000E+00  8.00000000E-01  8.00000000E-01
  1.50000000E+00  1.50000000E+00  8.00000000E-01  8.00000000E-01  1.50000000E+00
  1.50000000E+00  8.00000000E-01  8.00000000E-01  1.50000000E+00  1.50000000E+00
  8.00000000E-01  8.00000000E-01  1.50000000E+00  1.50000000E+00  8.00000000E-01
  8.00000000E-01  1.50000000E+00  1.50000000E+00  8.00000000E-01  8.00000000E-01
  1.50000000E+00  1.50000000E+00  8.00000000E-01  8.00000000E-01  1.50000000E+00
  1.50000000E+00  8.00000000E-01  8.00000000E-01  1.50000000E+00  1.50000000E+00
  8.00000000E-01  8.00000000E-01  1.50000000E+00  1.50000000E+00  8.00000000E-01
  8.00000000E-01  1.50000000E+00  1.50000000E+00  8.00000000E-01  8.00000000E-01
  1.50000000E+00  1.50000000E+00  8.00000000E-01  8.00000000E-01  1.50000000E+00
  1.50000000E+00  8.00000000E-01  8.00000000E-01  1.50000000E+00  1.50000000E+00
  8.00000000E-01  8.00000000E-01  1.50000000E+00  1.50000000E+00  8.00000000E-01
  8.00000000E-01  1.50000000E+00  1.50000000E+00  8.00000000E-01  8.00000000E-01
  1.50000000E+00  1.50000000E+00  8.00000000E-01  8.00000000E-01  1.50000000E+00
  1.50000000E+00  8.00000000E-01  8.00000000E-01  1.50000000E+00  1.50000000E+00
  8.00000000E-01  8.00000000E-01  1.50000000E+00  1.50000000E+00  8.00000000E-01
  8.00000000E-01  1.50000000E+00  1.50000000E+00  8.00000000E-01  8.00000000E-01
  1.50000000E+00  1.50000000E+00  8.00000000E-01  8.00000000E-01  1.50000000E+00
  1.50000000E+00  8.00000000E-01  8.00000000E-01  1.50000000E+00  1.50000000E+00
  8.00000000E-01  8.00000000E-01  1.50000000E+00  1.50000000E+00  8.00000000E-01
  8.00000000E-01  1.50000000E+00  1.50000000E+00  8.00000000E-01  8.00000000E-01
  1.50000000E+00  1.50000000E+00  8.00000000E-01  8.00000000E-01  1.50000000E+00
  1.50000000E+00  8.00000000E-01  8.00000000E-01  1.50000000E+00  1.50000000E+00
  8.00000000E-01  8.00000000E-01  1.50000000E+00  1.50000000E+00  8.00000000E-01
  8.00000000E-01  1.50000000E+00  1.50000000E+00  8.00000000E-01  8.00000000E-01
  1.50000000E+00  1.50000000E+00  8.00000000E-01  8.00000000E-01  1.50000000E+00
  1.50000000E+00  8.00000000E-01  8.00000000E-01  1.50000000E+00  1.50000000E+00
  8.00000000E-01  8.00000000E-01  1.50000000E+00  1.50000000E+00  8.00000000E-01
  8.00000000E-01  1.50000000E+00  1.50000000E+00  8.00000000E-01  8.00000000E-01
  1.50000000E+00  1.50000000E+00  8.00000000E-01  8.00000000E-01  1.50000000E+00
  1.50000000E+00  8.00000000E-01  8.00000000E-01  1.50000000E+00  1.50000000E+00
  8.00000000E-01  8.00000000E-01  1.50000000E+00  1.50000000E+00  8.00000000E-01
  8.00000000E-01  1.50000000E+00  1.50000000E+00  8.00000000E-01  8.00000000E-01
  1.50000000E+00  1.50000000E+00  8.00000000E-01  8.00000000E-01  1.50000000E+00
  1.50000000E+00  8.00000000E-01  8.00000000E-01  1.50000000E+00  1.50000000E+00
  8.00000000E-01  8.00000000E-01  1.50000000E+00  1.50000000E+00  8.00000000E-01
  8.00000000E-01  1.50000000E+00  1.50000000E+00  8.00000000E-01  8.00000000E-01
  1.50000000E+00  1.50000000E+00  8.00000000E-01  8.00000000E-01  1.50000000E+00
  1.50000000E+00  8.00000000E-01  8.00000000E-01  1.50000000E+00  1.50000000E+00
  8.00000000E-01  8.00000000E-01  1.50000000E+00  1.50000000E+00  8.00000000E-01
  8.00000000E-01  1.50000000E+00  1.50000000E+00  8.00000000E-01  8.00000000E-01
  1.50000000E+00  1.50000000E+00  8.00000000E-01  8.00000000E-01  1.50000000E+00
  1.50000000E+00  8.00000000E-01  8.00000000E-01  1.50000000E+00  1.50000000E+00
  8.00000000E-01  8.00000000E-01  1.50000000E+00  1.50000000E+00  8.00000000E-01
  8.00000000E-01  1.50000000E+00  1.50000000E+00  8.00000000E-01  8.00000000E-01
  1.50000000E+00  1.50000000E+00  8.00000000E-01  8.00000000E-01  1.50000000E+00
  1.50000000E+00  8.00000000E-01  8.00000000E-01  1.50000000E+00  1.50000000E+00
  8.00000000E-01  8.00000000E-01  1.50000000E+00  1.50000000E+00  8.00000000E-01
  8.00000000E-01  1.50000000E+00  1.50000000E+00  8.00000000E-01  8.00000000E-01
  1.50000000E+00  1.50000000E+00  8.00000000E-01  8.00000000E-01  1.50000000E+00
  1.50000000E+00  8.00000000E-01  8.00000000E-01  1.50000000E+00  1.50000000E+00
  8.00000000E-01  8.00000000E-01  1.50000000E+00  1.50000000E+00  8.00000000E-01
  8.00000000E-01  1.50000000E+00  1.50000000E+00  8.00000000E-01  8.00000000E-01
  1.50000000E+00  1.50000000E+00  8.00000000E-01  8.00000000E-01  1.50000000E+00
  1.50000000E+00  8.00000000E-01  8.00000000E-01  1.50000000E+00  1.50000000E+00
  8.00000000E-01  8.00000000E-01  1.50000000E+00  1.50000000E+00  8.00000000E-01
  8.00000000E-01  1.50000000E+00  1.50000000E+00  8.00000000E-01  8.00000000E-01
  1.50000000E+00  1.50000000E+00  8.00000000E-01  8.00000000E-01  1.50000000E+00
  1.50000000E+00  8.00000000E-01  8.00000000E-01  1.50000000E+00  1.50000000E+00
  8.00000000E-01  8.00000000E-01  1.50000000E+00  1.50000000E+00  8.00000000E-01
  8.00000000E-01  1.50000000E+00  1.50000000E+00  8.00000000E-01  8.00000000E-01
  1.50000000E+00  1.50000000E+00  8.00000000E-01  8.00000000E-01  1.50000000E+00
  1.50000000E+00  8.00000000E-01  8.00000000E-01  1.50000000E+00  1.50000000E+00
  8.00000000E-01  8.00000000E-01  1.50000000E+00  1.50000000E+00  8.00000000E-01
  8.00000000E-01  1.50000000E+00  1.50000000E+00  8.00000000E-01  8.00000000E-01
  1.50000000E+00  1.50000000E+00  8.00000000E-01  8.00000000E-01  1.50000000E+00
  1.50000000E+00  8.00000000E-01  8.00000000E-01  1.50000000E+00  1.50000000E+00
  8.00000000E-01  8.00000000E-01  1.50000000E+00  1.50000000E+00  8.00000000E-01
  8.00000000E-01  1.50000000E+00  1.50000000E+00  8.00000000E-01  8.00000000E-01
  1.50000000E+00  1.50000000E+00  8.00000000E-01  8.00000000E-01  1.50000000E+00
  1.50000000E+00  8.00000000E-01  8.00000000E-01  1.50000000E+00  1.50000000E+00
  8.00000000E-01  8.00000000E-01  1.50000000E+00  1.50000000E+00  8.00000000E-01
  8.00000000E-01  1.50000000E+00  1.50000000E+00  8.00000000E-01  8.00000000E-01
  1.50000000E+00  1.50000000E+00  8.00000000E-01  8.00000000E-01  1.50000000E+00
  1.50000000E+00  8.00000000E-01  8.00000000E-01  1.50000000E+00  1.50000000E+00
  8.00000000E-01  8.00000000E-01  1.50000000E+00  1.50000000E+00  8.00000000E-01
  8.00000000E-01  1.50000000E+00  1.50000000E+00  8.00000000E-01  8.00000000E-01
  1.50000000E+00  1.50000000E+00  8.00000000E-01  8.00000000E-01  1.50000000E+00
  1.50000000E+00  8.00000000E-01  8.00000000E-01  1.50000000E+00  1.50000000E+00
  8.00000000E-01  8.00000000E-01  1.50000000E+00  1.50000000E+00  8.00000000E-01
  8.00000000E-01  1.50000000E+00  1.50000000E+00  8.00000000E-01  8.00000000E-01
  1.50000000E+00  1.50000000E+00  8.00000000E-01  8.00000000E-01  1.50000000E+00
  1.50000000E+00  8.00000000E-01  8.00000000E-01  1.50000000E+00  1.50000000E+00
  8.00000000E-01  8.00000000E-01  1.50000000E+00  1.50000000E+00  8.00000000E-01
  8.00000000E-01  1.50000000E+00  1.50000000E+00  8.00000000E-01  8.00000000E-01
  1.50000000E+00  1.50000000E+00  8.00000000E-01  8.00000000E-01  1.50000000E+00
  1.50000000E+00  8.00000000E-01  8.00000000E-01  1.50000000E+00  1.50000000E+00
  8.00000000E-01  8.00000000E-01  1.50000000E+00  1.50000000E+00  8.00000000E-01
  8.00000000E-01  1.50000000E+00  1.50000000E+00  8.00000000E-01  8.00000000E-01
  1.50000000E+00  1.50000000E+00  8.00000000E-01  8.00000000E-01  1.50000000E+00
  1.50000000E+00  8.00000000E-01  8.00000000E-01  1.50000000E+00  1.50000000E+00
  8.00000000E-01  8.00000000E-01  1.50000000E+00  1.50000000E+00  8.00000000E-01
  8.00000000E-01  1.50000000E+00  1.50000000E+00  8.00000000E-01  8.00000000E-01
  1.50000000E+00  1.50000000E+00  8.00000000E-01  8.00000000E-01  1.50000000E+00
  1.50000000E+00  8.00000000E-01  8.00000000E-01  1.50000000E+00  1.50000000E+00
  8.00000000E-01  8.00000000E-01  1.50000000E+00  1.50000000E+00  8.00000000E-01
  8.00000000E-01  1.50000000E+00  1.50000000E+00  8.00000000E-01  8.00000000E-01
  1.50000000E+00  1.50000000E+00  8.00000000E-01  8.00000000E-01  1.50000000E+00
  1.50000000E+00  8.00000000E-01  8.00000000E-01  1.50000000E+00  1.50000000E+00
  8.00000000E-01  8.00000000E-01  1.50000000E+00  1.50000000E+00  8.00000000E-01
  8.00000000E-01  1.50000000E+00  1.50000000E+00  8.00000000E-01  8.00000000E-01
  1.50000000E+00  1.50000000E+00  8.00000000E-01  8.00000000E-01  1.50000000E+00
  1.50000000E+00  8.00000000E-01  8.00000000E-01  1.50000000E+00  1.50000000E+00
  8.00000000E-01  8.00000000E-01  1.50000000E+00  1.50000000E+00  8.00000000E-01
  8.00000000E-01  1.50000000E+00  1.50000000E+00  8.00000000E-01  8.00000000E-01
  1.50000000E+00  1.50000000E+00  8.00000000E-01  8.00000000E-01  1.50000000E+00
  1.50000000E+00  8.00000000E-01  8.00000000E-01  1.50000000E+00  1.50000000E+00
  8.00000000E-01  8.00000000E-01  1.50000000E+00  1.50000000E+00  8.00000000E-01
  8.00000000E-01  1.50000000E+00  1.50000000E+00  8.00000000E-01  8.00000000E-01
  1.50000000E+00  1.50000000E+00  8.00000000E-01  8.00000000E-01  1.50000000E+00
  1.50000000E+00  8.00000000E-01  8.00000000E-01  1.50000000E+00  1.50000000E+00
  8.00000000E-01  8.00000000E-01  1.50000000E+00  1.50000000E+00  8.00000000E-01
  8.00000000E-01  1.50000000E+00  1.50000000E+00  8.00000000E-01  8.00000000E-01
  1.50000000E+00  1.50000000E+00  8.00000000E-01  8.00000000E-01  1.50000000E+00
  1.50000000E+00  8.00000000E-01  8.00000000E-01  1.50000000E+00  1.50000000E+00
  8.00000000E-01  8.00000000E-01  1.50000000E+00  1.50000000E+00  8.00000000E-01
  8.00000000E-01  1.50000000E+00  1.50000000E+00  8.00000000E-01  8.00000000E-01
  1.50000000E+00  1.50000000E+00  8.00000000E-01  8.00000000E-01  1.50000000E+00
  1.50000000E+00  8.00000000E-01  8.00000000E-01  1.50000000E+00  1.50000000E+00
  8.00000000E-01  8.00000000E-01  1.50000000E+00  1.50000000E+00  8.00000000E-01
  8.00000000E-01  1.50000000E+00  1.50000000E+00  8.00000000E-01  8.00000000E-01
  1.50000000E+00  1.50000000E+00  8.00000000E-01  8.00000000E-01  1.50000000E+00
  1.50000000E+00  8.00000000E-01  8.00000000E-01  1.50000000E+00  1.50000000E+00
  8.00000000E-01  8.00000000E-01  1.50000000E+00  1.50000000E+00  8.00000000E-01
  8.00000000E-01  1.50000000E+00  1.50000000E+00  8.00000000E-01  8.00000000E-01
  1.50000000E+00  1.50000000E+00  8.00000000E-01  8.00000000E-01  1.50000000E+00
  1.50000000E+00  8.00000000E-01  8.00000000E-01  1.50000000E+00  1.50000000E+00
  8.00000000E-01  8.00000000E-01  1.50000000E+00  1.50000000E+00  8.00000000E-01
  8.00000000E-01  1.50000000E+00  1.50000000E+00  8.00000000E-01  8.00000000E-01
  1.50000000E+00  1.50000000E+00  8.00000000E-01  8.00000000E-01  1.50000000E+00
  1.50000000E+00  8.00000000E-01  8.00000000E-01  1.50000000E+00  1.50000000E+00
  8.00000000E-01  8.00000000E-01  1.50000000E+00  1.50000000E+00  8.00000000E-01
  8.00000000E-01  1.50000000E+00  1.50000000E+00  8.00000000E-01  8.00000000E-01
  1.50000000E+00  1.50000000E+00  8.00000000E-01  8.00000000E-01  1.50000000E+00
  1.50000000E+00  8.00000000E-01  8.00000000E-01  1.50000000E+00  1.50000000E+00
  8.00000000E-01  8.00000000E-01  1.50000000E+00  1.50000000E+00  8.00000000E-01
  8.00000000E-01  1.50000000E+00  1.50000000E+00  8.00000000E-01  8.00000000E-01
  1.50000000E+00  1.50000000E+00  8.00000000E-01  8.00000000E-01  1.50000000E+00
  1.50000000E+00  8.00000000E-01  8.00000000E-01  1.50000000E+00  1.50000000E+00
  8.00000000E-01  8.00000000E-01  1.50000000E+00  1.50000000E+00  8.00000000E-01
  8.00000000E-01  1.50000000E+00  1.50000000E+00  8.00000000E-01  8.00000000E-01
  1.50000000E+00  1.50000000E+00  8.00000000E-01  8.00000000E-01  1.50000000E+00
  1.50000000E+00  8.00000000E-01  8.00000000E-01  1.50000000E+00  1.50000000E+00
  8.00000000E-01  8.00000000E-01  1.50000000E+00  1.50000000E+00  8.00000000E-01
  8.00000000E-01  1.50000000E+00  1.50000000E+00  8.00000000E-01  8.00000000E-01
  1.50000000E+00  1.50000000E+00  8.00000000E-01  8.00000000E-01  1.50000000E+00
  1.50000000E+00  8.00000000E-01  8.00000000E-01  1.50000000E+00  1.50000000E+00
  8.00000000E-01  8.00000000E-01  1.50000000E+00  1.50000000E+00  8.00000000E-01
  8.00000000E-01  1.50000000E+00  1.50000000E+00  8.00000000E-01  8.00000000E-01
  1.50000000E+00  1.50000000E+00  8.00000000E-01  8.00000000E-01  1.50000000E+00
  1.50000000E+00  8.00000000E-01  8.00000000E-01  1.50000000E+00  1.50000000E+00
  8.00000000E-01  8.00000000E-01  1.50000000E+00  1.50000000E+00  8.00000000E-01
  8.00000000E-01  1.50000000E+00  1.50000000E+00  8.00000000E-01  8.00000000E-01
  1.50000000E+00  1.50000000E+00  8.00000000E-01  8.00000000E-01  1.50000000E+00
  1.50000000E+00  8.00000000E-01  8.00000000E-01  1.50000000E+00  1.50000000E+00
  8.00000000E-01  8.00000000E-01  1.50000000E+00  1.50000000E+00  8.00000000E-01
  8.00000000E-01  1.50000000E+00  1.50000000E+00  8.00000000E-01  8.00000000E-01
  1.50000000E+00  1.50000000E+00  8.00000000E-01  8.00000000E-01  1.50000000E+00
  1.50000000E+00  8.00000000E-01  8.00000000E-01  1.50000000E+00  1.50000000E+00
  8.00000000E-01  8.00000000E-01  1.50000000E+00  1.50000000E+00  8.00000000E-01
  8.00000000E-01  1.50000000E+00  1.50000000E+00  8.00000000E-01  8.00000000E-01
  1.50000000E+00  1.50000000E+00  8.00000000E-01  8.00000000E-01  1.50000000E+00
  1.50000000E+00  8.00000000E-01  8.00000000E-01  1.50000000E+00  1.50000000E+00
  8.00000000E-01  8.00000000E-01  1.50000000E+00  1.50000000E+00  8.00000000E-01
  8.00000000E-01  1.50000000E+00  1.50000000E+00  8.00000000E-01  8.00000000E-01
  1.50000000E+00  1.50000000E+00  8.00000000E-01  8.00000000E-01  1.50000000E+00
  1.50000000E+00  8.00000000E-01  8.00000000E-01  1.50000000E+00  1.50000000E+00
  8.00000000E-01  8.00000000E-01  1.50000000E+00  1.50000000E+00  8.00000000E-01
  8.00000000E-01  1.50000000E+00  1.50000000E+00  8.00000000E-01  8.00000000E-01
  1.50000000E+00  1.50000000E+00  8.00000000E-01  8.00000000E-01  1.50000000E+00
  1.50000000E+00  8.00000000E-01  8.00000000E-01  1.50000000E+00  1.50000000E+00
  8.00000000E-01  8.00000000E-01  1.50000000E+00  1.50000000E+00  8.00000000E-01
  8.00000000E-01  1.50000000E+00  1.50000000E+00  8.00000000E-01  8.00000000E-01
  1.50000000E+00  1.50000000E+00  8.00000000E-01  8.00000000E-01  1.50000000E+00
  1.50000000E+00  8.00000000E-01  8.00000000E-01  1.50000000E+00  1.50000000E+00
  8.00000000E-01  8.00000000E-01  1.50000000E+00  1.50000000E+00  8.00000000E-01
  8.00000000E-01  1.50000000E+00  1.50000000E+00  8.00000000E-01  8.00000000E-01
  1.50000000E+00  1.50000000E+00  8.00000000E-01  8.00000000E-01  1.50000000E+00
  1.50000000E+00  8.00000000E-01  8.00000000E-01  1.50000000E+00  1.50000000E+00
  8.00000000E-01  8.00000000E-01  1.50000000E+00  1.50000000E+00  8.00000000E-01
  8.00000000E-01  1.50000000E+00  1.50000000E+00  8.00000000E-01  8.00000000E-01
  1.50000000E+00  1.50000000E+00  8.00000000E-01  8.00000000E-01  1.50000000E+00
  1.50000000E+00  8.00000000E-01  8.00000000E-01  1.50000000E+00  1.50000000E+00
  8.00000000E-01  8.00000000E-01  1.50000000E+00  1.50000000E+00  8.00000000E-01
  8.00000000E-01  1.50000000E+00  1.50000000E+00  8.00000000E-01  8.00000000E-01
  1.50000000E+00  1.50000000E+00  8.00000000E-01  8.00000000E-01  1.50000000E+00
  1.50000000E+00  8.00000000E-01  8.00000000E-01  1.50000000E+00  1.50000000E+00
  8.00000000E-01  8.00000000E-01  1.50000000E+00  1.50000000E+00  8.00000000E-01
  8.00000000E-01  1.50000000E+00  1.50000000E+00  8.00000000E-01  8.00000000E-01
  1.50000000E+00  1.50000000E+00  8.00000000E-01  8.00000000E-01  1.50000000E+00
  1.50000000E+00  8.00000000E-01  8.00000000E-01  1.50000000E+00  1.50000000E+00
  8.00000000E-01  8.00000000E-01  1.50000000E+00  1.50000000E+00  8.00000000E-01
  8.00000000E-01  1.50000000E+00  1.50000000E+00  8.00000000E-01  8.00000000E-01
  1.50000000E+00  1.50000000E+00  8.00000000E-01  8.00000000E-01  1.50000000E+00
  1.50000000E+00  8.00000000E-01  8.00000000E-01  1.50000000E+00  1.50000000E+00
  8.00000000E-01  8.00000000E-01  1.50000000E+00  1.50000000E+00  8.00000000E-01
  8.00000000E-01  1.50000000E+00  1.50000000E+00  8.00000000E-01  8.00000000E-01
  1.50000000E+00  1.50000000E+00  8.00000000E-01  8.00000000E-01  1.50000000E+00
  1.50000000E+00  8.00000000E-01  8.00000000E-01  1.50000000E+00  1.50000000E+00
  8.00000000E-01  8.00000000E-01  1.50000000E+00  1.50000000E+00  8.00000000E-01
  8.00000000E-01  1.50000000E+00  1.50000000E+00  8.00000000E-01  8.00000000E-01
  1.50000000E+00  1.50000000E+00  8.00000000E-01  8.00000000E-01  1.50000000E+00
  1.50000000E+00  8.00000000E-01  8.00000000E-01  1.50000000E+00  1.50000000E+00
  8.00000000E-01  8.00000000E-01  1.50000000E+00  1.50000000E+00  8.00000000E-01
  8.00000000E-01  1.50000000E+00  1.50000000E+00  8.00000000E-01  8.00000000E-01
  1.50000000E+00  1.50000000E+00  8.00000000E-01  8.00000000E-01  1.50000000E+00
  1.50000000E+00  8.00000000E-01  8.00000000E-01  1.50000000E+00  1.50000000E+00
  8.00000000E-01  8.00000000E-01  1.50000000E+00  1.50000000E+00  8.00000000E-01
  8.00000000E-01  1.50000000E+00  1.50000000E+00  8.00000000E-01  8.00000000E-01
  1.50000000E+00  1.50000000E+00  8.00000000E-01  8.00000000E-01  1.50000000E+00
  1.50000000E+00  8.00000000E-01  8.00000000E-01  1.50000000E+00  1.50000000E+00
  8.00000000E-01  8.00000000E-01  1.50000000E+00  1.50000000E+00  8.00000000E-01
  8.00000000E-01  1.50000000E+00  1.50000000E+00  8.00000000E-01  8.00000000E-01
  1.50000000E+00  1.50000000E+00  8.00000000E-01  8.00000000E-01  1.50000000E+00
  1.50000000E+00  8.00000000E-01  8.00000000E-01  1.50000000E+00  1.50000000E+00
  8.00000000E-01  8.00000000E-01  1.50000000E+00  1.50000000E+00  8.00000000E-01
  8.00000000E-01  1.50000000E+00  1.50000000E+00  8.00000000E-01  8.00000000E-01
  1.50000000E+00  1.50000000E+00  8.00000000E-01  8.00000000E-01  1.50000000E+00
  1.50000000E+00  8.00000000E-01  8.00000000E-01  1.50000000E+00  1.50000000E+00
  8.00000000E-01  8.00000000E-01  1.50000000E+00  1.50000000E+00  8.00000000E-01
  8.00000000E-01  1.50000000E+00  1.50000000E+00  8.00000000E-01  8.00000000E-01
  1.50000000E+00  1.50000000E+00  8.00000000E-01  8.00000000E-01  1.50000000E+00
  1.50000000E+00  8.00000000E-01  8.00000000E-01  1.50000000E+00  1.50000000E+00
  8.00000000E-01  8.00000000E-01  1.50000000E+00  1.50000000E+00  8.00000000E-01
  8.00000000E-01  1.50000000E+00  1.50000000E+00  8.00000000E-01  8.00000000E-01
  1.50000000E+00  1.50000000E+00  8.00000000E-01  8.00000000E-01  1.50000000E+00
  1.50000000E+00  8.00000000E-01  8.00000000E-01  1.50000000E+00  1.50000000E+00
  8.00000000E-01  8.00000000E-01  1.50000000E+00  1.50000000E+00  8.00000000E-01
  8.00000000E-01  1.50000000E+00  1.50000000E+00  8.00000000E-01  8.00000000E-01
  1.50000000E+00  1.50000000E+00  8.00000000E-01  8.00000000E-01  1.50000000E+00
  1.50000000E+00  8.00000000E-01  8.00000000E-01  1.50000000E+00  1.50000000E+00
  8.00000000E-01  8.00000000E-01  1.50000000E+00  1.50000000E+00  8.00000000E-01
  8.00000000E-01  1.50000000E+00  1.50000000E+00  8.00000000E-01  8.00000000E-01
  1.50000000E+00  1.50000000E+00  8.00000000E-01  8.00000000E-01  1.50000000E+00
  1.50000000E+00  8.00000000E-01  8.00000000E-01  1.50000000E+00  1.50000000E+00
  8.00000000E-01  8.00000000E-01  1.50000000E+00  1.50000000E+00  8.00000000E-01
  8.00000000E-01  1.50000000E+00  1.50000000E+00  8.00000000E-01  8.00000000E-01
  1.50000000E+00  1.50000000E+00  8.00000000E-01  8.00000000E-01  1.50000000E+00
  1.50000000E+00  8.00000000E-01  8.00000000E-01  1.50000000E+00  1.50000000E+00
  8.00000000E-01  8.00000000E-01  1.50000000E+00  1.50000000E+00  8.00000000E-01
  8.00000000E-01  1.50000000E+00  1.50000000E+00  8.00000000E-01  8.00000000E-01
  1.50000000E+00  1.50000000E+00  8.00000000E-01  8.00000000E-01  1.50000000E+00
  1.50000000E+00  8.00000000E-01  8.00000000E-01  1.50000000E+00  1.50000000E+00
  8.00000000E-01  8.00000000E-01  1.50000000E+00  1.50000000E+00  8.00000000E-01
  8.00000000E-01  1.50000000E+00  1.50000000E+00  8.00000000E-01  8.00000000E-01
  1.50000000E+00  1.50000000E+00  8.00000000E-01  8.00000000E-01  1.50000000E+00
  1.50000000E+00  8.00000000E-01  8.00000000E-01  1.50000000E+00  1.50000000E+00
  8.00000000E-01  8.00000000E-01  1.50000000E+00  1.50000000E+00  8.00000000E-01
  8.00000000E-01  1.50000000E+00  1.50000000E+00  8.00000000E-01  8.00000000E-01
  1.50000000E+00  1.50000000E+00  8.00000000E-01  8.00000000E-01  1.50000000E+00
  1.50000000E+00  8.00000000E-01  8.00000000E-01  1.50000000E+00  1.50000000E+00
  8.00000000E-01  8.00000000E-01  1.50000000E+00  1.50000000E+00  8.00000000E-01
  8.00000000E-01  1.50000000E+00  1.50000000E+00  8.00000000E-01  8.00000000E-01
  1.50000000E+00  1.50000000E+00  8.00000000E-01  8.00000000E-01  1.50000000E+00
  1.50000000E+00  8.00000000E-01  8.00000000E-01  1.50000000E+00  1.50000000E+00
  8.00000000E-01  8.00000000E-01  1.50000000E+00  1.50000000E+00  8.00000000E-01
  8.00000000E-01  1.50000000E+00  1.50000000E+00  8.00000000E-01  8.00000000E-01
  1.50000000E+00  1.50000000E+00  8.00000000E-01  8.00000000E-01  1.50000000E+00
  1.50000000E+00  8.00000000E-01  8.00000000E-01  1.50000000E+00  1.50000000E+00
  8.00000000E-01  8.00000000E-01  1.50000000E+00  1.50000000E+00  8.00000000E-01
  8.00000000E-01  1.50000000E+00  1.50000000E+00  8.00000000E-01  8.00000000E-01
  1.50000000E+00  1.50000000E+00  8.00000000E-01  8.00000000E-01  1.50000000E+00
  1.50000000E+00  8.00000000E-01  8.00000000E-01  1.50000000E+00  1.50000000E+00
  8.00000000E-01  8.00000000E-01  1.50000000E+00  1.50000000E+00  8.00000000E-01
  8.00000000E-01  1.50000000E+00  1.50000000E+00  8.00000000E-01  8.00000000E-01
  1.50000000E+00  1.50000000E+00  8.00000000E-01  8.00000000E-01  1.50000000E+00
  1.50000000E+00  8.00000000E-01  8.00000000E-01  1.50000000E+00  1.50000000E+00
  8.00000000E-01  8.00000000E-01  1.50000000E+00  1.50000000E+00  8.00000000E-01
  8.00000000E-01  1.50000000E+00  1.50000000E+00  8.00000000E-01  8.00000000E-01
  1.50000000E+00  1.50000000E+00  8.00000000E-01  8.00000000E-01  1.50000000E+00
  1.50000000E+00  8.00000000E-01  8.00000000E-01  1.50000000E+00  1.50000000E+00
  8.00000000E-01  8.00000000E-01  1.50000000E+00  1.50000000E+00  8.00000000E-01
  8.00000000E-01  1.50000000E+00  1.50000000E+00  8.00000000E-01  8.00000000E-01
  1.50000000E+00  1.50000000E+00  8.00000000E-01  8.00000000E-01  1.50000000E+00
  1.50000000E+00  8.00000000E-01  8.00000000E-01  1.50000000E+00  1.50000000E+00
  8.00000000E-01  8.00000000E-01  1.50000000E+00  1.50000000E+00  8.00000000E-01
  8.00000000E-01  1.50000000E+00  1.50000000E+00  8.00000000E-01  8.00000000E-01
  1.50000000E+00  1.50000000E+00  8.00000000E-01  8.00000000E-01  1.50000000E+00
  1.50000000E+00  8.00000000E-01  8.00000000E-01  1.50000000E+00  1.50000000E+00
  8.00000000E-01  8.00000000E-01  1.50000000E+00  1.50000000E+00  8.00000000E-01
  8.00000000E-01  1.50000000E+00  1.50000000E+00  8.00000000E-01  8.00000000E-01
  1.50000000E+00  1.50000000E+00  8.00000000E-01  8.00000000E-01  1.50000000E+00
  1.50000000E+00  8.00000000E-01  8.00000000E-01  1.50000000E+00  1.50000000E+00
  8.00000000E-01  8.00000000E-01  1.50000000E+00  1.50000000E+00  8.00000000E-01
  8.00000000E-01  1.50000000E+00  1.50000000E+00  8.00000000E-01  8.00000000E-01
  1.50000000E+00  1.50000000E+00  8.00000000E-01  8.00000000E-01  1.50000000E+00
  1.50000000E+00  8.00000000E-01  8.00000000E-01  1.50000000E+00  1.50000000E+00
  8.00000000E-01  8.00000000E-01  1.50000000E+00  1.50000000E+00  8.00000000E-01
  8.00000000E-01  1.50000000E+00  1.50000000E+00  8.00000000E-01  8.00000000E-01
  1.50000000E+00  1.50000000E+00  8.00000000E-01  8.00000000E-01  1.50000000E+00
  1.50000000E+00  8.00000000E-01  8.00000000E-01  1.50000000E+00  1.50000000E+00
  8.00000000E-01  8.00000000E-01  1.50000000E+00  1.50000000E+00  8.00000000E-01
  8.00000000E-01  1.50000000E+00  1.50000000E+00  8.00000000E-01  8.00000000E-01
  1.50000000E+00  1.50000000E+00  8.00000000E-01  8.00000000E-01  1.50000000E+00
  1.50000000E+00  8.00000000E-01  8.00000000E-01  1.50000000E+00  1.50000000E+00
  8.00000000E-01  8.00000000E-01  1.50000000E+00  1.50000000E+00  8.00000000E-01
  8.00000000E-01  1.50000000E+00  1.50000000E+00  8.00000000E-01  8.00000000E-01
  1.50000000E+00  1.50000000E+00  8.00000000E-01  8.00000000E-01  1.50000000E+00
  1.50000000E+00  8.00000000E-01  8.00000000E-01  1.50000000E+00  1.50000000E+00
  8.00000000E-01  8.00000000E-01  1.50000000E+00  1.50000000E+00  8.00000000E-01
  8.00000000E-01  1.50000000E+00  1.50000000E+00  8.00000000E-01  8.00000000E-01
  1.50000000E+00  1.50000000E+00  8.00000000E-01  8.00000000E-01  1.50000000E+00
  1.50000000E+00  8.00000000E-01  8.00000000E-01  1.50000000E+00  1.50000000E+00
  8.00000000E-01  8.00000000E-01  1.50000000E+00  1.50000000E+00  8.00000000E-01
  8.00000000E-01  1.50000000E+00  1.50000000E+00  8.00000000E-01  8.00000000E-01
  1.50000000E+00  1.50000000E+00  8.00000000E-01  8.00000000E-01  1.50000000E+00
  1.50000000E+00  8.00000000E-01  8.00000000E-01  1.50000000E+00  1.50000000E+00
  8.00000000E-01  8.00000000E-01  1.50000000E+00  1.50000000E+00  8.00000000E-01
  8.00000000E-01  1.50000000E+00  1.50000000E+00  8.00000000E-01  8.00000000E-01
  1.50000000E+00  1.50000000E+00  8.00000000E-01  8.00000000E-01  1.50000000E+00
  1.50000000E+00  8.00000000E-01  8.00000000E-01  1.50000000E+00  1.50000000E+00
  8.00000000E-01  8.00000000E-01  1.50000000E+00  1.50000000E+00  8.00000000E-01
  8.00000000E-01  1.50000000E+00  1.50000000E+00  8.00000000E-01  8.00000000E-01
  1.50000000E+00  1.50000000E+00  8.00000000E-01  8.00000000E-01  1.50000000E+00
  1.50000000E+00  8.00000000E-01  8.00000000E-01  1.50000000E+00  1.50000000E+00
  8.00000000E-01  8.00000000E-01  1.50000000E+00  1.50000000E+00  8.00000000E-01
  8.00000000E-01  1.50000000E+00  1.50000000E+00  8.00000000E-01  8.00000000E-01
  1.50000000E+00  1.50000000E+00  8.00000000E-01  8.00000000E-01  1.50000000E+00
  1.50000000E+00  8.00000000E-01  8.00000000E-01  1.50000000E+00  1.50000000E+00
  8.00000000E-01  8.00000000E-01  1.50000000E+00  1.50000000E+00  8.00000000E-01
  8.00000000E-01  1.50000000E+00  1.50000000E+00  8.00000000E-01  8.00000000E-01
  1.50000000E+00  1.50000000E+00  8.00000000E-01  8.00000000E-01  1.50000000E+00
  1.50000000E+00  8.00000000E-01  8.00000000E-01  1.50000000E+00  1.50000000E+00
  8.00000000E-01  8.00000000E-01  1.50000000E+00  1.50000000E+00  8.00000000E-01
  8.00000000E-01  1.50000000E+00  1.50000000E+00  8.00000000E-01  8.00000000E-01
  1.50000000E+00  1.50000000E+00  8.00000000E-01  8.00000000E-01  1.50000000E+00
  1.50000000E+00  8.00000000E-01  8.00000000E-01  1.50000000E+00  1.50000000E+00
  8.00000000E-01  8.00000000E-01  1.50000000E+00  1.50000000E+00  8.00000000E-01
  8.00000000E-01  1.50000000E+00  1.50000000E+00  8.00000000E-01  8.00000000E-01
  1.50000000E+00  1.50000000E+00  8.00000000E-01  8.00000000E-01  1.50000000E+00
  1.50000000E+00  8.00000000E-01  8.00000000E-01  1.50000000E+00  1.50000000E+00
  8.00000000E-01  8.00000000E-01  1.50000000E+00  1.50000000E+00  8.00000000E-01
  8.00000000E-01  1.50000000E+00  1.50000000E+00  8.00000000E-01  8.00000000E-01
  1.50000000E+00  1.50000000E+00  8.00000000E-01  8.00000000E-01  1.50000000E+00
  1.50000000E+00  8.00000000E-01  8.00000000E-01  1.50000000E+00  1.50000000E+00
  8.00000000E-01  8.00000000E-01  1.50000000E+00  1.50000000E+00  8.00000000E-01
  8.00000000E-01  1.50000000E+00  1.50000000E+00  8.00000000E-01  8.00000000E-01
  1.50000000E+00  1.50000000E+00  8.00000000E-01  8.00000000E-01  1.50000000E+00
  1.50000000E+00  8.00000000E-01  8.00000000E-01  1.50000000E+00  1.50000000E+00
  8.00000000E-01  8.00000000E-01  1.50000000E+00  1.50000000E+00  8.00000000E-01
  8.00000000E-01  1.50000000E+00  1.50000000E+00  8.00000000E-01  8.00000000E-01
  1.50000000E+00  1.50000000E+00  8.00000000E-01  8.00000000E-01  1.50000000E+00
  1.50000000E+00  8.00000000E-01  8.00000000E-01  1.50000000E+00  1.50000000E+00
  8.00000000E-01  8.00000000E-01  1.50000000E+00  1.50000000E+00  8.00000000E-01
  8.00000000E-01  1.50000000E+00  1.50000000E+00  8.00000000E-01  8.00000000E-01
  1.50000000E+00  1.50000000E+00  8.00000000E-01  8.00000000E-01  1.50000000E+00
  1.50000000E+00  8.00000000E-01  8.00000000E-01  1.50000000E+00  1.50000000E+00
  8.00000000E-01  8.00000000E-01  1.50000000E+00  1.50000000E+00  8.00000000E-01
  8.00000000E-01  1.50000000E+00  1.50000000E+00  8.00000000E-01  8.00000000E-01
  1.50000000E+00  1.50000000E+00  8.00000000E-01  8.00000000E-01  1.50000000E+00
  1.50000000E+00  8.00000000E-01  8.00000000E-01  1.50000000E+00  1.50000000E+00
  8.00000000E-01  8.00000000E-01  1.50000000E+00  1.50000000E+00  8.00000000E-01
  8.00000000E-01  1.50000000E+00  1.50000000E+00  8.00000000E-01  8.00000000E-01
  1.50000000E+00  1.50000000E+00  8.00000000E-01  8.00000000E-01  1.50000000E+00
  1.50000000E+00  8.00000000E-01  8.00000000E-01  1.50000000E+00  1.50000000E+00
  8.00000000E-01  8.00000000E-01  1.50000000E+00  1.50000000E+00  8.00000000E-01
  8.00000000E-01  1.50000000E+00  1.50000000E+00  8.00000000E-01  8.00000000E-01
  1.50000000E+00  1.50000000E+00  8.00000000E-01  8.00000000E-01  1.50000000E+00
  1.50000000E+00  8.00000000E-01  8.00000000E-01  1.50000000E+00  1.50000000E+00
  8.00000000E-01  8.00000000E-01  1.50000000E+00  1.50000000E+00  8.00000000E-01
  8.00000000E-01  1.50000000E+00  1.50000000E+00  8.00000000E-01  8.00000000E-01
  1.50000000E+00  1.50000000E+00  8.00000000E-01  8.00000000E-01  1.50000000E+00
  1.50000000E+00  8.00000000E-01  8.00000000E-01  1.50000000E+00  1.50000000E+00
  8.00000000E-01  8.00000000E-01  1.50000000E+00  1.50000000E+00  8.00000000E-01
  8.00000000E-01  1.50000000E+00  1.50000000E+00  8.00000000E-01  8.00000000E-01
  1.50000000E+00  1.50000000E+00  8.00000000E-01  8.00000000E-01  1.50000000E+00
  1.50000000E+00  8.00000000E-01  8.00000000E-01  1.50000000E+00  1.50000000E+00
  8.00000000E-01  8.00000000E-01  1.50000000E+00  1.50000000E+00  8.00000000E-01
  8.00000000E-01  1.50000000E+00  1.50000000E+00  8.00000000E-01  8.00000000E-01
  1.50000000E+00  1.50000000E+00  8.00000000E-01  8.00000000E-01  1.50000000E+00
  1.50000000E+00  8.00000000E-01  8.00000000E-01  1.50000000E+00  1.50000000E+00
  8.00000000E-01  8.00000000E-01  1.50000000E+00  1.50000000E+00  8.00000000E-01
  8.00000000E-01  1.50000000E+00  1.50000000E+00  8.00000000E-01  8.00000000E-01
  1.50000000E+00  1.50000000E+00  8.00000000E-01  8.00000000E-01  1.50000000E+00
  1.50000000E+00  8.00000000E-01  8.00000000E-01  1.50000000E+00  1.50000000E+00
  8.00000000E-01  8.00000000E-01  1.50000000E+00  1.50000000E+00  8.00000000E-01
  8.00000000E-01  1.50000000E+00  1.50000000E+00  8.00000000E-01  8.00000000E-01
  1.50000000E+00  1.50000000E+00  8.00000000E-01  8.00000000E-01  1.50000000E+00
  1.50000000E+00  8.00000000E-01  8.00000000E-01  1.50000000E+00  1.50000000E+00
  8.00000000E-01  8.00000000E-01  1.50000000E+00  1.50000000E+00  8.00000000E-01
  8.00000000E-01  1.50000000E+00  1.50000000E+00  8.00000000E-01  8.00000000E-01
  1.50000000E+00  1.50000000E+00  8.00000000E-01  8.00000000E-01  1.50000000E+00
  1.50000000E+00  8.00000000E-01  8.00000000E-01  1.50000000E+00  1.50000000E+00
  8.00000000E-01  8.00000000E-01  1.50000000E+00  1.50000000E+00  8.00000000E-01
  8.00000000E-01  1.50000000E+00  1.50000000E+00  8.00000000E-01  8.00000000E-01
  1.50000000E+00  1.50000000E+00  8.00000000E-01  8.00000000E-01  1.50000000E+00
  1.50000000E+00  8.00000000E-01  8.00000000E-01  1.50000000E+00  1.50000000E+00
  8.00000000E-01  8.00000000E-01  1.50000000E+00  1.50000000E+00  8.00000000E-01
  8.00000000E-01  1.50000000E+00  1.50000000E+00  8.00000000E-01  8.00000000E-01
  1.50000000E+00  1.50000000E+00  8.00000000E-01  8.00000000E-01  1.50000000E+00
  1.50000000E+00  8.00000000E-01  8.00000000E-01  1.50000000E+00  1.50000000E+00
  8.00000000E-01  8.00000000E-01  1.50000000E+00  1.50000000E+00  8.00000000E-01
  8.00000000E-01  1.50000000E+00  1.50000000E+00  8.00000000E-01  8.00000000E-01
  1.50000000E+00  1.50000000E+00  8.00000000E-01  8.00000000E-01  1.50000000E+00
  1.50000000E+00  8.00000000E-01  8.00000000E-01  1.50000000E+00  1.50000000E+00
  8.00000000E-01  8.00000000E-01  1.50000000E+00  1.50000000E+00  8.00000000E-01
  8.00000000E-01  1.50000000E+00  1.50000000E+00  8.00000000E-01  8.00000000E-01
  1.50000000E+00  1.50000000E+00  8.00000000E-01  8.00000000E-01  1.50000000E+00
  1.50000000E+00  8.00000000E-01  8.00000000E-01  1.50000000E+00  1.50000000E+00
  8.00000000E-01  8.00000000E-01  1.50000000E+00  1.50000000E+00  8.00000000E-01
  8.00000000E-01  1.50000000E+00  1.50000000E+00  8.00000000E-01  8.00000000E-01
  1.50000000E+00  1.50000000E+00  8.00000000E-01  8.00000000E-01  1.50000000E+00
  1.50000000E+00  8.00000000E-01  8.00000000E-01  1.50000000E+00  1.50000000E+00
  8.00000000E-01  8.00000000E-01  1.50000000E+00  1.50000000E+00  8.00000000E-01
  8.00000000E-01  1.50000000E+00  1.50000000E+00  8.00000000E-01  8.00000000E-01
  1.50000000E+00  1.50000000E+00  8.00000000E-01  8.00000000E-01  1.50000000E+00
  1.50000000E+00  8.00000000E-01  8.00000000E-01  1.50000000E+00  1.50000000E+00
  8.00000000E-01  8.00000000E-01  1.50000000E+00  1.50000000E+00  8.00000000E-01
  8.00000000E-01  1.50000000E+00  1.50000000E+00  8.00000000E-01  8.00000000E-01
  1.50000000E+00  1.50000000E+00  8.00000000E-01  8.00000000E-01  1.50000000E+00
  1.50000000E+00  8.00000000E-01  8.00000000E-01  1.50000000E+00  1.50000000E+00
  8.00000000E-01  8.00000000E-01  1.50000000E+00  1.50000000E+00  8.00000000E-01
  8.00000000E-01  1.50000000E+00  1.50000000E+00  8.00000000E-01  8.00000000E-01
  1.50000000E+00  1.50000000E+00  8.00000000E-01  8.00000000E-01  1.50000000E+00
  1.50000000E+00  8.00000000E-01  8.00000000E-01  1.50000000E+00  1.50000000E+00
  8.00000000E-01  8.00000000E-01  1.50000000E+00  1.50000000E+00  8.00000000E-01
  8.00000000E-01  1.50000000E+00  1.50000000E+00  8.00000000E-01  8.00000000E-01
  1.50000000E+00  1.50000000E+00  8.00000000E-01  8.00000000E-01  1.50000000E+00
  1.50000000E+00  8.00000000E-01  8.00000000E-01  1.50000000E+00  1.50000000E+00
  8.00000000E-01  8.00000000E-01  1.50000000E+00  1.50000000E+00  8.00000000E-01
  8.00000000E-01  1.50000000E+00  1.50000000E+00  8.00000000E-01  8.00000000E-01
  1.50000000E+00  1.50000000E+00  8.00000000E-01  8.00000000E-01  1.50000000E+00
  1.50000000E+00  8.00000000E-01  8.00000000E-01  1.50000000E+00  1.50000000E+00
  8.00000000E-01  8.00000000E-01  1.50000000E+00  1.50000000E+00  8.00000000E-01
  8.00000000E-01  1.50000000E+00  1.50000000E+00  8.00000000E-01  8.00000000E-01
  1.50000000E+00  1.50000000E+00  8.00000000E-01  8.00000000E-01  1.50000000E+00
  1.50000000E+00  8.00000000E-01  8.00000000E-01  1.50000000E+00  1.50000000E+00
  8.00000000E-01  8.00000000E-01  1.50000000E+00  1.50000000E+00  8.00000000E-01
  8.00000000E-01  1.50000000E+00  1.50000000E+00  8.00000000E-01  8.00000000E-01
  1.50000000E+00  1.50000000E+00  8.00000000E-01  8.00000000E-01  1.50000000E+00
  1.50000000E+00  8.00000000E-01  8.00000000E-01  1.50000000E+00  1.50000000E+00
  8.00000000E-01  8.00000000E-01  1.50000000E+00  1.50000000E+00  8.00000000E-01
  8.00000000E-01  1.50000000E+00  1.50000000E+00  8.00000000E-01  8.00000000E-01
  1.50000000E+00  1.50000000E+00  8.00000000E-01  8.00000000E-01  1.50000000E+00
  1.50000000E+00  8.00000000E-01  8.00000000E-01  1.50000000E+00  1.50000000E+00
  8.00000000E-01  8.00000000E-01  1.50000000E+00  1.50000000E+00  8.00000000E-01
  8.00000000E-01  1.50000000E+00  1.50000000E+00  8.00000000E-01  8.00000000E-01
  1.50000000E+00  1.50000000E+00  8.00000000E-01  8.00000000E-01  1.50000000E+00
  1.50000000E+00  8.00000000E-01  8.00000000E-01  1.50000000E+00  1.50000000E+00
  8.00000000E-01  8.00000000E-01  1.50000000E+00  1.50000000E+00  8.00000000E-01
  8.00000000E-01  1.50000000E+00  1.50000000E+00  8.00000000E-01  8.00000000E-01
  1.50000000E+00  1.50000000E+00  8.00000000E-01  8.00000000E-01  1.50000000E+00
  1.50000000E+00  8.00000000E-01  8.00000000E-01  1.50000000E+00  1.50000000E+00
  8.00000000E-01  8.00000000E-01  1.50000000E+00  1.50000000E+00  8.00000000E-01
  8.00000000E-01  1.50000000E+00  1.50000000E+00  8.00000000E-01  8.00000000E-01
  1.50000000E+00  1.50000000E+00  8.00000000E-01  8.00000000E-01  1.50000000E+00
  1.50000000E+00  8.00000000E-01  8.00000000E-01  1.50000000E+00  1.50000000E+00
  8.00000000E-01  8.00000000E-01  1.50000000E+00  1.50000000E+00  8.00000000E-01
  8.00000000E-01  1.50000000E+00  1.50000000E+00  8.00000000E-01  8.00000000E-01
  1.50000000E+00  1.50000000E+00  8.00000000E-01  8.00000000E-01  1.50000000E+00
  1.50000000E+00  8.00000000E-01  8.00000000E-01  1.50000000E+00  1.50000000E+00
  8.00000000E-01  8.00000000E-01  1.50000000E+00  1.50000000E+00  8.00000000E-01
  8.00000000E-01  1.50000000E+00  1.50000000E+00  8.00000000E-01  8.00000000E-01
  1.50000000E+00  1.50000000E+00  8.00000000E-01  8.00000000E-01  1.50000000E+00
  1.50000000E+00  8.00000000E-01  8.00000000E-01  1.50000000E+00  1.50000000E+00
  8.00000000E-01  8.00000000E-01  1.50000000E+00  1.50000000E+00  8.00000000E-01
  8.00000000E-01  1.50000000E+00  1.50000000E+00  8.00000000E-01  8.00000000E-01
  1.50000000E+00  1.50000000E+00  8.00000000E-01  8.00000000E-01  1.50000000E+00
  1.50000000E+00  8.00000000E-01  8.00000000E-01  1.50000000E+00  1.50000000E+00
  8.00000000E-01  8.00000000E-01  1.50000000E+00  1.50000000E+00  8.00000000E-01
  8.00000000E-01  1.50000000E+00  1.50000000E+00  8.00000000E-01  8.00000000E-01
  1.50000000E+00  1.50000000E+00  8.00000000E-01  8.00000000E-01  1.50000000E+00
  1.50000000E+00  8.00000000E-01  8.00000000E-01  1.50000000E+00  1.50000000E+00
  8.00000000E-01  8.00000000E-01  1.50000000E+00  1.50000000E+00  8.00000000E-01
  8.00000000E-01  1.50000000E+00  1.50000000E+00  8.00000000E-01  8.00000000E-01
  1.50000000E+00  1.50000000E+00  8.00000000E-01  8.00000000E-01  1.50000000E+00
  1.50000000E+00  8.00000000E-01  8.00000000E-01  1.50000000E+00  1.50000000E+00
  8.00000000E-01  8.00000000E-01  1.50000000E+00  1.50000000E+00  8.00000000E-01
  8.00000000E-01  1.50000000E+00  1.50000000E+00  8.00000000E-01  8.00000000E-01
  1.50000000E+00  1.50000000E+00  8.00000000E-01  8.00000000E-01  1.50000000E+00
  1.50000000E+00  8.00000000E-01  8.00000000E-01  1.50000000E+00  1.50000000E+00
  8.00000000E-01  8.00000000E-01  1.50000000E+00  1.50000000E+00  8.00000000E-01
  8.00000000E-01  1.50000000E+00  1.50000000E+00  8.00000000E-01  8.00000000E-01
  1.50000000E+00  1.50000000E+00  8.00000000E-01  8.00000000E-01  1.50000000E+00
  1.50000000E+00  8.00000000E-01  8.00000000E-01  1.50000000E+00  1.50000000E+00
  8.00000000E-01  8.00000000E-01  1.50000000E+00  1.50000000E+00  8.00000000E-01
  8.00000000E-01  1.50000000E+00  1.50000000E+00  8.00000000E-01  8.00000000E-01
  1.50000000E+00  1.50000000E+00  8.00000000E-01  8.00000000E-01  1.50000000E+00
  1.50000000E+00  8.00000000E-01  8.00000000E-01  1.50000000E+00  1.50000000E+00
  8.00000000E-01  8.00000000E-01  1.50000000E+00  1.50000000E+00  8.00000000E-01
  8.00000000E-01  1.50000000E+00  1.50000000E+00  8.00000000E-01  8.00000000E-01
  1.50000000E+00  1.50000000E+00  8.00000000E-01  8.00000000E-01  1.50000000E+00
  1.50000000E+00  8.00000000E-01  8.00000000E-01  1.50000000E+00  1.50000000E+00
  8.00000000E-01  8.00000000E-01  1.50000000E+00  1.50000000E+00  8.00000000E-01
  8.00000000E-01  1.50000000E+00  1.50000000E+00  8.00000000E-01  8.00000000E-01
  1.50000000E+00  1.50000000E+00  8.00000000E-01  8.00000000E-01  1.50000000E+00
  1.50000000E+00  8.00000000E-01  8.00000000E-01  1.50000000E+00  1.50000000E+00
  8.00000000E-01  8.00000000E-01  1.50000000E+00  1.50000000E+00  8.00000000E-01
  8.00000000E-01  1.50000000E+00  1.50000000E+00  8.00000000E-01  8.00000000E-01
  1.50000000E+00  1.50000000E+00  8.00000000E-01  8.00000000E-01  1.50000000E+00
  1.50000000E+00  8.00000000E-01  8.00000000E-01  1.50000000E+00  1.50000000E+00
  8.00000000E-01  8.00000000E-01  1.50000000E+00  1.50000000E+00  8.00000000E-01
  8.00000000E-01  1.50000000E+00  1.50000000E+00  8.00000000E-01  8.00000000E-01
  1.50000000E+00  1.50000000E+00  8.00000000E-01  8.00000000E-01  1.50000000E+00
  1.50000000E+00  8.00000000E-01  8.00000000E-01  1.50000000E+00  1.50000000E+00
  8.00000000E-01  8.00000000E-01  1.50000000E+00  1.50000000E+00  8.00000000E-01
  8.00000000E-01  1.50000000E+00  1.50000000E+00  8.00000000E-01  8.00000000E-01
  1.50000000E+00  1.50000000E+00  8.00000000E-01  8.00000000E-01  1.50000000E+00
  1.50000000E+00  8.00000000E-01  8.00000000E-01  1.50000000E+00  1.50000000E+00
  8.00000000E-01  8.00000000E-01  1.50000000E+00  1.50000000E+00  8.00000000E-01
  8.00000000E-01  1.50000000E+00  1.50000000E+00  8.00000000E-01  8.00000000E-01
  1.50000000E+00  1.50000000E+00  8.00000000E-01  8.00000000E-01  1.50000000E+00
  1.50000000E+00  8.00000000E-01  8.00000000E-01  1.50000000E+00  1.50000000E+00
  8.00000000E-01  8.00000000E-01  1.50000000E+00  1.50000000E+00  8.00000000E-01
  8.00000000E-01  1.50000000E+00  1.50000000E+00  8.00000000E-01  8.00000000E-01
  1.50000000E+00  1.50000000E+00  8.00000000E-01  8.00000000E-01  1.50000000E+00
  1.50000000E+00  8.00000000E-01  8.00000000E-01  1.50000000E+00  1.50000000E+00
  8.00000000E-01  8.00000000E-01  1.50000000E+00  1.50000000E+00  8.00000000E-01
  8.00000000E-01  1.50000000E+00  1.50000000E+00  8.00000000E-01  8.00000000E-01
  1.50000000E+00  1.50000000E+00  8.00000000E-01  8.00000000E-01  1.50000000E+00
  1.50000000E+00  8.00000000E-01  8.00000000E-01  1.50000000E+00  1.50000000E+00
  8.00000000E-01  8.00000000E-01  1.50000000E+00  1.50000000E+00  8.00000000E-01
  8.00000000E-01  1.50000000E+00  1.50000000E+00  8.00000000E-01  8.00000000E-01
  1.50000000E+00  1.50000000E+00  8.00000000E-01  8.00000000E-01  1.50000000E+00
  1.50000000E+00  8.00000000E-01  8.00000000E-01  1.50000000E+00  1.50000000E+00
  8.00000000E-01  8.00000000E-01  1.50000000E+00  1.50000000E+00  8.00000000E-01
  8.00000000E-01  1.50000000E+00  1.50000000E+00  8.00000000E-01  8.00000000E-01
  1.50000000E+00  1.50000000E+00  8.00000000E-01  8.00000000E-01  1.50000000E+00
  1.50000000E+00  8.00000000E-01  8.00000000E-01  1.50000000E+00  1.50000000E+00
  8.00000000E-01  8.00000000E-01  1.50000000E+00  1.50000000E+00  8.00000000E-01
  8.00000000E-01  1.50000000E+00  1.50000000E+00  8.00000000E-01  8.00000000E-01
  1.50000000E+00  1.50000000E+00  8.00000000E-01  8.00000000E-01  1.50000000E+00
  1.50000000E+00  8.00000000E-01  8.00000000E-01  1.50000000E+00  1.50000000E+00
  8.00000000E-01  8.00000000E-01  1.50000000E+00  1.50000000E+00  8.00000000E-01
  8.00000000E-01  1.50000000E+00  1.50000000E+00  8.00000000E-01  8.00000000E-01
  1.50000000E+00  1.50000000E+00  8.00000000E-01  8.00000000E-01  1.50000000E+00
  1.50000000E+00  8.00000000E-01  8.00000000E-01  1.50000000E+00  1.50000000E+00
  8.00000000E-01  8.00000000E-01  1.50000000E+00  1.50000000E+00  8.00000000E-01
  8.00000000E-01  1.50000000E+00  1.50000000E+00  8.00000000E-01  8.00000000E-01
  1.50000000E+00  1.50000000E+00  8.00000000E-01  8.00000000E-01  1.50000000E+00
  1.50000000E+00  8.00000000E-01  8.00000000E-01  1.50000000E+00  1.50000000E+00
  8.00000000E-01  8.00000000E-01  1.50000000E+00  1.50000000E+00  8.00000000E-01
  8.00000000E-01  1.50000000E+00  1.50000000E+00  8.00000000E-01  8.00000000E-01
  1.50000000E+00  1.50000000E+00  8.00000000E-01  8.00000000E-01  1.50000000E+00
  1.50000000E+00  8.00000000E-01  8.00000000E-01  1.50000000E+00  1.50000000E+00
  8.00000000E-01  8.00000000E-01  1.50000000E+00  1.50000000E+00  8.00000000E-01
  8.00000000E-01  1.50000000E+00  1.50000000E+00  8.00000000E-01  8.00000000E-01
  1.50000000E+00  1.50000000E+00  8.00000000E-01  8.00000000E-01  1.50000000E+00
  1.50000000E+00  8.00000000E-01  8.00000000E-01  1.50000000E+00  1.50000000E+00
  8.00000000E-01  8.00000000E-01  1.50000000E+00  1.50000000E+00  8.00000000E-01
  8.00000000E-01  1.50000000E+00  1.50000000E+00  8.00000000E-01  8.00000000E-01
  1.50000000E+00  1.50000000E+00  8.00000000E-01  8.00000000E-01  1.50000000E+00
  1.50000000E+00  8.00000000E-01  8.00000000E-01  1.50000000E+00  1.50000000E+00
  8.00000000E-01  8.00000000E-01  1.50000000E+00  1.50000000E+00  8.00000000E-01
  8.00000000E-01  1.50000000E+00  1.50000000E+00  8.00000000E-01  8.00000000E-01
  1.50000000E+00  1.50000000E+00  8.00000000E-01  8.00000000E-01  1.50000000E+00
  1.50000000E+00  8.00000000E-01  8.00000000E-01  1.50000000E+00  1.50000000E+00
  8.00000000E-01  8.00000000E-01  1.50000000E+00  1.50000000E+00  8.00000000E-01
  8.00000000E-01  1.50000000E+00  1.50000000E+00  8.00000000E-01  8.00000000E-01
  1.50000000E+00  1.50000000E+00  8.00000000E-01  8.00000000E-01  1.50000000E+00
  1.50000000E+00  8.00000000E-01  8.00000000E-01  1.50000000E+00  1.50000000E+00
  8.00000000E-01  8.00000000E-01  1.50000000E+00  1.50000000E+00  8.00000000E-01
  8.00000000E-01  1.50000000E+00  1.50000000E+00  8.00000000E-01  8.00000000E-01
  1.50000000E+00  1.50000000E+00  8.00000000E-01  8.00000000E-01  1.50000000E+00
  1.50000000E+00  8.00000000E-01  8.00000000E-01  1.50000000E+00  1.50000000E+00
  8.00000000E-01  8.00000000E-01  1.50000000E+00  1.50000000E+00  8.00000000E-01
  8.00000000E-01  1.50000000E+00  1.50000000E+00  8.00000000E-01  8.00000000E-01
  1.50000000E+00  1.50000000E+00  8.00000000E-01  8.00000000E-01  1.50000000E+00
  1.50000000E+00  8.00000000E-01  8.00000000E-01  1.50000000E+00  1.50000000E+00
  8.00000000E-01  8.00000000E-01  1.50000000E+00  1.50000000E+00  8.00000000E-01
  8.00000000E-01  1.50000000E+00  1.50000000E+00  8.00000000E-01  8.00000000E-01
  1.50000000E+00  1.50000000E+00  8.00000000E-01  8.00000000E-01  1.50000000E+00
  1.50000000E+00  8.00000000E-01  8.00000000E-01  1.50000000E+00  1.50000000E+00
  8.00000000E-01  8.00000000E-01  1.50000000E+00  1.50000000E+00  8.00000000E-01
  8.00000000E-01  1.50000000E+00  1.50000000E+00  8.00000000E-01  8.00000000E-01
  1.50000000E+00  1.50000000E+00  8.00000000E-01  8.00000000E-01  1.50000000E+00
  1.50000000E+00  8.00000000E-01  8.00000000E-01  1.50000000E+00  1.50000000E+00
  8.00000000E-01  8.00000000E-01  1.50000000E+00  1.50000000E+00  8.00000000E-01
  8.00000000E-01  1.50000000E+00  1.50000000E+00  8.00000000E-01  8.00000000E-01
  1.50000000E+00  1.50000000E+00  8.00000000E-01  8.00000000E-01  1.50000000E+00
  1.50000000E+00  8.00000000E-01  8.00000000E-01  1.50000000E+00  1.50000000E+00
  8.00000000E-01  8.00000000E-01  1.50000000E+00  1.50000000E+00  8.00000000E-01
  8.00000000E-01  1.50000000E+00  1.50000000E+00  8.00000000E-01  8.00000000E-01
  1.50000000E+00  1.50000000E+00  8.00000000E-01  8.00000000E-01  1.50000000E+00
  1.50000000E+00  8.00000000E-01  8.00000000E-01  1.50000000E+00  1.50000000E+00
  8.00000000E-01  8.00000000E-01  1.50000000E+00  1.50000000E+00  8.00000000E-01
  8.00000000E-01  1.50000000E+00  1.50000000E+00  8.00000000E-01  8.00000000E-01
  1.50000000E+00  1.50000000E+00  8.00000000E-01  8.00000000E-01  1.50000000E+00
  1.50000000E+00  8.00000000E-01  8.00000000E-01  1.50000000E+00  1.50000000E+00
  8.00000000E-01  8.00000000E-01  1.50000000E+00  1.50000000E+00  8.00000000E-01
  8.00000000E-01  1.50000000E+00  1.50000000E+00  8.00000000E-01  8.00000000E-01
  1.50000000E+00  1.50000000E+00  8.00000000E-01  8.00000000E-01  1.50000000E+00
  1.50000000E+00  8.00000000E-01  8.00000000E-01  1.50000000E+00  1.50000000E+00
  8.00000000E-01  8.00000000E-01  1.50000000E+00  1.50000000E+00  8.00000000E-01
  8.00000000E-01  1.50000000E+00  1.50000000E+00  8.00000000E-01  8.00000000E-01
  1.50000000E+00  1.50000000E+00  8.00000000E-01  8.00000000E-01  1.50000000E+00
  1.50000000E+00  8.00000000E-01  8.00000000E-01  1.50000000E+00  1.50000000E+00
  8.00000000E-01  8.00000000E-01  1.50000000E+00  1.50000000E+00  8.00000000E-01
  8.00000000E-01  1.50000000E+00  1.50000000E+00  8.00000000E-01  8.00000000E-01
  1.50000000E+00  1.50000000E+00  8.00000000E-01  8.00000000E-01  1.50000000E+00
  1.50000000E+00  8.00000000E-01  8.00000000E-01  1.50000000E+00  1.50000000E+00
  8.00000000E-01  8.00000000E-01  1.50000000E+00  1.50000000E+00  8.00000000E-01
  8.00000000E-01  1.50000000E+00  1.50000000E+00  8.00000000E-01  8.00000000E-01
  1.50000000E+00  1.50000000E+00  8.00000000E-01  8.00000000E-01  1.50000000E+00
  1.50000000E+00  8.00000000E-01  8.00000000E-01  1.50000000E+00  1.50000000E+00
  8.00000000E-01  8.00000000E-01  1.50000000E+00  1.50000000E+00  8.00000000E-01
  8.00000000E-01  1.50000000E+00  1.50000000E+00  8.00000000E-01  8.00000000E-01
  1.50000000E+00  1.50000000E+00  8.00000000E-01  8.00000000E-01  1.50000000E+00
  1.50000000E+00  8.00000000E-01  8.00000000E-01  1.50000000E+00  1.50000000E+00
  8.00000000E-01  8.00000000E-01  1.50000000E+00  1.50000000E+00  8.00000000E-01
  8.00000000E-01  1.50000000E+00  1.50000000E+00  8.00000000E-01  8.00000000E-01
  1.50000000E+00  1.50000000E+00  8.00000000E-01  8.00000000E-01  1.50000000E+00
  1.50000000E+00  8.00000000E-01  8.00000000E-01  1.50000000E+00  1.50000000E+00
  8.00000000E-01  8.00000000E-01  1.50000000E+00  1.50000000E+00  8.00000000E-01
  8.00000000E-01  1.50000000E+00  1.50000000E+00  8.00000000E-01  8.00000000E-01
  1.50000000E+00  1.50000000E+00  8.00000000E-01  8.00000000E-01  1.50000000E+00
  1.50000000E+00  8.00000000E-01  8.00000000E-01  1.50000000E+00  1.50000000E+00
  8.00000000E-01  8.00000000E-01  1.50000000E+00  1.50000000E+00  8.00000000E-01
  8.00000000E-01  1.50000000E+00  1.50000000E+00  8.00000000E-01  8.00000000E-01
  1.50000000E+00  1.50000000E+00  8.00000000E-01  8.00000000E-01  1.50000000E+00
  1.50000000E+00  8.00000000E-01  8.00000000E-01  1.50000000E+00  1.50000000E+00
  8.00000000E-01  8.00000000E-01  1.50000000E+00  1.50000000E+00  8.00000000E-01
  8.00000000E-01  1.50000000E+00  1.50000000E+00  8.00000000E-01  8.00000000E-01
  1.50000000E+00  1.50000000E+00  8.00000000E-01  8.00000000E-01  1.50000000E+00
  1.50000000E+00  8.00000000E-01  8.00000000E-01  1.50000000E+00  1.50000000E+00
  8.00000000E-01  8.00000000E-01  1.50000000E+00  1.50000000E+00  8.00000000E-01
  8.00000000E-01  1.50000000E+00  1.50000000E+00  8.00000000E-01  8.00000000E-01
  1.50000000E+00  1.50000000E+00  8.00000000E-01  8.00000000E-01  1.50000000E+00
  1.50000000E+00  8.00000000E-01  8.00000000E-01  1.50000000E+00  1.50000000E+00
  8.00000000E-01  8.00000000E-01  1.50000000E+00  1.50000000E+00  8.00000000E-01
  8.00000000E-01  1.50000000E+00  1.50000000E+00  8.00000000E-01  8.00000000E-01
  1.50000000E+00  1.50000000E+00  8.00000000E-01  8.00000000E-01  1.50000000E+00
  1.50000000E+00  8.00000000E-01  8.00000000E-01  1.50000000E+00  1.50000000E+00
  8.00000000E-01  8.00000000E-01  1.50000000E+00  1.50000000E+00  8.00000000E-01
  8.00000000E-01  1.50000000E+00  1.50000000E+00  8.00000000E-01  8.00000000E-01
  1.50000000E+00  1.50000000E+00  8.00000000E-01  8.00000000E-01  1.50000000E+00
  1.50000000E+00  8.00000000E-01  8.00000000E-01  1.50000000E+00  1.50000000E+00
  8.00000000E-01  8.00000000E-01  1.50000000E+00  1.50000000E+00  8.00000000E-01
  8.00000000E-01  1.50000000E+00  1.50000000E+00  8.00000000E-01  8.00000000E-01
  1.50000000E+00  1.50000000E+00  8.00000000E-01  8.00000000E-01  1.50000000E+00
  1.50000000E+00  8.00000000E-01  8.00000000E-01  1.50000000E+00  1.50000000E+00
  8.00000000E-01  8.00000000E-01  1.50000000E+00  1.50000000E+00  8.00000000E-01
  8.00000000E-01  1.50000000E+00  1.50000000E+00  8.00000000E-01  8.00000000E-01
  1.50000000E+00  1.50000000E+00  8.00000000E-01  8.00000000E-01  1.50000000E+00
  1.50000000E+00  8.00000000E-01  8.00000000E-01  1.50000000E+00  1.50000000E+00
  8.00000000E-01  8.00000000E-01  1.50000000E+00  1.50000000E+00  8.00000000E-01
  8.00000000E-01  1.50000000E+00  1.50000000E+00  8.00000000E-01  8.00000000E-01
  1.50000000E+00  1.50000000E+00  8.00000000E-01  8.00000000E-01  1.50000000E+00
  1.50000000E+00  8.00000000E-01  8.00000000E-01  1.50000000E+00  1.50000000E+00
  8.00000000E-01  8.00000000E-01  1.50000000E+00  1.50000000E+00  8.00000000E-01
  8.00000000E-01  1.50000000E+00  1.50000000E+00  8.00000000E-01  8.00000000E-01
  1.50000000E+00  1.50000000E+00  8.00000000E-01  8.00000000E-01  1.50000000E+00
  1.50000000E+00  8.00000000E-01  8.00000000E-01  1.50000000E+00  1.50000000E+00
  8.00000000E-01  8.00000000E-01  1.50000000E+00  1.50000000E+00  8.00000000E-01
  8.00000000E-01  1.50000000E+00  1.50000000E+00  8.00000000E-01  8.00000000E-01
  1.50000000E+00  1.50000000E+00  8.00000000E-01  8.00000000E-01  1.50000000E+00
  1.50000000E+00  8.00000000E-01  8.00000000E-01  1.50000000E+00  1.50000000E+00
  8.00000000E-01  8.00000000E-01  1.50000000E+00  1.50000000E+00  8.00000000E-01
  8.00000000E-01  1.50000000E+00  1.50000000E+00  8.00000000E-01  8.00000000E-01
  1.50000000E+00  1.50000000E+00  8.00000000E-01  8.00000000E-01  1.50000000E+00
  1.50000000E+00  8.00000000E-01  8.00000000E-01  1.50000000E+00  1.50000000E+00
  8.00000000E-01  8.00000000E-01  1.50000000E+00  1.50000000E+00  8.00000000E-01
  8.00000000E-01  1.50000000E+00  1.50000000E+00  8.00000000E-01  8.00000000E-01
  1.50000000E+00  1.50000000E+00  8.00000000E-01  8.00000000E-01  1.50000000E+00
  1.50000000E+00  8.00000000E-01  8.00000000E-01  1.50000000E+00  1.50000000E+00
  8.00000000E-01  8.00000000E-01  1.50000000E+00  1.50000000E+00  8.00000000E-01
  8.00000000E-01  1.50000000E+00  1.50000000E+00  8.00000000E-01  8.00000000E-01
  1.50000000E+00  1.50000000E+00  8.00000000E-01  8.00000000E-01  1.50000000E+00
  1.50000000E+00  8.00000000E-01  8.00000000E-01  1.50000000E+00  1.50000000E+00
  8.00000000E-01  8.00000000E-01  1.50000000E+00  1.50000000E+00  8.00000000E-01
  8.00000000E-01  1.50000000E+00  1.50000000E+00  8.00000000E-01  8.00000000E-01
  1.50000000E+00  1.50000000E+00  8.00000000E-01  8.00000000E-01  1.50000000E+00
  1.50000000E+00  8.00000000E-01  8.00000000E-01  1.50000000E+00  1.50000000E+00
  8.00000000E-01  8.00000000E-01  1.50000000E+00  1.50000000E+00  8.00000000E-01
  8.00000000E-01  1.50000000E+00  1.50000000E+00  8.00000000E-01  8.00000000E-01
  1.50000000E+00  1.50000000E+00  8.00000000E-01  8.00000000E-01  1.50000000E+00
  1.50000000E+00  8.00000000E-01  8.00000000E-01  1.50000000E+00  1.50000000E+00
  8.00000000E-01  8.00000000E-01  1.50000000E+00  1.50000000E+00  8.00000000E-01
  8.00000000E-01  1.50000000E+00  1.50000000E+00  8.00000000E-01  8.00000000E-01
  1.50000000E+00  1.50000000E+00  8.00000000E-01  8.00000000E-01  1.50000000E+00
  1.50000000E+00  8.00000000E-01  8.00000000E-01  1.50000000E+00  1.50000000E+00
  8.00000000E-01  8.00000000E-01  1.50000000E+00  1.50000000E+00  8.00000000E-01
  8.00000000E-01  1.50000000E+00  1.50000000E+00  8.00000000E-01  8.00000000E-01
  1.50000000E+00  1.50000000E+00  8.00000000E-01  8.00000000E-01  1.50000000E+00
  1.50000000E+00  8.00000000E-01  8.00000000E-01  1.50000000E+00  1.50000000E+00
  8.00000000E-01  8.00000000E-01  1.50000000E+00  1.50000000E+00  8.00000000E-01
  8.00000000E-01  1.50000000E+00  1.50000000E+00  8.00000000E-01  8.00000000E-01
  1.50000000E+00  1.50000000E+00  8.00000000E-01  8.00000000E-01  1.50000000E+00
  1.50000000E+00  8.00000000E-01  8.00000000E-01  1.50000000E+00  1.50000000E+00
  8.00000000E-01  8.00000000E-01  1.50000000E+00  1.50000000E+00  8.00000000E-01
  8.00000000E-01  1.50000000E+00  1.50000000E+00  8.00000000E-01  8.00000000E-01
  1.50000000E+00  1.50000000E+00  8.00000000E-01  8.00000000E-01  1.50000000E+00
  1.50000000E+00  8.00000000E-01  8.00000000E-01  1.50000000E+00  1.50000000E+00
  8.00000000E-01  8.00000000E-01  1.50000000E+00  1.50000000E+00  8.00000000E-01
  8.00000000E-01  1.50000000E+00  1.50000000E+00  8.00000000E-01  8.00000000E-01
  1.50000000E+00  1.50000000E+00  8.00000000E-01  8.00000000E-01  1.50000000E+00
  1.50000000E+00  8.00000000E-01  8.00000000E-01  1.50000000E+00  1.50000000E+00
  8.00000000E-01  8.00000000E-01  1.50000000E+00  1.50000000E+00  8.00000000E-01
  8.00000000E-01  1.50000000E+00  1.50000000E+00  8.00000000E-01  8.00000000E-01
  1.50000000E+00  1.50000000E+00  8.00000000E-01  8.00000000E-01  1.50000000E+00
  1.50000000E+00  8.00000000E-01  8.00000000E-01  1.50000000E+00  1.50000000E+00
  8.00000000E-01  8.00000000E-01  1.50000000E+00  1.50000000E+00  8.00000000E-01
  8.00000000E-01  1.50000000E+00  1.50000000E+00  8.00000000E-01  8.00000000E-01
  1.50000000E+00  1.50000000E+00  8.00000000E-01  8.00000000E-01  1.50000000E+00
  1.50000000E+00  8.00000000E-01  8.00000000E-01  1.50000000E+00  1.50000000E+00
  8.00000000E-01  8.00000000E-01  1.50000000E+00  1.50000000E+00  8.00000000E-01
  8.00000000E-01  1.50000000E+00  1.50000000E+00  8.00000000E-01  8.00000000E-01
  1.50000000E+00  1.50000000E+00  8.00000000E-01  8.00000000E-01  1.50000000E+00
  1.50000000E+00  8.00000000E-01  8.00000000E-01  1.50000000E+00  1.50000000E+00
  8.00000000E-01  8.00000000E-01  1.50000000E+00  1.50000000E+00  8.00000000E-01
  8.00000000E-01  1.50000000E+00  1.50000000E+00  8.00000000E-01  8.00000000E-01
  1.50000000E+00  1.50000000E+00  8.00000000E-01  8.00000000E-01  1.50000000E+00
  1.50000000E+00  8.00000000E-01  8.00000000E-01  1.50000000E+00  1.50000000E+00
  8.00000000E-01  8.00000000E-01  1.50000000E+00  1.50000000E+00  8.00000000E-01
  8.00000000E-01  1.50000000E+00  1.50000000E+00  8.00000000E-01  8.00000000E-01
  1.50000000E+00  1.50000000E+00  8.00000000E-01  8.00000000E-01  1.50000000E+00
  1.50000000E+00  8.00000000E-01  8.00000000E-01  1.50000000E+00  1.50000000E+00
  8.00000000E-01  8.00000000E-01  1.50000000E+00  1.50000000E+00  8.00000000E-01
  8.00000000E-01  1.50000000E+00  1.50000000E+00  8.00000000E-01  8.00000000E-01
  1.50000000E+00  1.50000000E+00  8.00000000E-01  8.00000000E-01  1.50000000E+00
  1.50000000E+00  8.00000000E-01  8.00000000E-01  1.50000000E+00  1.50000000E+00
  8.00000000E-01  8.00000000E-01  1.50000000E+00  1.50000000E+00  8.00000000E-01
  8.00000000E-01  1.50000000E+00  1.50000000E+00  8.00000000E-01  8.00000000E-01
  1.50000000E+00  1.50000000E+00  8.00000000E-01  8.00000000E-01  1.50000000E+00
  1.50000000E+00  8.00000000E-01  8.00000000E-01  1.50000000E+00  1.50000000E+00
  8.00000000E-01  8.00000000E-01  1.50000000E+00  1.50000000E+00  8.00000000E-01
  8.00000000E-01  1.50000000E+00  1.50000000E+00  8.00000000E-01  8.00000000E-01
  1.50000000E+00  1.50000000E+00  8.00000000E-01  8.00000000E-01  1.50000000E+00
  1.50000000E+00  8.00000000E-01  8.00000000E-01  1.50000000E+00  1.50000000E+00
  8.00000000E-01  8.00000000E-01  1.50000000E+00  1.50000000E+00  8.00000000E-01
  8.00000000E-01  1.50000000E+00  1.50000000E+00  8.00000000E-01  8.00000000E-01
  1.50000000E+00  1.50000000E+00  8.00000000E-01  8.00000000E-01  1.50000000E+00
  1.50000000E+00  8.00000000E-01  8.00000000E-01  1.50000000E+00  1.50000000E+00
  8.00000000E-01  8.00000000E-01  1.50000000E+00  1.50000000E+00  8.00000000E-01
  8.00000000E-01  1.50000000E+00  1.50000000E+00  8.00000000E-01  8.00000000E-01
  1.50000000E+00  1.50000000E+00  8.00000000E-01  8.00000000E-01  1.50000000E+00
  1.50000000E+00  8.00000000E-01  8.00000000E-01  1.50000000E+00  1.50000000E+00
  8.00000000E-01  8.00000000E-01  1.50000000E+00  1.50000000E+00  8.00000000E-01
  8.00000000E-01  1.50000000E+00  1.50000000E+00  8.00000000E-01  8.00000000E-01
  1.50000000E+00  1.50000000E+00  8.00000000E-01  8.00000000E-01  1.50000000E+00
  1.50000000E+00  8.00000000E-01  8.00000000E-01  1.50000000E+00  1.50000000E+00
  8.00000000E-01  8.00000000E-01  1.50000000E+00  1.50000000E+00  8.00000000E-01
  8.00000000E-01  1.50000000E+00  1.50000000E+00  8.00000000E-01  8.00000000E-01
  1.50000000E+00  1.50000000E+00  8.00000000E-01  8.00000000E-01  1.50000000E+00
  1.50000000E+00  8.00000000E-01  8.00000000E-01  1.50000000E+00  1.50000000E+00
  8.00000000E-01  8.00000000E-01  1.50000000E+00  1.50000000E+00  8.00000000E-01
  8.00000000E-01  1.50000000E+00  1.50000000E+00  8.00000000E-01  8.00000000E-01
  1.50000000E+00  1.50000000E+00  8.00000000E-01  8.00000000E-01  1.50000000E+00
  1.50000000E+00  8.00000000E-01  8.00000000E-01  1.50000000E+00  1.50000000E+00
  8.00000000E-01  8.00000000E-01  1.50000000E+00  1.50000000E+00  8.00000000E-01
  8.00000000E-01  1.50000000E+00  1.50000000E+00  8.00000000E-01  8.00000000E-01
  1.50000000E+00  1.50000000E+00  8.00000000E-01  8.00000000E-01  1.50000000E+00
  1.50000000E+00  8.00000000E-01  8.00000000E-01  1.50000000E+00  1.50000000E+00
  8.00000000E-01  8.00000000E-01  1.50000000E+00  1.50000000E+00  8.00000000E-01
  8.00000000E-01  1.50000000E+00  1.50000000E+00  8.00000000E-01  8.00000000E-01
  1.50000000E+00  1.50000000E+00  8.00000000E-01  8.00000000E-01  1.50000000E+00
  1.50000000E+00  8.00000000E-01  8.00000000E-01  1.50000000E+00  1.50000000E+00
  8.00000000E-01  8.00000000E-01  1.50000000E+00  1.50000000E+00  8.00000000E-01
  8.00000000E-01  1.50000000E+00  1.50000000E+00  8.00000000E-01  8.00000000E-01
  1.50000000E+00  1.50000000E+00  8.00000000E-01  8.00000000E-01  1.50000000E+00
  1.50000000E+00  8.00000000E-01  8.00000000E-01  1.50000000E+00  1.50000000E+00
  8.00000000E-01  8.00000000E-01  1.50000000E+00  1.50000000E+00  8.00000000E-01
  8.00000000E-01  1.50000000E+00  1.50000000E+00  8.00000000E-01  8.00000000E-01
  1.50000000E+00  1.50000000E+00  8.00000000E-01  8.00000000E-01  1.50000000E+00
  1.50000000E+00  8.00000000E-01  8.00000000E-01  1.50000000E+00  1.50000000E+00
  8.00000000E-01  8.00000000E-01  1.50000000E+00  1.50000000E+00  8.00000000E-01
  8.00000000E-01  1.50000000E+00  1.50000000E+00  8.00000000E-01  8.00000000E-01
  1.50000000E+00  1.50000000E+00  8.00000000E-01  8.00000000E-01  1.50000000E+00
  1.50000000E+00  8.00000000E-01  8.00000000E-01  1.50000000E+00  1.50000000E+00
  8.00000000E-01  8.00000000E-01  1.50000000E+00  1.50000000E+00  8.00000000E-01
  8.00000000E-01  1.50000000E+00  1.50000000E+00  8.00000000E-01  8.00000000E-01
  1.50000000E+00  1.50000000E+00  8.00000000E-01  8.00000000E-01  1.50000000E+00
  1.50000000E+00  8.00000000E-01  8.00000000E-01  1.50000000E+00  1.50000000E+00
  8.00000000E-01  8.00000000E-01  1.50000000E+00  1.50000000E+00  8.00000000E-01
  8.00000000E-01  1.50000000E+00  1.50000000E+00  8.00000000E-01  8.00000000E-01
  1.50000000E+00  1.50000000E+00  8.00000000E-01  8.00000000E-01  1.50000000E+00
  1.50000000E+00  8.00000000E-01  8.00000000E-01  1.50000000E+00  1.50000000E+00
  8.00000000E-01  8.00000000E-01  1.50000000E+00  1.50000000E+00  8.00000000E-01
  8.00000000E-01  1.50000000E+00  1.50000000E+00  8.00000000E-01  8.00000000E-01
  1.50000000E+00  1.50000000E+00  8.00000000E-01  8.00000000E-01  1.50000000E+00
  1.50000000E+00  8.00000000E-01  8.00000000E-01  1.50000000E+00  1.50000000E+00
  8.00000000E-01  8.00000000E-01  1.50000000E+00  1.50000000E+00  8.00000000E-01
  8.00000000E-01  1.50000000E+00  1.50000000E+00  8.00000000E-01  8.00000000E-01
  1.50000000E+00  1.50000000E+00  8.00000000E-01  8.00000000E-01  1.50000000E+00
  1.50000000E+00  8.00000000E-01  8.00000000E-01  1.50000000E+00  1.50000000E+00
  8.00000000E-01  8.00000000E-01  1.50000000E+00  1.50000000E+00  8.00000000E-01
  8.00000000E-01  1.50000000E+00  1.50000000E+00  8.00000000E-01  8.00000000E-01
  1.50000000E+00  1.50000000E+00  8.00000000E-01  8.00000000E-01  1.50000000E+00
  1.50000000E+00  8.00000000E-01  8.00000000E-01  1.50000000E+00  1.50000000E+00
  8.00000000E-01  8.00000000E-01  1.50000000E+00  1.50000000E+00  8.00000000E-01
  8.00000000E-01  1.50000000E+00  1.50000000E+00  8.00000000E-01  8.00000000E-01
  1.50000000E+00  1.50000000E+00  8.00000000E-01  8.00000000E-01  1.50000000E+00
  1.50000000E+00  8.00000000E-01  8.00000000E-01  1.50000000E+00  1.50000000E+00
  8.00000000E-01  8.00000000E-01  1.50000000E+00  1.50000000E+00  8.00000000E-01
  8.00000000E-01  1.50000000E+00  1.50000000E+00  8.00000000E-01  8.00000000E-01
  1.50000000E+00  1.50000000E+00  8.00000000E-01  8.00000000E-01  1.50000000E+00
  1.50000000E+00  8.00000000E-01  8.00000000E-01  1.50000000E+00  1.50000000E+00
  8.00000000E-01  8.00000000E-01  1.50000000E+00  1.50000000E+00  8.00000000E-01
  8.00000000E-01  1.50000000E+00  1.50000000E+00  8.00000000E-01  8.00000000E-01
  1.50000000E+00  1.50000000E+00  8.00000000E-01  8.00000000E-01  1.50000000E+00
  1.50000000E+00  8.00000000E-01  8.00000000E-01  1.50000000E+00  1.50000000E+00
  8.00000000E-01  8.00000000E-01  1.50000000E+00  1.50000000E+00  8.00000000E-01
  8.00000000E-01  1.50000000E+00  1.50000000E+00  8.00000000E-01  8.00000000E-01
  1.50000000E+00  1.50000000E+00  8.00000000E-01  8.00000000E-01  1.50000000E+00
  1.50000000E+00  8.00000000E-01  8.00000000E-01  1.50000000E+00  1.50000000E+00
  8.00000000E-01  8.00000000E-01  1.50000000E+00  1.50000000E+00  8.00000000E-01
  8.00000000E-01  1.50000000E+00  1.50000000E+00  8.00000000E-01  8.00000000E-01
  1.50000000E+00  1.50000000E+00  8.00000000E-01  8.00000000E-01  1.50000000E+00
  1.50000000E+00  8.00000000E-01  8.00000000E-01  1.50000000E+00  1.50000000E+00
  8.00000000E-01  8.00000000E-01  1.50000000E+00  1.50000000E+00  8.00000000E-01
  8.00000000E-01  1.50000000E+00  1.50000000E+00  8.00000000E-01  8.00000000E-01
  1.50000000E+00  1.50000000E+00  8.00000000E-01  8.00000000E-01  1.50000000E+00
  1.50000000E+00  8.00000000E-01  8.00000000E-01  1.50000000E+00  1.50000000E+00
  8.00000000E-01  8.00000000E-01  1.50000000E+00  1.50000000E+00  8.00000000E-01
  8.00000000E-01  1.50000000E+00  1.50000000E+00  8.00000000E-01  8.00000000E-01
  1.50000000E+00  1.50000000E+00  8.00000000E-01  8.00000000E-01  1.50000000E+00
  1.50000000E+00  8.00000000E-01  8.00000000E-01  1.50000000E+00  1.50000000E+00
  8.00000000E-01  8.00000000E-01  1.50000000E+00  1.50000000E+00  8.00000000E-01
  8.00000000E-01  1.50000000E+00  1.50000000E+00  8.00000000E-01  8.00000000E-01
  1.50000000E+00  1.50000000E+00  8.00000000E-01  8.00000000E-01  1.50000000E+00
  1.50000000E+00  8.00000000E-01  8.00000000E-01  1.50000000E+00  1.50000000E+00
  8.00000000E-01  8.00000000E-01  1.50000000E+00  1.50000000E+00  8.00000000E-01
  8.00000000E-01  1.50000000E+00  1.50000000E+00  8.00000000E-01  8.00000000E-01
  1.50000000E+00  1.50000000E+00  8.00000000E-01  8.00000000E-01  1.50000000E+00
  1.50000000E+00  8.00000000E-01  8.00000000E-01  1.50000000E+00  1.50000000E+00
  8.00000000E-01  8.00000000E-01  1.50000000E+00  1.50000000E+00  8.00000000E-01
  8.00000000E-01  1.50000000E+00  1.50000000E+00  8.00000000E-01  8.00000000E-01
  1.50000000E+00  1.50000000E+00  8.00000000E-01  8.00000000E-01  1.50000000E+00
  1.50000000E+00  8.00000000E-01  8.00000000E-01  1.50000000E+00  1.50000000E+00
  8.00000000E-01  8.00000000E-01  1.50000000E+00  1.50000000E+00  8.00000000E-01
  8.00000000E-01  1.50000000E+00  1.50000000E+00  8.00000000E-01  8.00000000E-01
  1.50000000E+00  1.50000000E+00  8.00000000E-01  8.00000000E-01  1.50000000E+00
  1.50000000E+00  8.00000000E-01  8.00000000E-01  1.50000000E+00  1.50000000E+00
  8.00000000E-01  8.00000000E-01  1.50000000E+00  1.50000000E+00  8.00000000E-01
  8.00000000E-01  1.50000000E+00  1.50000000E+00  8.00000000E-01  8.00000000E-01
  1.50000000E+00  1.50000000E+00  8.00000000E-01  8.00000000E-01  1.50000000E+00
  1.50000000E+00  8.00000000E-01  8.00000000E-01  1.50000000E+00  1.50000000E+00
  8.00000000E-01  8.00000000E-01  1.50000000E+00  1.50000000E+00  8.00000000E-01
  8.00000000E-01  1.50000000E+00  1.50000000E+00  8.00000000E-01  8.00000000E-01
  1.50000000E+00
%FLAG SCREEN                                                                    
%FORMAT(5E16.8)                                                                 
  8.50000000E-01  7.20000000E-01  8.50000000E-01  8.50000000E-01  7.20000000E-01
  8.50000000E-01  7.90000000E-01  8.50000000E-01  7.20000000E-01  8.50000000E-01
  7.20000000E-01  8.50000000E-01  8.50000000E-01  8.50000000E-01  7.20000000E-01
  8.50000000E-01  7.90000000E-01  8.50000000E-01  7.20000000E-01  8.50000000E-01
  7.20000000E-01  8.50000000E-01  8.50000000E-01  8.50000000E-01  7.20000000E-01
  8.50000000E-01  7.90000000E-01  8.50000000E-01  7.20000000E-01  8.50000000E-01
  7.20000000E-01  8.50000000E-01  8.50000000E-01  8.50000000E-01  7.20000000E-01
  8.50000000E-01  7.90000000E-01  8.50000000E-01  7.20000000E-01  8.50000000E-01
  8.50000000E-01  8.50000000E-01  8.50000000E-01  8.50000000E-01  8.50000000E-01
  8.00000000E-01  8.50000000E-01  8.50000000E-01  8.50000000E-01  8.00000000E-01
  8.50000000E-01  8.50000000E-01  8.50000000E-01  8.00000000E-01  8.50000000E-01
  8.50000000E-01  8.50000000E-01  8.00000000E-01  8.50000000E-01  8.50000000E-01
  8.50000000E-01  8.00000000E-01  8.50000000E-01  8.50000000E-01  8.50000000E-01
  8.00000000E-01  8.50000000E-01  8.50000000E-01  8.50000000E-01  8.00000000E-01
  8.50000000E-01  8.50000000E-01  8.50000000E-01  8.00000000E-01  8.50000000E-01
  8.50000000E-01  8.50000000E-01  8.00000000E-01  8.50000000E-01  8.50000000E-01
  8.50000000E-01  8.00000000E-01  8.50000000E-01  8.50000000E-01  8.50000000E-01
  8.00000000E-01  8.50000000E-01  8.50000000E-01  8.50000000E-01  8.00000000E-01
  8.50000000E-01  8.50000000E-01  8.50000000E-01  8.00000000E-01  8.50000000E-01
  8.50000000E-01  8.50000000E-01  8.00000000E-01  8.50000000E-01  8.50000000E-01
  8.50000000E-01  8.00000000E-01  8.50000000E-01  8.50000000E-01  8.50000000E-01
  8.00000000E-01  8.50000000E-01  8.50000000E-01  8.50000000E-01  8.00000000E-01
  8.50000000E-01  8.50000000E-01  8.50000000E-01  8.00000000E-01  8.50000000E-01
  8.50000000E-01  8.50000000E-01  8.00000000E-01  8.50000000E-01  8.50000000E-01
  8.50000000E-01  8.00000000E-01  8.50000000E-01  8.50000000E-01  8.50000000E-01
  8.00000000E-01  8.50000000E-01  8.50000000E-01  8.50000000E-01  8.00000000E-01
  8.50000000E-01  8.50000000E-01  8.50000000E-01  8.00000000E-01  8.50000000E-01
  8.50000000E-01  8.50000000E-01  8.00000000E-01  8.50000000E-01  8.50000000E-01
  8.50000000E-01  8.00000000E-01  8.50000000E-01  8.50000000E-01  8.50000000E-01
  8.00000000E-01  8.50000000E-01  8.50000000E-01  8.50000000E-01  8.00000000E-01
  8.50000000E-01  8.50000000E-01  8.50000000E-01  8.00000000E-01  8.50000000E-01
  8.50000000E-01  8.50000000E-01  8.00000000E-01  8.50000000E-01  8.50000000E-01
  8.50000000E-01  8.00000000E-01  8.50000000E-01  8.50000000E-01  8.50000000E-01
  8.00000000E-01  8.50000000E-01  8.50000000E-01  8.50000000E-01  8.00000000E-01
  8.50000000E-01  8.50000000E-01  8.50000000E-01  8.00000000E-01  8.50000000E-01
  8.50000000E-01  8.50000000E-01  8.00000000E-01  8.50000000E-01  8.50000000E-01
  8.50000000E-01  8.00000000E-01  8.50000000E-01  8.50000000E-01  8.50000000E-01
  8.00000000E-01  8.50000000E-01  8.50000000E-01  8.50000000E-01  8.00000000E-01
  8.50000000E-01  8.50000000E-01  8.50000000E-01  8.00000000E-01  8.50000000E-01
  8.50000000E-01  8.50000000E-01  8.00000000E-01  8.50000000E-01  8.50000000E-01
  8.50000000E-01  8.00000000E-01  8.50000000E-01  8.50000000E-01  8.50000000E-01
  8.00000000E-01  8.50000000E-01  8.50000000E-01  8.50000000E-01  8.00000000E-01
  8.50000000E-01  8.50000000E-01  8.50000000E-01  8.00000000E-01  8.50000000E-01
  8.50000000E-01  8.50000000E-01  8.00000000E-01  8.50000000E-01  8.50000000E-01
  8.50000000E-01  8.00000000E-01  8.50000000E-01  8.50000000E-01  8.50000000E-01
  8.00000000E-01  8.50000000E-01  8.50000000E-01  8.50000000E-01  8.00000000E-01
  8.50000000E-01  8.50000000E-01  8.50000000E-01  8.00000000E-01  8.50000000E-01
  8.50000000E-01  8.50000000E-01  8.00000000E-01  8.50000000E-01  8.50000000E-01
  8.50000000E-01  8.00000000E-01  8.50000000E-01  8.50000000E-01  8.50000000E-01
  8.00000000E-01  8.50000000E-01  8.50000000E-01  8.50000000E-01  8.00000000E-01
  8.50000000E-01  8.50000000E-01  8.50000000E-01  8.00000000E-01  8.50000000E-01
  8.50000000E-01  8.50000000E-01  8.00000000E-01  8.50000000E-01  8.50000000E-01
  8.50000000E-01  8.00000000E-01  8.50000000E-01  8.50000000E-01  8.50000000E-01
  8.00000000E-01  8.50000000E-01  8.50000000E-01  8.50000000E-01  8.00000000E-01
  8.50000000E-01  8.50000000E-01  8.50000000E-01  8.00000000E-01  8.50000000E-01
  8.50000000E-01  8.50000000E-01  8.00000000E-01  8.50000000E-01  8.50000000E-01
  8.50000000E-01  8.00000000E-01  8.50000000E-01  8.50000000E-01  8.50000000E-01
  8.00000000E-01  8.50000000E-01  8.50000000E-01  8.50000000E-01  8.00000000E-01
  8.50000000E-01  8.50000000E-01  8.50000000E-01  8.00000000E-01  8.50000000E-01
  8.50000000E-01  8.50000000E-01  8.00000000E-01  8.50000000E-01  8.50000000E-01
  8.50000000E-01  8.00000000E-01  8.50000000E-01  8.50000000E-01  8.50000000E-01
  8.00000000E-01  8.50000000E-01  8.50000000E-01  8.50000000E-01  8.00000000E-01
  8.50000000E-01  8.50000000E-01  8.50000000E-01  8.00000000E-01  8.50000000E-01
  8.50000000E-01  8.50000000E-01  8.00000000E-01  8.50000000E-01  8.50000000E-01
  8.50000000E-01  8.00000000E-01  8.50000000E-01  8.50000000E-01  8.50000000E-01
  8.00000000E-01  8.50000000E-01  8.50000000E-01  8.50000000E-01  8.00000000E-01
  8.50000000E-01  8.50000000E-01  8.50000000E-01  8.00000000E-01  8.50000000E-01
  8.50000000E-01  8.50000000E-01  8.00000000E-01  8.50000000E-01  8.50000000E-01
  8.50000000E-01  8.00000000E-01  8.50000000E-01  8.50000000E-01  8.50000000E-01
  8.00000000E-01  8.50000000E-01  8.50000000E-01  8.50000000E-01  8.00000000E-01
  8.50000000E-01  8.50000000E-01  8.50000000E-01  8.00000000E-01  8.50000000E-01
  8.50000000E-01  8.50000000E-01  8.00000000E-01  8.50000000E-01  8.50000000E-01
  8.50000000E-01  8.00000000E-01  8.50000000E-01  8.50000000E-01  8.50000000E-01
  8.00000000E-01  8.50000000E-01  8.50000000E-01  8.50000000E-01  8.00000000E-01
  8.50000000E-01  8.50000000E-01  8.50000000E-01  8.00000000E-01  8.50000000E-01
  8.50000000E-01  8.50000000E-01  8.00000000E-01  8.50000000E-01  8.50000000E-01
  8.50000000E-01  8.00000000E-01  8.50000000E-01  8.50000000E-01  8.50000000E-01
  8.00000000E-01  8.50000000E-01  8.50000000E-01  8.50000000E-01  8.00000000E-01
  8.50000000E-01  8.50000000E-01  8.50000000E-01  8.00000000E-01  8.50000000E-01
  8.50000000E-01  8.50000000E-01  8.00000000E-01  8.50000000E-01  8.50000000E-01
  8.50000000E-01  8.00000000E-01  8.50000000E-01  8.50000000E-01  8.50000000E-01
  8.00000000E-01  8.50000000E-01  8.50000000E-01  8.50000000E-01  8.00000000E-01
  8.50000000E-01  8.50000000E-01  8.50000000E-01  8.00000000E-01  8.50000000E-01
  8.50000000E-01  8.50000000E-01  8.00000000E-01  8.50000000E-01  8.50000000E-01
  8.50000000E-01  8.00000000E-01  8.50000000E-01  8.50000000E-01  8.50000000E-01
  8.00000000E-01  8.50000000E-01  8.50000000E-01  8.50000000E-01  8.00000000E-01
  8.50000000E-01  8.50000000E-01  8.50000000E-01  8.00000000E-01  8.50000000E-01
  8.50000000E-01  8.50000000E-01  8.00000000E-01  8.50000000E-01  8.50000000E-01
  8.50000000E-01  8.00000000E-01  8.50000000E-01  8.50000000E-01  8.50000000E-01
  8.00000000E-01  8.50000000E-01  8.50000000E-01  8.50000000E-01  8.00000000E-01
  8.50000000E-01  8.50000000E-01  8.50000000E-01  8.00000000E-01  8.50000000E-01
  8.50000000E-01  8.50000000E-01  8.00000000E-01  8.50000000E-01  8.50000000E-01
  8.50000000E-01  8.00000000E-01  8.50000000E-01  8.50000000E-01  8.50000000E-01
  8.00000000E-01  8.50000000E-01  8.50000000E-01  8.50000000E-01  8.00000000E-01
  8.50000000E-01  8.50000000E-01  8.50000000E-01  8.00000000E-01  8.50000000E-01
  8.50000000E-01  8.50000000E-01  8.00000000E-01  8.50000000E-01  8.50000000E-01
  8.50000000E-01  8.00000000E-01  8.50000000E-01  8.50000000E-01  8.50000000E-01
  8.00000000E-01  8.50000000E-01  8.50000000E-01  8.50000000E-01  8.00000000E-01
  8.50000000E-01  8.50000000E-01  8.50000000E-01  8.00000000E-01  8.50000000E-01
  8.50000000E-01  8.50000000E-01  8.00000000E-01  8.50000000E-01  8.50000000E-01
  8.50000000E-01  8.00000000E-01  8.50000000E-01  8.50000000E-01  8.50000000E-01
  8.00000000E-01  8.50000000E-01  8.50000000E-01  8.50000000E-01  8.00000000E-01
  8.50000000E-01  8.50000000E-01  8.50000000E-01  8.00000000E-01  8.50000000E-01
  8.50000000E-01  8.50000000E-01  8.00000000E-01  8.50000000E-01  8.50000000E-01
  8.50000000E-01  8.00000000E-01  8.50000000E-01  8.50000000E-01  8.50000000E-01
  8.00000000E-01  8.50000000E-01  8.50000000E-01  8.50000000E-01  8.00000000E-01
  8.50000000E-01  8.50000000E-01  8.50000000E-01  8.00000000E-01  8.50000000E-01
  8.50000000E-01  8.50000000E-01  8.00000000E-01  8.50000000E-01  8.50000000E-01
  8.50000000E-01  8.00000000E-01  8.50000000E-01  8.50000000E-01  8.50000000E-01
  8.00000000E-01  8.50000000E-01  8.50000000E-01  8.50000000E-01  8.00000000E-01
  8.50000000E-01  8.50000000E-01  8.50000000E-01  8.00000000E-01  8.50000000E-01
  8.50000000E-01  8.50000000E-01  8.00000000E-01  8.50000000E-01  8.50000000E-01
  8.50000000E-01  8.00000000E-01  8.50000000E-01  8.50000000E-01  8.50000000E-01
  8.00000000E-01  8.50000000E-01  8.50000000E-01  8.50000000E-01  8.00000000E-01
  8.50000000E-01  8.50000000E-01  8.50000000E-01  8.00000000E-01  8.50000000E-01
  8.50000000E-01  8.50000000E-01  8.00000000E-01  8.50000000E-01  8.50000000E-01
  8.50000000E-01  8.00000000E-01  8.50000000E-01  8.50000000E-01  8.50000000E-01
  8.00000000E-01  8.50000000E-01  8.50000000E-01  8.50000000E-01  8.00000000E-01
  8.50000000E-01  8.50000000E-01  8.50000000E-01  8.00000000E-01  8.50000000E-01
  8.50000000E-01  8.50000000E-01  8.00000000E-01  8.50000000E-01  8.50000000E-01
  8.50000000E-01  8.00000000E-01  8.50000000E-01  8.50000000E-01  8.50000000E-01
  8.00000000E-01  8.50000000E-01  8.50000000E-01  8.50000000E-01  8.00000000E-01
  8.50000000E-01  8.50000000E-01  8.50000000E-01  8.00000000E-01  8.50000000E-01
  8.50000000E-01  8.50000000E-01  8.00000000E-01  8.50000000E-01  8.50000000E-01
  8.50000000E-01  8.00000000E-01  8.50000000E-01  8.50000000E-01  8.50000000E-01
  8.00000000E-01  8.50000000E-01  8.50000000E-01  8.50000000E-01  8.00000000E-01
  8.50000000E-01  8.50000000E-01  8.50000000E-01  8.00000000E-01  8.50000000E-01
  8.50000000E-01  8.50000000E-01  8.00000000E-01  8.50000000E-01  8.50000000E-01
  8.50000000E-01  8.00000000E-01  8.50000000E-01  8.50000000E-01  8.50000000E-01
  8.00000000E-01  8.50000000E-01  8.50000000E-01  8.50000000E-01  8.00000000E-01
  8.50000000E-01  8.50000000E-01  8.50000000E-01  8.00000000E-01  8.50000000E-01
  8.50000000E-01  8.50000000E-01  8.00000000E-01  8.50000000E-01  8.50000000E-01
  8.50000000E-01  8.00000000E-01  8.50000000E-01  8.50000000E-01  8.50000000E-01
  8.00000000E-01  8.50000000E-01  8.50000000E-01  8.50000000E-01  8.00000000E-01
  8.50000000E-01  8.50000000E-01  8.50000000E-01  8.00000000E-01  8.50000000E-01
  8.50000000E-01  8.50000000E-01  8.00000000E-01  8.50000000E-01  8.50000000E-01
  8.50000000E-01  8.00000000E-01  8.50000000E-01  8.50000000E-01  8.50000000E-01
  8.00000000E-01  8.50000000E-01  8.50000000E-01  8.50000000E-01  8.00000000E-01
  8.50000000E-01  8.50000000E-01  8.50000000E-01  8.00000000E-01  8.50000000E-01
  8.50000000E-01  8.50000000E-01  8.00000000E-01  8.50000000E-01  8.50000000E-01
  8.50000000E-01  8.00000000E-01  8.50000000E-01  8.50000000E-01  8.50000000E-01
  8.00000000E-01  8.50000000E-01  8.50000000E-01  8.50000000E-01  8.00000000E-01
  8.50000000E-01  8.50000000E-01  8.50000000E-01  8.00000000E-01  8.50000000E-01
  8.50000000E-01  8.50000000E-01  8.00000000E-01  8.50000000E-01  8.50000000E-01
  8.50000000E-01  8.00000000E-01  8.50000000E-01  8.50000000E-01  8.50000000E-01
  8.00000000E-01  8.50000000E-01  8.50000000E-01  8.50000000E-01  8.00000000E-01
  8.50000000E-01  8.50000000E-01  8.50000000E-01  8.00000000E-01  8.50000000E-01
  8.50000000E-01  8.50000000E-01  8.00000000E-01  8.50000000E-01  8.50000000E-01
  8.50000000E-01  8.00000000E-01  8.50000000E-01  8.50000000E-01  8.50000000E-01
  8.00000000E-01  8.50000000E-01  8.50000000E-01  8.50000000E-01  8.00000000E-01
  8.50000000E-01  8.50000000E-01  8.50000000E-01  8.00000000E-01  8.50000000E-01
  8.50000000E-01  8.50000000E-01  8.00000000E-01  8.50000000E-01  8.50000000E-01
  8.50000000E-01  8.00000000E-01  8.50000000E-01  8.50000000E-01  8.50000000E-01
  8.00000000E-01  8.50000000E-01  8.50000000E-01  8.50000000E-01  8.00000000E-01
  8.50000000E-01  8.50000000E-01  8.50000000E-01  8.00000000E-01  8.50000000E-01
  8.50000000E-01  8.50000000E-01  8.00000000E-01  8.50000000E-01  8.50000000E-01
  8.50000000E-01  8.00000000E-01  8.50000000E-01  8.50000000E-01  8.50000000E-01
  8.00000000E-01  8.50000000E-01  8.50000000E-01  8.50000000E-01  8.00000000E-01
  8.50000000E-01  8.50000000E-01  8.50000000E-01  8.00000000E-01  8.50000000E-01
  8.50000000E-01  8.50000000E-01  8.00000000E-01  8.50000000E-01  8.50000000E-01
  8.50000000E-01  8.00000000E-01  8.50000000E-01  8.50000000E-01  8.50000000E-01
  8.00000000E-01  8.50000000E-01  8.50000000E-01  8.50000000E-01  8.00000000E-01
  8.50000000E-01  8.50000000E-01  8.50000000E-01  8.00000000E-01  8.50000000E-01
  8.50000000E-01  8.50000000E-01  8.00000000E-01  8.50000000E-01  8.50000000E-01
  8.50000000E-01  8.00000000E-01  8.50000000E-01  8.50000000E-01  8.50000000E-01
  8.00000000E-01  8.50000000E-01  8.50000000E-01  8.50000000E-01  8.00000000E-01
  8.50000000E-01  8.50000000E-01  8.50000000E-01  8.00000000E-01  8.50000000E-01
  8.50000000E-01  8.50000000E-01  8.00000000E-01  8.50000000E-01  8.50000000E-01
  8.50000000E-01  8.00000000E-01  8.50000000E-01  8.50000000E-01  8.50000000E-01
  8.00000000E-01  8.50000000E-01  8.50000000E-01  8.50000000E-01  8.00000000E-01
  8.50000000E-01  8.50000000E-01  8.50000000E-01  8.00000000E-01  8.50000000E-01
  8.50000000E-01  8.50000000E-01  8.00000000E-01  8.50000000E-01  8.50000000E-01
  8.50000000E-01  8.00000000E-01  8.50000000E-01  8.50000000E-01  8.50000000E-01
  8.00000000E-01  8.50000000E-01  8.50000000E-01  8.50000000E-01  8.00000000E-01
  8.50000000E-01  8.50000000E-01  8.50000000E-01  8.00000000E-01  8.50000000E-01
  8.50000000E-01  8.50000000E-01  8.00000000E-01  8.50000000E-01  8.50000000E-01
  8.50000000E-01  8.00000000E-01  8.50000000E-01  8.50000000E-01  8.50000000E-01
  8.00000000E-01  8.50000000E-01  8.50000000E-01  8.50000000E-01  8.00000000E-01
  8.50000000E-01  8.50000000E-01  8.50000000E-01  8.00000000E-01  8.50000000E-01
  8.50000000E-01  8.50000000E-01  8.00000000E-01  8.50000000E-01  8.50000000E-01
  8.50000000E-01  8.00000000E-01  8.50000000E-01  8.50000000E-01  8.50000000E-01
  8.00000000E-01  8.50000000E-01  8.50000000E-01  8.50000000E-01  8.00000000E-01
  8.50000000E-01  8.50000000E-01  8.50000000E-01  8.00000000E-01  8.50000000E-01
  8.50000000E-01  8.50000000E-01  8.00000000E-01  8.50000000E-01  8.50000000E-01
  8.50000000E-01  8.00000000E-01  8.50000000E-01  8.50000000E-01  8.50000000E-01
  8.00000000E-01  8.50000000E-01  8.50000000E-01  8.50000000E-01  8.00000000E-01
  8.50000000E-01  8.50000000E-01  8.50000000E-01  8.00000000E-01  8.50000000E-01
  8.50000000E-01  8.50000000E-01  8.00000000E-01  8.50000000E-01  8.50000000E-01
  8.50000000E-01  8.00000000E-01  8.50000000E-01  8.50000000E-01  8.50000000E-01
  8.00000000E-01  8.50000000E-01  8.50000000E-01  8.50000000E-01  8.00000000E-01
  8.50000000E-01  8.50000000E-01  8.50000000E-01  8.00000000E-01  8.50000000E-01
  8.50000000E-01  8.50000000E-01  8.00000000E-01  8.50000000E-01  8.50000000E-01
  8.50000000E-01  8.00000000E-01  8.50000000E-01  8.50000000E-01  8.50000000E-01
  8.00000000E-01  8.50000000E-01  8.50000000E-01  8.50000000E-01  8.00000000E-01
  8.50000000E-01  8.50000000E-01  8.50000000E-01  8.00000000E-01  8.50000000E-01
  8.50000000E-01  8.50000000E-01  8.00000000E-01  8.50000000E-01  8.50000000E-01
  8.50000000E-01  8.00000000E-01  8.50000000E-01  8.50000000E-01  8.50000000E-01
  8.00000000E-01  8.50000000E-01  8.50000000E-01  8.50000000E-01  8.00000000E-01
  8.50000000E-01  8.50000000E-01  8.50000000E-01  8.00000000E-01  8.50000000E-01
  8.50000000E-01  8.50000000E-01  8.00000000E-01  8.50000000E-01  8.50000000E-01
  8.50000000E-01  8.00000000E-01  8.50000000E-01  8.50000000E-01  8.50000000E-01
  8.00000000E-01  8.50000000E-01  8.50000000E-01  8.50000000E-01  8.00000000E-01
  8.50000000E-01  8.50000000E-01  8.50000000E-01  8.00000000E-01  8.50000000E-01
  8.50000000E-01  8.50000000E-01  8.00000000E-01  8.50000000E-01  8.50000000E-01
  8.50000000E-01  8.00000000E-01  8.50000000E-01  8.50000000E-01  8.50000000E-01
  8.00000000E-01  8.50000000E-01  8.50000000E-01  8.50000000E-01  8.00000000E-01
  8.50000000E-01  8.50000000E-01  8.50000000E-01  8.00000000E-01  8.50000000E-01
  8.50000000E-01  8.50000000E-01  8.00000000E-01  8.50000000E-01  8.50000000E-01
  8.50000000E-01  8.00000000E-01  8.50000000E-01  8.50000000E-01  8.50000000E-01
  8.00000000E-01  8.50000000E-01  8.50000000E-01  8.50000000E-01  8.00000000E-01
  8.50000000E-01  8.50000000E-01  8.50000000E-01  8.00000000E-01  8.50000000E-01
  8.50000000E-01  8.50000000E-01  8.00000000E-01  8.50000000E-01  8.50000000E-01
  8.50000000E-01  8.00000000E-01  8.50000000E-01  8.50000000E-01  8.50000000E-01
  8.00000000E-01  8.50000000E-01  8.50000000E-01  8.50000000E-01  8.00000000E-01
  8.50000000E-01  8.50000000E-01  8.50000000E-01  8.00000000E-01  8.50000000E-01
  8.50000000E-01  8.50000000E-01  8.00000000E-01  8.50000000E-01  8.50000000E-01
  8.50000000E-01  8.00000000E-01  8.50000000E-01  8.50000000E-01  8.50000000E-01
  8.00000000E-01  8.50000000E-01  8.50000000E-01  8.50000000E-01  8.00000000E-01
  8.50000000E-01  8.50000000E-01  8.50000000E-01  8.00000000E-01  8.50000000E-01
  8.50000000E-01  8.50000000E-01  8.00000000E-01  8.50000000E-01  8.50000000E-01
  8.50000000E-01  8.00000000E-01  8.50000000E-01  8.50000000E-01  8.50000000E-01
  8.00000000E-01  8.50000000E-01  8.50000000E-01  8.50000000E-01  8.00000000E-01
  8.50000000E-01  8.50000000E-01  8.50000000E-01  8.00000000E-01  8.50000000E-01
  8.50000000E-01  8.50000000E-01  8.00000000E-01  8.50000000E-01  8.50000000E-01
  8.50000000E-01  8.00000000E-01  8.50000000E-01  8.50000000E-01  8.50000000E-01
  8.00000000E-01  8.50000000E-01  8.50000000E-01  8.50000000E-01  8.00000000E-01
  8.50000000E-01  8.50000000E-01  8.50000000E-01  8.00000000E-01  8.50000000E-01
  8.50000000E-01  8.50000000E-01  8.00000000E-01  8.50000000E-01  8.50000000E-01
  8.50000000E-01  8.00000000E-01  8.50000000E-01  8.50000000E-01  8.50000000E-01
  8.00000000E-01  8.50000000E-01  8.50000000E-01  8.50000000E-01  8.00000000E-01
  8.50000000E-01  8.50000000E-01  8.50000000E-01  8.00000000E-01  8.50000000E-01
  8.50000000E-01  8.50000000E-01  8.00000000E-01  8.50000000E-01  8.50000000E-01
  8.50000000E-01  8.00000000E-01  8.50000000E-01  8.50000000E-01  8.50000000E-01
  8.00000000E-01  8.50000000E-01  8.50000000E-01  8.50000000E-01  8.00000000E-01
  8.50000000E-01  8.50000000E-01  8.50000000E-01  8.00000000E-01  8.50000000E-01
  8.50000000E-01  8.50000000E-01  8.00000000E-01  8.50000000E-01  8.50000000E-01
  8.50000000E-01  8.00000000E-01  8.50000000E-01  8.50000000E-01  8.50000000E-01
  8.00000000E-01  8.50000000E-01  8.50000000E-01  8.50000000E-01  8.00000000E-01
  8.50000000E-01  8.50000000E-01  8.50000000E-01  8.00000000E-01  8.50000000E-01
  8.50000000E-01  8.50000000E-01  8.00000000E-01  8.50000000E-01  8.50000000E-01
  8.50000000E-01  8.00000000E-01  8.50000000E-01  8.50000000E-01  8.50000000E-01
  8.00000000E-01  8.50000000E-01  8.50000000E-01  8.50000000E-01  8.00000000E-01
  8.50000000E-01  8.50000000E-01  8.50000000E-01  8.00000000E-01  8.50000000E-01
  8.50000000E-01  8.50000000E-01  8.00000000E-01  8.50000000E-01  8.50000000E-01
  8.50000000E-01  8.00000000E-01  8.50000000E-01  8.50000000E-01  8.50000000E-01
  8.00000000E-01  8.50000000E-01  8.50000000E-01  8.50000000E-01  8.00000000E-01
  8.50000000E-01  8.50000000E-01  8.50000000E-01  8.00000000E-01  8.50000000E-01
  8.50000000E-01  8.50000000E-01  8.00000000E-01  8.50000000E-01  8.50000000E-01
  8.50000000E-01  8.00000000E-01  8.50000000E-01  8.50000000E-01  8.50000000E-01
  8.00000000E-01  8.50000000E-01  8.50000000E-01  8.50000000E-01  8.00000000E-01
  8.50000000E-01  8.50000000E-01  8.50000000E-01  8.00000000E-01  8.50000000E-01
  8.50000000E-01  8.50000000E-01  8.00000000E-01  8.50000000E-01  8.50000000E-01
  8.50000000E-01  8.00000000E-01  8.50000000E-01  8.50000000E-01  8.50000000E-01
  8.00000000E-01  8.50000000E-01  8.50000000E-01  8.50000000E-01  8.00000000E-01
  8.50000000E-01  8.50000000E-01  8.50000000E-01  8.00000000E-01  8.50000000E-01
  8.50000000E-01  8.50000000E-01  8.00000000E-01  8.50000000E-01  8.50000000E-01
  8.50000000E-01  8.00000000E-01  8.50000000E-01  8.50000000E-01  8.50000000E-01
  8.00000000E-01  8.50000000E-01  8.50000000E-01  8.50000000E-01  8.00000000E-01
  8.50000000E-01  8.50000000E-01  8.50000000E-01  8.00000000E-01  8.50000000E-01
  8.50000000E-01  8.50000000E-01  8.00000000E-01  8.50000000E-01  8.50000000E-01
  8.50000000E-01  8.00000000E-01  8.50000000E-01  8.50000000E-01  8.50000000E-01
  8.00000000E-01  8.50000000E-01  8.50000000E-01  8.50000000E-01  8.00000000E-01
  8.50000000E-01  8.50000000E-01  8.50000000E-01  8.00000000E-01  8.50000000E-01
  8.50000000E-01  8.50000000E-01  8.00000000E-01  8.50000000E-01  8.50000000E-01
  8.50000000E-01  8.00000000E-01  8.50000000E-01  8.50000000E-01  8.50000000E-01
  8.00000000E-01  8.50000000E-01  8.50000000E-01  8.50000000E-01  8.00000000E-01
  8.50000000E-01  8.50000000E-01  8.50000000E-01  8.00000000E-01  8.50000000E-01
  8.50000000E-01  8.50000000E-01  8.00000000E-01  8.50000000E-01  8.50000000E-01
  8.50000000E-01  8.00000000E-01  8.50000000E-01  8.50000000E-01  8.50000000E-01
  8.00000000E-01  8.50000000E-01  8.50000000E-01  8.50000000E-01  8.00000000E-01
  8.50000000E-01  8.50000000E-01  8.50000000E-01  8.00000000E-01  8.50000000E-01
  8.50000000E-01  8.50000000E-01  8.00000000E-01  8.50000000E-01  8.50000000E-01
  8.50000000E-01  8.00000000E-01  8.50000000E-01  8.50000000E-01  8.50000000E-01
  8.00000000E-01  8.50000000E-01  8.50000000E-01  8.50000000E-01  8.00000000E-01
  8.50000000E-01  8.50000000E-01  8.50000000E-01  8.00000000E-01  8.50000000E-01
  8.50000000E-01  8.50000000E-01  8.00000000E-01  8.50000000E-01  8.50000000E-01
  8.50000000E-01  8.00000000E-01  8.50000000E-01  8.50000000E-01  8.50000000E-01
  8.00000000E-01  8.50000000E-01  8.50000000E-01  8.50000000E-01  8.00000000E-01
  8.50000000E-01  8.50000000E-01  8.50000000E-01  8.00000000E-01  8.50000000E-01
  8.50000000E-01  8.50000000E-01  8.00000000E-01  8.50000000E-01  8.50000000E-01
  8.50000000E-01  8.00000000E-01  8.50000000E-01  8.50000000E-01  8.50000000E-01
  8.00000000E-01  8.50000000E-01  8.50000000E-01  8.50000000E-01  8.00000000E-01
  8.50000000E-01  8.50000000E-01  8.50000000E-01  8.00000000E-01  8.50000000E-01
  8.50000000E-01  8.50000000E-01  8.00000000E-01  8.50000000E-01  8.50000000E-01
  8.50000000E-01  8.00000000E-01  8.50000000E-01  8.50000000E-01  8.50000000E-01
  8.00000000E-01  8.50000000E-01  8.50000000E-01  8.50000000E-01  8.00000000E-01
  8.50000000E-01  8.50000000E-01  8.50000000E-01  8.00000000E-01  8.50000000E-01
  8.50000000E-01  8.50000000E-01  8.00000000E-01  8.50000000E-01  8.50000000E-01
  8.50000000E-01  8.00000000E-01  8.50000000E-01  8.50000000E-01  8.50000000E-01
  8.00000000E-01  8.50000000E-01  8.50000000E-01  8.50000000E-01  8.00000000E-01
  8.50000000E-01  8.50000000E-01  8.50000000E-01  8.00000000E-01  8.50000000E-01
  8.50000000E-01  8.50000000E-01  8.00000000E-01  8.50000000E-01  8.50000000E-01
  8.50000000E-01  8.00000000E-01  8.50000000E-01  8.50000000E-01  8.50000000E-01
  8.00000000E-01  8.50000000E-01  8.50000000E-01  8.50000000E-01  8.00000000E-01
  8.50000000E-01  8.50000000E-01  8.50000000E-01  8.00000000E-01  8.50000000E-01
  8.50000000E-01  8.50000000E-01  8.00000000E-01  8.50000000E-01  8.50000000E-01
  8.50000000E-01  8.00000000E-01  8.50000000E-01  8.50000000E-01  8.50000000E-01
  8.00000000E-01  8.50000000E-01  8.50000000E-01  8.50000000E-01  8.00000000E-01
  8.50000000E-01  8.50000000E-01  8.50000000E-01  8.00000000E-01  8.50000000E-01
  8.50000000E-01  8.50000000E-01  8.00000000E-01  8.50000000E-01  8.50000000E-01
  8.50000000E-01  8.00000000E-01  8.50000000E-01  8.50000000E-01  8.50000000E-01
  8.00000000E-01  8.50000000E-01  8.50000000E-01  8.50000000E-01  8.00000000E-01
  8.50000000E-01  8.50000000E-01  8.50000000E-01  8.00000000E-01  8.50000000E-01
  8.50000000E-01  8.50000000E-01  8.00000000E-01  8.50000000E-01  8.50000000E-01
  8.50000000E-01  8.00000000E-01  8.50000000E-01  8.50000000E-01  8.50000000E-01
  8.00000000E-01  8.50000000E-01  8.50000000E-01  8.50000000E-01  8.00000000E-01
  8.50000000E-01  8.50000000E-01  8.50000000E-01  8.00000000E-01  8.50000000E-01
  8.50000000E-01  8.50000000E-01  8.00000000E-01  8.50000000E-01  8.50000000E-01
  8.50000000E-01  8.00000000E-01  8.50000000E-01  8.50000000E-01  8.50000000E-01
  8.00000000E-01  8.50000000E-01  8.50000000E-01  8.50000000E-01  8.00000000E-01
  8.50000000E-01  8.50000000E-01  8.50000000E-01  8.00000000E-01  8.50000000E-01
  8.50000000E-01  8.50000000E-01  8.00000000E-01  8.50000000E-01  8.50000000E-01
  8.50000000E-01  8.00000000E-01  8.50000000E-01  8.50000000E-01  8.50000000E-01
  8.00000000E-01  8.50000000E-01  8.50000000E-01  8.50000000E-01  8.00000000E-01
  8.50000000E-01  8.50000000E-01  8.50000000E-01  8.00000000E-01  8.50000000E-01
  8.50000000E-01  8.50000000E-01  8.00000000E-01  8.50000000E-01  8.50000000E-01
  8.50000000E-01  8.00000000E-01  8.50000000E-01  8.50000000E-01  8.50000000E-01
  8.00000000E-01  8.50000000E-01  8.50000000E-01  8.50000000E-01  8.00000000E-01
  8.50000000E-01  8.50000000E-01  8.50000000E-01  8.00000000E-01  8.50000000E-01
  8.50000000E-01  8.50000000E-01  8.00000000E-01  8.50000000E-01  8.50000000E-01
  8.50000000E-01  8.00000000E-01  8.50000000E-01  8.50000000E-01  8.50000000E-01
  8.00000000E-01  8.50000000E-01  8.50000000E-01  8.50000000E-01  8.00000000E-01
  8.50000000E-01  8.50000000E-01  8.50000000E-01  8.00000000E-01  8.50000000E-01
  8.50000000E-01  8.50000000E-01  8.00000000E-01  8.50000000E-01  8.50000000E-01
  8.50000000E-01  8.00000000E-01  8.50000000E-01  8.50000000E-01  8.50000000E-01
  8.00000000E-01  8.50000000E-01  8.50000000E-01  8.50000000E-01  8.00000000E-01
  8.50000000E-01  8.50000000E-01  8.50000000E-01  8.00000000E-01  8.50000000E-01
  8.50000000E-01  8.50000000E-01  8.00000000E-01  8.50000000E-01  8.50000000E-01
  8.50000000E-01  8.00000000E-01  8.50000000E-01  8.50000000E-01  8.50000000E-01
  8.00000000E-01  8.50000000E-01  8.50000000E-01  8.50000000E-01  8.00000000E-01
  8.50000000E-01  8.50000000E-01  8.50000000E-01  8.00000000E-01  8.50000000E-01
  8.50000000E-01  8.50000000E-01  8.00000000E-01  8.50000000E-01  8.50000000E-01
  8.50000000E-01  8.00000000E-01  8.50000000E-01  8.50000000E-01  8.50000000E-01
  8.00000000E-01  8.50000000E-01  8.50000000E-01  8.50000000E-01  8.00000000E-01
  8.50000000E-01  8.50000000E-01  8.50000000E-01  8.00000000E-01  8.50000000E-01
  8.50000000E-01  8.50000000E-01  8.00000000E-01  8.50000000E-01  8.50000000E-01
  8.50000000E-01  8.00000000E-01  8.50000000E-01  8.50000000E-01  8.50000000E-01
  8.00000000E-01  8.50000000E-01  8.50000000E-01  8.50000000E-01  8.00000000E-01
  8.50000000E-01  8.50000000E-01  8.50000000E-01  8.00000000E-01  8.50000000E-01
  8.50000000E-01  8.50000000E-01  8.00000000E-01  8.50000000E-01  8.50000000E-01
  8.50000000E-01  8.00000000E-01  8.50000000E-01  8.50000000E-01  8.50000000E-01
  8.00000000E-01  8.50000000E-01  8.50000000E-01  8.50000000E-01  8.00000000E-01
  8.50000000E-01  8.50000000E-01  8.50000000E-01  8.00000000E-01  8.50000000E-01
  8.50000000E-01  8.50000000E-01  8.00000000E-01  8.50000000E-01  8.50000000E-01
  8.50000000E-01  8.00000000E-01  8.50000000E-01  8.50000000E-01  8.50000000E-01
  8.00000000E-01  8.50000000E-01  8.50000000E-01  8.50000000E-01  8.00000000E-01
  8.50000000E-01  8.50000000E-01  8.50000000E-01  8.00000000E-01  8.50000000E-01
  8.50000000E-01  8.50000000E-01  8.00000000E-01  8.50000000E-01  8.50000000E-01
  8.50000000E-01  8.00000000E-01  8.50000000E-01  8.50000000E-01  8.50000000E-01
  8.00000000E-01  8.50000000E-01  8.50000000E-01  8.50000000E-01  8.00000000E-01
  8.50000000E-01  8.50000000E-01  8.50000000E-01  8.00000000E-01  8.50000000E-01
  8.50000000E-01  8.50000000E-01  8.00000000E-01  8.50000000E-01  8.50000000E-01
  8.50000000E-01  8.00000000E-01  8.50000000E-01  8.50000000E-01  8.50000000E-01
  8.00000000E-01  8.50000000E-01  8.50000000E-01  8.50000000E-01  8.00000000E-01
  8.50000000E-01  8.50000000E-01  8.50000000E-01  8.00000000E-01  8.50000000E-01
  8.50000000E-01  8.50000000E-01  8.00000000E-01  8.50000000E-01  8.50000000E-01
  8.50000000E-01  8.00000000E-01  8.50000000E-01  8.50000000E-01  8.50000000E-01
  8.00000000E-01  8.50000000E-01  8.50000000E-01  8.50000000E-01  8.00000000E-01
  8.50000000E-01  8.50000000E-01  8.50000000E-01  8.00000000E-01  8.50000000E-01
  8.50000000E-01  8.50000000E-01  8.00000000E-01  8.50000000E-01  8.50000000E-01
  8.50000000E-01  8.00000000E-01  8.50000000E-01  8.50000000E-01  8.50000000E-01
  8.00000000E-01  8.50000000E-01  8.50000000E-01  8.50000000E-01  8.00000000E-01
  8.50000000E-01  8.50000000E-01  8.50000000E-01  8.00000000E-01  8.50000000E-01
  8.50000000E-01  8.50000000E-01  8.00000000E-01  8.50000000E-01  8.50000000E-01
  8.50000000E-01  8.00000000E-01  8.50000000E-01  8.50000000E-01  8.50000000E-01
  8.00000000E-01  8.50000000E-01  8.50000000E-01  8.50000000E-01  8.00000000E-01
  8.50000000E-01  8.50000000E-01  8.50000000E-01  8.00000000E-01  8.50000000E-01
  8.50000000E-01  8.50000000E-01  8.00000000E-01  8.50000000E-01  8.50000000E-01
  8.50000000E-01  8.00000000E-01  8.50000000E-01  8.50000000E-01  8.50000000E-01
  8.00000000E-01  8.50000000E-01  8.50000000E-01  8.50000000E-01  8.00000000E-01
  8.50000000E-01  8.50000000E-01  8.50000000E-01  8.00000000E-01  8.50000000E-01
  8.50000000E-01  8.50000000E-01  8.00000000E-01  8.50000000E-01  8.50000000E-01
  8.50000000E-01  8.00000000E-01  8.50000000E-01  8.50000000E-01  8.50000000E-01
  8.00000000E-01  8.50000000E-01  8.50000000E-01  8.50000000E-01  8.00000000E-01
  8.50000000E-01  8.50000000E-01  8.50000000E-01  8.00000000E-01  8.50000000E-01
  8.50000000E-01  8.50000000E-01  8.00000000E-01  8.50000000E-01  8.50000000E-01
  8.50000000E-01  8.00000000E-01  8.50000000E-01  8.50000000E-01  8.50000000E-01
  8.00000000E-01  8.50000000E-01  8.50000000E-01  8.50000000E-01  8.00000000E-01
  8.50000000E-01  8.50000000E-01  8.50000000E-01  8.00000000E-01  8.50000000E-01
  8.50000000E-01  8.50000000E-01  8.00000000E-01  8.50000000E-01  8.50000000E-01
  8.50000000E-01  8.00000000E-01  8.50000000E-01  8.50000000E-01  8.50000000E-01
  8.00000000E-01  8.50000000E-01  8.50000000E-01  8.50000000E-01  8.00000000E-01
  8.50000000E-01  8.50000000E-01  8.50000000E-01  8.00000000E-01  8.50000000E-01
  8.50000000E-01  8.50000000E-01  8.00000000E-01  8.50000000E-01  8.50000000E-01
  8.50000000E-01  8.00000000E-01  8.50000000E-01  8.50000000E-01  8.50000000E-01
  8.00000000E-01  8.50000000E-01  8.50000000E-01  8.50000000E-01  8.00000000E-01
  8.50000000E-01  8.50000000E-01  8.50000000E-01  8.00000000E-01  8.50000000E-01
  8.50000000E-01  8.50000000E-01  8.00000000E-01  8.50000000E-01  8.50000000E-01
  8.50000000E-01  8.00000000E-01  8.50000000E-01  8.50000000E-01  8.50000000E-01
  8.00000000E-01  8.50000000E-01  8.50000000E-01  8.50000000E-01  8.00000000E-01
  8.50000000E-01  8.50000000E-01  8.50000000E-01  8.00000000E-01  8.50000000E-01
  8.50000000E-01  8.50000000E-01  8.00000000E-01  8.50000000E-01  8.50000000E-01
  8.50000000E-01  8.00000000E-01  8.50000000E-01  8.50000000E-01  8.50000000E-01
  8.00000000E-01  8.50000000E-01  8.50000000E-01  8.50000000E-01  8.00000000E-01
  8.50000000E-01  8.50000000E-01  8.50000000E-01  8.00000000E-01  8.50000000E-01
  8.50000000E-01  8.50000000E-01  8.00000000E-01  8.50000000E-01  8.50000000E-01
  8.50000000E-01  8.00000000E-01  8.50000000E-01  8.50000000E-01  8.50000000E-01
  8.00000000E-01  8.50000000E-01  8.50000000E-01  8.50000000E-01  8.00000000E-01
  8.50000000E-01  8.50000000E-01  8.50000000E-01  8.00000000E-01  8.50000000E-01
  8.50000000E-01  8.50000000E-01  8.00000000E-01  8.50000000E-01  8.50000000E-01
  8.50000000E-01  8.00000000E-01  8.50000000E-01  8.50000000E-01  8.50000000E-01
  8.00000000E-01  8.50000000E-01  8.50000000E-01  8.50000000E-01  8.00000000E-01
  8.50000000E-01  8.50000000E-01  8.50000000E-01  8.00000000E-01  8.50000000E-01
  8.50000000E-01  8.50000000E-01  8.00000000E-01  8.50000000E-01  8.50000000E-01
  8.50000000E-01  8.00000000E-01  8.50000000E-01  8.50000000E-01  8.50000000E-01
  8.00000000E-01  8.50000000E-01  8.50000000E-01  8.50000000E-01  8.00000000E-01
  8.50000000E-01  8.50000000E-01  8.50000000E-01  8.00000000E-01  8.50000000E-01
  8.50000000E-01  8.50000000E-01  8.00000000E-01  8.50000000E-01  8.50000000E-01
  8.50000000E-01  8.00000000E-01  8.50000000E-01  8.50000000E-01  8.50000000E-01
  8.00000000E-01  8.50000000E-01  8.50000000E-01  8.50000000E-01  8.00000000E-01
  8.50000000E-01  8.50000000E-01  8.50000000E-01  8.00000000E-01  8.50000000E-01
  8.50000000E-01  8.50000000E-01  8.00000000E-01  8.50000000E-01  8.50000000E-01
  8.50000000E-01  8.00000000E-01  8.50000000E-01  8.50000000E-01  8.50000000E-01
  8.00000000E-01  8.50000000E-01  8.50000000E-01  8.50000000E-01  8.00000000E-01
  8.50000000E-01  8.50000000E-01  8.50000000E-01  8.00000000E-01  8.50000000E-01
  8.50000000E-01  8.50000000E-01  8.00000000E-01  8.50000000E-01  8.50000000E-01
  8.50000000E-01  8.00000000E-01  8.50000000E-01  8.50000000E-01  8.50000000E-01
  8.00000000E-01  8.50000000E-01  8.50000000E-01  8.50000000E-01  8.00000000E-01
  8.50000000E-01  8.50000000E-01  8.50000000E-01  8.00000000E-01  8.50000000E-01
  8.50000000E-01  8.50000000E-01  8.00000000E-01  8.50000000E-01  8.50000000E-01
  8.50000000E-01  8.00000000E-01  8.50000000E-01  8.50000000E-01  8.50000000E-01
  8.00000000E-01  8.50000000E-01  8.50000000E-01  8.50000000E-01  8.00000000E-01
  8.50000000E-01  8.50000000E-01  8.50000000E-01  8.00000000E-01  8.50000000E-01
  8.50000000E-01  8.50000000E-01  8.00000000E-01  8.50000000E-01  8.50000000E-01
  8.50000000E-01  8.00000000E-01  8.50000000E-01  8.50000000E-01  8.50000000E-01
  8.00000000E-01  8.50000000E-01  8.50000000E-01  8.50000000E-01  8.00000000E-01
  8.50000000E-01  8.50000000E-01  8.50000000E-01  8.00000000E-01  8.50000000E-01
  8.50000000E-01  8.50000000E-01  8.00000000E-01  8.50000000E-01  8.50000000E-01
  8.50000000E-01  8.00000000E-01  8.50000000E-01  8.50000000E-01  8.50000000E-01
  8.00000000E-01  8.50000000E-01  8.50000000E-01  8.50000000E-01  8.00000000E-01
  8.50000000E-01  8.50000000E-01  8.50000000E-01  8.00000000E-01  8.50000000E-01
  8.50000000E-01  8.50000000E-01  8.00000000E-01  8.50000000E-01  8.50000000E-01
  8.50000000E-01  8.00000000E-01  8.50000000E-01  8.50000000E-01  8.50000000E-01
  8.00000000E-01  8.50000000E-01  8.50000000E-01  8.50000000E-01  8.00000000E-01
  8.50000000E-01  8.50000000E-01  8.50000000E-01  8.00000000E-01  8.50000000E-01
  8.50000000E-01  8.50000000E-01  8.00000000E-01  8.50000000E-01  8.50000000E-01
  8.50000000E-01  8.00000000E-01  8.50000000E-01  8.50000000E-01  8.50000000E-01
  8.00000000E-01  8.50000000E-01  8.50000000E-01  8.50000000E-01  8.00000000E-01
  8.50000000E-01  8.50000000E-01  8.50000000E-01  8.00000000E-01  8.50000000E-01
  8.50000000E-01  8.50000000E-01  8.00000000E-01  8.50000000E-01  8.50000000E-01
  8.50000000E-01  8.00000000E-01  8.50000000E-01  8.50000000E-01  8.50000000E-01
  8.00000000E-01  8.50000000E-01  8.50000000E-01  8.50000000E-01  8.00000000E-01
  8.50000000E-01  8.50000000E-01  8.50000000E-01  8.00000000E-01  8.50000000E-01
  8.50000000E-01  8.50000000E-01  8.00000000E-01  8.50000000E-01  8.50000000E-01
  8.50000000E-01  8.00000000E-01  8.50000000E-01  8.50000000E-01  8.50000000E-01
  8.00000000E-01  8.50000000E-01  8.50000000E-01  8.50000000E-01  8.00000000E-01
  8.50000000E-01  8.50000000E-01  8.50000000E-01  8.00000000E-01  8.50000000E-01
  8.50000000E-01  8.50000000E-01  8.00000000E-01  8.50000000E-01  8.50000000E-01
  8.50000000E-01  8.00000000E-01  8.50000000E-01  8.50000000E-01  8.50000000E-01
  8.00000000E-01  8.50000000E-01  8.50000000E-01  8.50000000E-01  8.00000000E-01
  8.50000000E-01  8.50000000E-01  8.50000000E-01  8.00000000E-01  8.50000000E-01
  8.50000000E-01  8.50000000E-01  8.00000000E-01  8.50000000E-01  8.50000000E-01
  8.50000000E-01  8.00000000E-01  8.50000000E-01  8.50000000E-01  8.50000000E-01
  8.00000000E-01  8.50000000E-01  8.50000000E-01  8.50000000E-01  8.00000000E-01
  8.50000000E-01  8.50000000E-01  8.50000000E-01  8.00000000E-01  8.50000000E-01
  8.50000000E-01  8.50000000E-01  8.00000000E-01  8.50000000E-01  8.50000000E-01
  8.50000000E-01  8.00000000E-01  8.50000000E-01  8.50000000E-01  8.50000000E-01
  8.00000000E-01  8.50000000E-01  8.50000000E-01  8.50000000E-01  8.00000000E-01
  8.50000000E-01  8.50000000E-01  8.50000000E-01  8.00000000E-01  8.50000000E-01
  8.50000000E-01  8.50000000E-01  8.00000000E-01  8.50000000E-01  8.50000000E-01
  8.50000000E-01  8.00000000E-01  8.50000000E-01  8.50000000E-01  8.50000000E-01
  8.00000000E-01  8.50000000E-01  8.50000000E-01  8.50000000E-01  8.00000000E-01
  8.50000000E-01  8.50000000E-01  8.50000000E-01  8.00000000E-01  8.50000000E-01
  8.50000000E-01  8.50000000E-01  8.00000000E-01  8.50000000E-01  8.50000000E-01
  8.50000000E-01  8.00000000E-01  8.50000000E-01  8.50000000E-01  8.50000000E-01
  8.00000000E-01  8.50000000E-01  8.50000000E-01  8.50000000E-01  8.00000000E-01
  8.50000000E-01  8.50000000E-01  8.50000000E-01  8.00000000E-01  8.50000000E-01
  8.50000000E-01  8.50000000E-01  8.00000000E-01  8.50000000E-01  8.50000000E-01
  8.50000000E-01  8.00000000E-01  8.50000000E-01  8.50000000E-01  8.50000000E-01
  8.00000000E-01  8.50000000E-01  8.50000000E-01  8.50000000E-01  8.00000000E-01
  8.50000000E-01  8.50000000E-01  8.50000000E-01  8.00000000E-01  8.50000000E-01
  8.50000000E-01  8.50000000E-01  8.00000000E-01  8.50000000E-01  8.50000000E-01
  8.50000000E-01  8.00000000E-01  8.50000000E-01  8.50000000E-01  8.50000000E-01
  8.00000000E-01  8.50000000E-01  8.50000000E-01  8.50000000E-01  8.00000000E-01
  8.50000000E-01  8.50000000E-01  8.50000000E-01  8.00000000E-01  8.50000000E-01
  8.50000000E-01  8.50000000E-01  8.00000000E-01  8.50000000E-01  8.50000000E-01
  8.50000000E-01  8.00000000E-01  8.50000000E-01  8.50000000E-01  8.50000000E-01
  8.00000000E-01  8.50000000E-01  8.50000000E-01  8.50000000E-01  8.00000000E-01
  8.50000000E-01  8.50000000E-01  8.50000000E-01  8.00000000E-01  8.50000000E-01
  8.50000000E-01  8.50000000E-01  8.00000000E-01  8.50000000E-01  8.50000000E-01
  8.50000000E-01  8.00000000E-01  8.50000000E-01  8.50000000E-01  8.50000000E-01
  8.00000000E-01  8.50000000E-01  8.50000000E-01  8.50000000E-01  8.00000000E-01
  8.50000000E-01  8.50000000E-01  8.50000000E-01  8.00000000E-01  8.50000000E-01
  8.50000000E-01  8.50000000E-01  8.00000000E-01  8.50000000E-01  8.50000000E-01
  8.50000000E-01  8.00000000E-01  8.50000000E-01  8.50000000E-01  8.50000000E-01
  8.00000000E-01  8.50000000E-01  8.50000000E-01  8.50000000E-01  8.00000000E-01
  8.50000000E-01  8.50000000E-01  8.50000000E-01  8.00000000E-01  8.50000000E-01
  8.50000000E-01  8.50000000E-01  8.00000000E-01  8.50000000E-01  8.50000000E-01
  8.50000000E-01  8.00000000E-01  8.50000000E-01  8.50000000E-01  8.50000000E-01
  8.00000000E-01  8.50000000E-01  8.50000000E-01  8.50000000E-01  8.00000000E-01
  8.50000000E-01  8.50000000E-01  8.50000000E-01  8.00000000E-01  8.50000000E-01
  8.50000000E-01  8.50000000E-01  8.00000000E-01  8.50000000E-01  8.50000000E-01
  8.50000000E-01  8.00000000E-01  8.50000000E-01  8.50000000E-01  8.50000000E-01
  8.00000000E-01  8.50000000E-01  8.50000000E-01  8.50000000E-01  8.00000000E-01
  8.50000000E-01  8.50000000E-01  8.50000000E-01  8.00000000E-01  8.50000000E-01
  8.50000000E-01  8.50000000E-01  8.00000000E-01  8.50000000E-01  8.50000000E-01
  8.50000000E-01  8.00000000E-01  8.50000000E-01  8.50000000E-01  8.50000000E-01
  8.00000000E-01  8.50000000E-01  8.50000000E-01  8.50000000E-01  8.00000000E-01
  8.50000000E-01  8.50000000E-01  8.50000000E-01  8.00000000E-01  8.50000000E-01
  8.50000000E-01  8.50000000E-01  8.00000000E-01  8.50000000E-01  8.50000000E-01
  8.50000000E-01  8.00000000E-01  8.50000000E-01  8.50000000E-01  8.50000000E-01
  8.00000000E-01  8.50000000E-01  8.50000000E-01  8.50000000E-01  8.00000000E-01
  8.50000000E-01  8.50000000E-01  8.50000000E-01  8.00000000E-01  8.50000000E-01
  8.50000000E-01  8.50000000E-01  8.00000000E-01  8.50000000E-01  8.50000000E-01
  8.50000000E-01  8.00000000E-01  8.50000000E-01  8.50000000E-01  8.50000000E-01
  8.00000000E-01  8.50000000E-01  8.50000000E-01  8.50000000E-01  8.00000000E-01
  8.50000000E-01  8.50000000E-01  8.50000000E-01  8.00000000E-01  8.50000000E-01
  8.50000000E-01  8.50000000E-01  8.00000000E-01  8.50000000E-01  8.50000000E-01
  8.50000000E-01  8.00000000E-01  8.50000000E-01  8.50000000E-01  8.50000000E-01
  8.00000000E-01  8.50000000E-01  8.50000000E-01  8.50000000E-01  8.00000000E-01
  8.50000000E-01  8.50000000E-01  8.50000000E-01  8.00000000E-01  8.50000000E-01
  8.50000000E-01  8.50000000E-01  8.00000000E-01  8.50000000E-01  8.50000000E-01
  8.50000000E-01  8.00000000E-01  8.50000000E-01  8.50000000E-01  8.50000000E-01
  8.00000000E-01  8.50000000E-01  8.50000000E-01  8.50000000E-01  8.00000000E-01
  8.50000000E-01  8.50000000E-01  8.50000000E-01  8.00000000E-01  8.50000000E-01
  8.50000000E-01  8.50000000E-01  8.00000000E-01  8.50000000E-01  8.50000000E-01
  8.50000000E-01  8.00000000E-01  8.50000000E-01  8.50000000E-01  8.50000000E-01
  8.00000000E-01  8.50000000E-01  8.50000000E-01  8.50000000E-01  8.00000000E-01
  8.50000000E-01  8.50000000E-01  8.50000000E-01  8.00000000E-01  8.50000000E-01
  8.50000000E-01  8.50000000E-01  8.00000000E-01  8.50000000E-01  8.50000000E-01
  8.50000000E-01  8.00000000E-01  8.50000000E-01  8.50000000E-01  8.50000000E-01
  8.00000000E-01  8.50000000E-01  8.50000000E-01  8.50000000E-01  8.00000000E-01
  8.50000000E-01  8.50000000E-01  8.50000000E-01  8.00000000E-01  8.50000000E-01
  8.50000000E-01  8.50000000E-01  8.00000000E-01  8.50000000E-01  8.50000000E-01
  8.50000000E-01  8.00000000E-01  8.50000000E-01  8.50000000E-01  8.50000000E-01
  8.00000000E-01  8.50000000E-01  8.50000000E-01  8.50000000E-01  8.00000000E-01
  8.50000000E-01  8.50000000E-01  8.50000000E-01  8.00000000E-01  8.50000000E-01
  8.50000000E-01  8.50000000E-01  8.00000000E-01  8.50000000E-01  8.50000000E-01
  8.50000000E-01  8.00000000E-01  8.50000000E-01  8.50000000E-01  8.50000000E-01
  8.00000000E-01  8.50000000E-01  8.50000000E-01  8.50000000E-01  8.00000000E-01
  8.50000000E-01  8.50000000E-01  8.50000000E-01  8.00000000E-01  8.50000000E-01
  8.50000000E-01  8.50000000E-01  8.00000000E-01  8.50000000E-01  8.50000000E-01
  8.50000000E-01  8.00000000E-01  8.50000000E-01  8.50000000E-01  8.50000000E-01
  8.00000000E-01  8.50000000E-01  8.50000000E-01  8.50000000E-01  8.00000000E-01
  8.50000000E-01  8.50000000E-01  8.50000000E-01  8.00000000E-01  8.50000000E-01
  8.50000000E-01  8.50000000E-01  8.00000000E-01  8.50000000E-01  8.50000000E-01
  8.50000000E-01  8.00000000E-01  8.50000000E-01  8.50000000E-01  8.50000000E-01
  8.00000000E-01  8.50000000E-01  8.50000000E-01  8.50000000E-01  8.00000000E-01
  8.50000000E-01  8.50000000E-01  8.50000000E-01  8.00000000E-01  8.50000000E-01
  8.50000000E-01  8.50000000E-01  8.00000000E-01  8.50000000E-01  8.50000000E-01
  8.50000000E-01  8.00000000E-01  8.50000000E-01  8.50000000E-01  8.50000000E-01
  8.00000000E-01  8.50000000E-01  8.50000000E-01  8.50000000E-01  8.00000000E-01
  8.50000000E-01  8.50000000E-01  8.50000000E-01  8.00000000E-01  8.50000000E-01
  8.50000000E-01  8.50000000E-01  8.00000000E-01  8.50000000E-01  8.50000000E-01
  8.50000000E-01  8.00000000E-01  8.50000000E-01  8.50000000E-01  8.50000000E-01
  8.00000000E-01  8.50000000E-01  8.50000000E-01  8.50000000E-01  8.00000000E-01
  8.50000000E-01  8.50000000E-01  8.50000000E-01  8.00000000E-01  8.50000000E-01
  8.50000000E-01  8.50000000E-01  8.00000000E-01  8.50000000E-01  8.50000000E-01
  8.50000000E-01  8.00000000E-01  8.50000000E-01  8.50000000E-01  8.50000000E-01
  8.00000000E-01  8.50000000E-01  8.50000000E-01  8.50000000E-01  8.00000000E-01
  8.50000000E-01  8.50000000E-01  8.50000000E-01  8.00000000E-01  8.50000000E-01
  8.50000000E-01  8.50000000E-01  8.00000000E-01  8.50000000E-01  8.50000000E-01
  8.50000000E-01  8.00000000E-01  8.50000000E-01  8.50000000E-01  8.50000000E-01
  8.00000000E-01  8.50000000E-01  8.50000000E-01  8.50000000E-01  8.00000000E-01
  8.50000000E-01  8.50000000E-01  8.50000000E-01  8.00000000E-01  8.50000000E-01
  8.50000000E-01  8.50000000E-01  8.00000000E-01  8.50000000E-01  8.50000000E-01
  8.50000000E-01  8.00000000E-01  8.50000000E-01  8.50000000E-01  8.50000000E-01
  8.00000000E-01  8.50000000E-01  8.50000000E-01  8.50000000E-01  8.00000000E-01
  8.50000000E-01  8.50000000E-01  8.50000000E-01  8.00000000E-01  8.50000000E-01
  8.50000000E-01  8.50000000E-01  8.00000000E-01  8.50000000E-01  8.50000000E-01
  8.50000000E-01  8.00000000E-01  8.50000000E-01  8.50000000E-01  8.50000000E-01
  8.00000000E-01  8.50000000E-01  8.50000000E-01  8.50000000E-01  8.00000000E-01
  8.50000000E-01  8.50000000E-01  8.50000000E-01  8.00000000E-01  8.50000000E-01
  8.50000000E-01  8.50000000E-01  8.00000000E-01  8.50000000E-01  8.50000000E-01
  8.50000000E-01  8.00000000E-01  8.50000000E-01  8.50000000E-01  8.50000000E-01
  8.00000000E-01  8.50000000E-01  8.50000000E-01  8.50000000E-01  8.00000000E-01
  8.50000000E-01  8.50000000E-01  8.50000000E-01  8.00000000E-01  8.50000000E-01
  8.50000000E-01  8.50000000E-01  8.00000000E-01  8.50000000E-01  8.50000000E-01
  8.50000000E-01  8.00000000E-01  8.50000000E-01  8.50000000E-01  8.50000000E-01
  8.00000000E-01  8.50000000E-01  8.50000000E-01  8.50000000E-01  8.00000000E-01
  8.50000000E-01  8.50000000E-01  8.50000000E-01  8.00000000E-01  8.50000000E-01
  8.50000000E-01  8.50000000E-01  8.00000000E-01  8.50000000E-01  8.50000000E-01
  8.50000000E-01  8.00000000E-01  8.50000000E-01  8.50000000E-01  8.50000000E-01
  8.00000000E-01  8.50000000E-01  8.50000000E-01  8.50000000E-01  8.00000000E-01
  8.50000000E-01  8.50000000E-01  8.50000000E-01  8.00000000E-01  8.50000000E-01
  8.50000000E-01  8.50000000E-01  8.00000000E-01  8.50000000E-01  8.50000000E-01
  8.50000000E-01  8.00000000E-01  8.50000000E-01  8.50000000E-01  8.50000000E-01
  8.00000000E-01  8.50000000E-01  8.50000000E-01  8.50000000E-01  8.00000000E-01
  8.50000000E-01  8.50000000E-01  8.50000000E-01  8.00000000E-01  8.50000000E-01
  8.50000000E-01  8.50000000E-01  8.00000000E-01  8.50000000E-01  8.50000000E-01
  8.50000000E-01  8.00000000E-01  8.50000000E-01  8.50000000E-01  8.50000000E-01
  8.00000000E-01  8.50000000E-01  8.50000000E-01  8.50000000E-01  8.00000000E-01
  8.50000000E-01  8.50000000E-01  8.50000000E-01  8.00000000E-01  8.50000000E-01
  8.50000000E-01  8.50000000E-01  8.00000000E-01  8.50000000E-01  8.50000000E-01
  8.50000000E-01  8.00000000E-01  8.50000000E-01  8.50000000E-01  8.50000000E-01
  8.00000000E-01  8.50000000E-01  8.50000000E-01  8.50000000E-01  8.00000000E-01
  8.50000000E-01  8.50000000E-01  8.50000000E-01  8.00000000E-01  8.50000000E-01
  8.50000000E-01  8.50000000E-01  8.00000000E-01  8.50000000E-01  8.50000000E-01
  8.50000000E-01  8.00000000E-01  8.50000000E-01  8.50000000E-01  8.50000000E-01
  8.00000000E-01  8.50000000E-01  8.50000000E-01  8.50000000E-01  8.00000000E-01
  8.50000000E-01  8.50000000E-01  8.50000000E-01  8.00000000E-01  8.50000000E-01
  8.50000000E-01  8.50000000E-01  8.00000000E-01  8.50000000E-01  8.50000000E-01
  8.50000000E-01  8.00000000E-01  8.50000000E-01  8.50000000E-01  8.50000000E-01
  8.00000000E-01  8.50000000E-01  8.50000000E-01  8.50000000E-01  8.00000000E-01
  8.50000000E-01  8.50000000E-01  8.50000000E-01  8.00000000E-01  8.50000000E-01
  8.50000000E-01  8.50000000E-01  8.00000000E-01  8.50000000E-01  8.50000000E-01
  8.50000000E-01  8.00000000E-01  8.50000000E-01  8.50000000E-01  8.50000000E-01
  8.00000000E-01  8.50000000E-01  8.50000000E-01  8.50000000E-01  8.00000000E-01
  8.50000000E-01  8.50000000E-01  8.50000000E-01  8.00000000E-01  8.50000000E-01
  8.50000000E-01  8.50000000E-01  8.00000000E-01  8.50000000E-01  8.50000000E-01
  8.50000000E-01  8.00000000E-01  8.50000000E-01  8.50000000E-01  8.50000000E-01
  8.00000000E-01  8.50000000E-01  8.50000000E-01  8.50000000E-01  8.00000000E-01
  8.50000000E-01  8.50000000E-01  8.50000000E-01  8.00000000E-01  8.50000000E-01
  8.50000000E-01  8.50000000E-01  8.00000000E-01  8.50000000E-01  8.50000000E-01
  8.50000000E-01  8.00000000E-01  8.50000000E-01  8.50000000E-01  8.50000000E-01
  8.00000000E-01  8.50000000E-01  8.50000000E-01  8.50000000E-01  8.00000000E-01
  8.50000000E-01  8.50000000E-01  8.50000000E-01  8.00000000E-01  8.50000000E-01
  8.50000000E-01  8.50000000E-01  8.00000000E-01  8.50000000E-01  8.50000000E-01
  8.50000000E-01  8.00000000E-01  8.50000000E-01  8.50000000E-01  8.50000000E-01
  8.00000000E-01  8.50000000E-01  8.50000000E-01  8.50000000E-01  8.00000000E-01
  8.50000000E-01  8.50000000E-01  8.50000000E-01  8.00000000E-01  8.50000000E-01
  8.50000000E-01  8.50000000E-01  8.00000000E-01  8.50000000E-01  8.50000000E-01
  8.50000000E-01  8.00000000E-01  8.50000000E-01  8.50000000E-01  8.50000000E-01
  8.00000000E-01  8.50000000E-01  8.50000000E-01  8.50000000E-01  8.00000000E-01
  8.50000000E-01  8.50000000E-01  8.50000000E-01  8.00000000E-01  8.50000000E-01
  8.50000000E-01  8.50000000E-01  8.00000000E-01  8.50000000E-01  8.50000000E-01
  8.50000000E-01  8.00000000E-01  8.50000000E-01  8.50000000E-01  8.50000000E-01
  8.00000000E-01  8.50000000E-01  8.50000000E-01  8.50000000E-01  8.00000000E-01
  8.50000000E-01  8.50000000E-01  8.50000000E-01  8.00000000E-01  8.50000000E-01
  8.50000000E-01  8.50000000E-01  8.00000000E-01  8.50000000E-01  8.50000000E-01
  8.50000000E-01  8.00000000E-01  8.50000000E-01  8.50000000E-01  8.50000000E-01
  8.00000000E-01  8.50000000E-01  8.50000000E-01  8.50000000E-01  8.00000000E-01
  8.50000000E-01  8.50000000E-01  8.50000000E-01  8.00000000E-01  8.50000000E-01
  8.50000000E-01  8.50000000E-01  8.00000000E-01  8.50000000E-01  8.50000000E-01
  8.50000000E-01  8.00000000E-01  8.50000000E-01  8.50000000E-01  8.50000000E-01
  8.00000000E-01  8.50000000E-01  8.50000000E-01  8.50000000E-01  8.00000000E-01
  8.50000000E-01  8.50000000E-01  8.50000000E-01  8.00000000E-01  8.50000000E-01
  8.50000000E-01  8.50000000E-01  8.00000000E-01  8.50000000E-01  8.50000000E-01
  8.50000000E-01  8.00000000E-01  8.50000000E-01  8.50000000E-01  8.50000000E-01
  8.00000000E-01  8.50000000E-01  8.50000000E-01  8.50000000E-01  8.00000000E-01
  8.50000000E-01  8.50000000E-01  8.50000000E-01  8.00000000E-01  8.50000000E-01
  8.50000000E-01  8.50000000E-01  8.00000000E-01  8.50000000E-01  8.50000000E-01
  8.50000000E-01  8.00000000E-01  8.50000000E-01  8.50000000E-01  8.50000000E-01
  8.00000000E-01  8.50000000E-01  8.50000000E-01  8.50000000E-01  8.00000000E-01
  8.50000000E-01  8.50000000E-01  8.50000000E-01  8.00000000E-01  8.50000000E-01
  8.50000000E-01  8.50000000E-01  8.00000000E-01  8.50000000E-01  8.50000000E-01
  8.50000000E-01  8.00000000E-01  8.50000000E-01  8.50000000E-01  8.50000000E-01
  8.00000000E-01  8.50000000E-01  8.50000000E-01  8.50000000E-01  8.00000000E-01
  8.50000000E-01  8.50000000E-01  8.50000000E-01  8.00000000E-01  8.50000000E-01
  8.50000000E-01  8.50000000E-01  8.00000000E-01  8.50000000E-01  8.50000000E-01
  8.50000000E-01  8.00000000E-01  8.50000000E-01  8.50000000E-01  8.50000000E-01
  8.00000000E-01  8.50000000E-01  8.50000000E-01  8.50000000E-01  8.00000000E-01
  8.50000000E-01  8.50000000E-01  8.50000000E-01  8.00000000E-01  8.50000000E-01
  8.50000000E-01  8.50000000E-01  8.00000000E-01  8.50000000E-01  8.50000000E-01
  8.50000000E-01  8.00000000E-01  8.50000000E-01  8.50000000E-01  8.50000000E-01
  8.00000000E-01  8.50000000E-01  8.50000000E-01  8.50000000E-01  8.00000000E-01
  8.50000000E-01  8.50000000E-01  8.50000000E-01  8.00000000E-01  8.50000000E-01
  8.50000000E-01  8.50000000E-01  8.00000000E-01  8.50000000E-01  8.50000000E-01
  8.50000000E-01  8.00000000E-01  8.50000000E-01  8.50000000E-01  8.50000000E-01
  8.00000000E-01  8.50000000E-01  8.50000000E-01  8.50000000E-01  8.00000000E-01
  8.50000000E-01  8.50000000E-01  8.50000000E-01  8.00000000E-01  8.50000000E-01
  8.50000000E-01  8.50000000E-01  8.00000000E-01  8.50000000E-01  8.50000000E-01
  8.50000000E-01  8.00000000E-01  8.50000000E-01  8.50000000E-01  8.50000000E-01
  8.00000000E-01  8.50000000E-01  8.50000000E-01  8.50000000E-01  8.00000000E-01
  8.50000000E-01  8.50000000E-01  8.50000000E-01  8.00000000E-01  8.50000000E-01
  8.50000000E-01  8.50000000E-01  8.00000000E-01  8.50000000E-01  8.50000000E-01
  8.50000000E-01  8.00000000E-01  8.50000000E-01  8.50000000E-01  8.50000000E-01
  8.00000000E-01  8.50000000E-01  8.50000000E-01  8.50000000E-01  8.00000000E-01
  8.50000000E-01  8.50000000E-01  8.50000000E-01  8.00000000E-01  8.50000000E-01
  8.50000000E-01  8.50000000E-01  8.00000000E-01  8.50000000E-01  8.50000000E-01
  8.50000000E-01  8.00000000E-01  8.50000000E-01  8.50000000E-01  8.50000000E-01
  8.00000000E-01  8.50000000E-01  8.50000000E-01  8.50000000E-01  8.00000000E-01
  8.50000000E-01  8.50000000E-01  8.50000000E-01  8.00000000E-01  8.50000000E-01
  8.50000000E-01  8.50000000E-01  8.00000000E-01  8.50000000E-01  8.50000000E-01
  8.50000000E-01  8.00000000E-01  8.50000000E-01  8.50000000E-01  8.50000000E-01
  8.00000000E-01  8.50000000E-01  8.50000000E-01  8.50000000E-01  8.00000000E-01
  8.50000000E-01  8.50000000E-01  8.50000000E-01  8.00000000E-01  8.50000000E-01
  8.50000000E-01  8.50000000E-01  8.00000000E-01  8.50000000E-01  8.50000000E-01
  8.50000000E-01  8.00000000E-01  8.50000000E-01  8.50000000E-01  8.50000000E-01
  8.00000000E-01  8.50000000E-01  8.50000000E-01  8.50000000E-01  8.00000000E-01
  8.50000000E-01  8.50000000E-01  8.50000000E-01  8.00000000E-01  8.50000000E-01
  8.50000000E-01  8.50000000E-01  8.00000000E-01  8.50000000E-01  8.50000000E-01
  8.50000000E-01  8.00000000E-01  8.50000000E-01  8.50000000E-01  8.50000000E-01
  8.00000000E-01  8.50000000E-01  8.50000000E-01  8.50000000E-01  8.00000000E-01
  8.50000000E-01  8.50000000E-01  8.50000000E-01  8.00000000E-01  8.50000000E-01
  8.50000000E-01  8.50000000E-01  8.00000000E-01  8.50000000E-01  8.50000000E-01
  8.50000000E-01  8.00000000E-01  8.50000000E-01  8.50000000E-01  8.50000000E-01
  8.00000000E-01  8.50000000E-01  8.50000000E-01  8.50000000E-01  8.00000000E-01
  8.50000000E-01  8.50000000E-01  8.50000000E-01  8.00000000E-01  8.50000000E-01
  8.50000000E-01  8.50000000E-01  8.00000000E-01  8.50000000E-01  8.50000000E-01
  8.50000000E-01  8.00000000E-01  8.50000000E-01  8.50000000E-01  8.50000000E-01
  8.00000000E-01  8.50000000E-01  8.50000000E-01  8.50000000E-01  8.00000000E-01
  8.50000000E-01  8.50000000E-01  8.50000000E-01  8.00000000E-01  8.50000000E-01
  8.50000000E-01  8.50000000E-01  8.00000000E-01  8.50000000E-01  8.50000000E-01
  8.50000000E-01  8.00000000E-01  8.50000000E-01  8.50000000E-01  8.50000000E-01
  8.00000000E-01  8.50000000E-01  8.50000000E-01  8.50000000E-01  8.00000000E-01
  8.50000000E-01  8.50000000E-01  8.50000000E-01  8.00000000E-01  8.50000000E-01
  8.50000000E-01  8.50000000E-01  8.00000000E-01  8.50000000E-01  8.50000000E-01
  8.50000000E-01  8.00000000E-01  8.50000000E-01  8.50000000E-01  8.50000000E-01
  8.00000000E-01  8.50000000E-01  8.50000000E-01  8.50000000E-01  8.00000000E-01
  8.50000000E-01  8.50000000E-01  8.50000000E-01  8.00000000E-01  8.50000000E-01
  8.50000000E-01  8.50000000E-01  8.00000000E-01  8.50000000E-01  8.50000000E-01
  8.50000000E-01  8.00000000E-01  8.50000000E-01  8.50000000E-01  8.50000000E-01
  8.00000000E-01  8.50000000E-01  8.50000000E-01  8.50000000E-01  8.00000000E-01
  8.50000000E-01  8.50000000E-01  8.50000000E-01  8.00000000E-01  8.50000000E-01
  8.50000000E-01  8.50000000E-01  8.00000000E-01  8.50000000E-01  8.50000000E-01
  8.50000000E-01  8.00000000E-01  8.50000000E-01  8.50000000E-01  8.50000000E-01
  8.00000000E-01  8.50000000E-01  8.50000000E-01  8.50000000E-01  8.00000000E-01
  8.50000000E-01  8.50000000E-01  8.50000000E-01  8.00000000E-01  8.50000000E-01
  8.50000000E-01  8.50000000E-01  8.00000000E-01  8.50000000E-01  8.50000000E-01
  8.50000000E-01  8.00000000E-01  8.50000000E-01  8.50000000E-01  8.50000000E-01
  8.00000000E-01  8.50000000E-01  8.50000000E-01  8.50000000E-01  8.00000000E-01
  8.50000000E-01  8.50000000E-01  8.50000000E-01  8.00000000E-01  8.50000000E-01
  8.50000000E-01  8.50000000E-01  8.00000000E-01  8.50000000E-01  8.50000000E-01
  8.50000000E-01  8.00000000E-01  8.50000000E-01  8.50000000E-01  8.50000000E-01
  8.00000000E-01  8.50000000E-01  8.50000000E-01  8.50000000E-01  8.00000000E-01
  8.50000000E-01  8.50000000E-01  8.50000000E-01  8.00000000E-01  8.50000000E-01
  8.50000000E-01  8.50000000E-01  8.00000000E-01  8.50000000E-01  8.50000000E-01
  8.50000000E-01  8.00000000E-01  8.50000000E-01  8.50000000E-01  8.50000000E-01
  8.00000000E-01  8.50000000E-01  8.50000000E-01  8.50000000E-01  8.00000000E-01
  8.50000000E-01  8.50000000E-01  8.50000000E-01  8.00000000E-01  8.50000000E-01
  8.50000000E-01  8.50000000E-01  8.00000000E-01  8.50000000E-01  8.50000000E-01
  8.50000000E-01  8.00000000E-01  8.50000000E-01  8.50000000E-01  8.50000000E-01
  8.00000000E-01  8.50000000E-01  8.50000000E-01  8.50000000E-01  8.00000000E-01
  8.50000000E-01  8.50000000E-01  8.50000000E-01  8.00000000E-01  8.50000000E-01
  8.50000000E-01  8.50000000E-01  8.00000000E-01  8.50000000E-01  8.50000000E-01
  8.50000000E-01  8.00000000E-01  8.50000000E-01  8.50000000E-01  8.50000000E-01
  8.00000000E-01  8.50000000E-01  8.50000000E-01  8.50000000E-01  8.00000000E-01
  8.50000000E-01  8.50000000E-01  8.50000000E-01  8.00000000E-01  8.50000000E-01
  8.50000000E-01  8.50000000E-01  8.00000000E-01  8.50000000E-01  8.50000000E-01
  8.50000000E-01  8.00000000E-01  8.50000000E-01  8.50000000E-01  8.50000000E-01
  8.00000000E-01  8.50000000E-01  8.50000000E-01  8.50000000E-01  8.00000000E-01
  8.50000000E-01  8.50000000E-01  8.50000000E-01  8.00000000E-01  8.50000000E-01
  8.50000000E-01  8.50000000E-01  8.00000000E-01  8.50000000E-01  8.50000000E-01
  8.50000000E-01  8.00000000E-01  8.50000000E-01  8.50000000E-01  8.50000000E-01
  8.00000000E-01  8.50000000E-01  8.50000000E-01  8.50000000E-01  8.00000000E-01
  8.50000000E-01  8.50000000E-01  8.50000000E-01  8.00000000E-01  8.50000000E-01
  8.50000000E-01  8.50000000E-01  8.00000000E-01  8.50000000E-01  8.50000000E-01
  8.50000000E-01  8.00000000E-01  8.50000000E-01  8.50000000E-01  8.50000000E-01
  8.00000000E-01  8.50000000E-01  8.50000000E-01  8.50000000E-01  8.00000000E-01
  8.50000000E-01  8.50000000E-01  8.50000000E-01  8.00000000E-01  8.50000000E-01
  8.50000000E-01  8.50000000E-01  8.00000000E-01  8.50000000E-01  8.50000000E-01
  8.50000000E-01  8.00000000E-01  8.50000000E-01  8.50000000E-01  8.50000000E-01
  8.00000000E-01  8.50000000E-01  8.50000000E-01  8.50000000E-01  8.00000000E-01
  8.50000000E-01  8.50000000E-01  8.50000000E-01  8.00000000E-01  8.50000000E-01
  8.50000000E-01  8.50000000E-01  8.00000000E-01  8.50000000E-01  8.50000000E-01
  8.50000000E-01  8.00000000E-01  8.50000000E-01  8.50000000E-01  8.50000000E-01
  8.00000000E-01  8.50000000E-01  8.50000000E-01  8.50000000E-01  8.00000000E-01
  8.50000000E-01  8.50000000E-01  8.50000000E-01  8.00000000E-01  8.50000000E-01
  8.50000000E-01  8.50000000E-01  8.00000000E-01  8.50000000E-01  8.50000000E-01
  8.50000000E-01  8.00000000E-01  8.50000000E-01  8.50000000E-01  8.50000000E-01
  8.00000000E-01  8.50000000E-01  8.50000000E-01  8.50000000E-01  8.00000000E-01
  8.50000000E-01  8.50000000E-01  8.50000000E-01  8.00000000E-01  8.50000000E-01
  8.50000000E-01  8.50000000E-01  8.00000000E-01  8.50000000E-01  8.50000000E-01
  8.50000000E-01  8.00000000E-01  8.50000000E-01  8.50000000E-01  8.50000000E-01
  8.00000000E-01  8.50000000E-01  8.50000000E-01  8.50000000E-01  8.00000000E-01
  8.50000000E-01  8.50000000E-01  8.50000000E-01  8.00000000E-01  8.50000000E-01
  8.50000000E-01  8.50000000E-01  8.00000000E-01  8.50000000E-01  8.50000000E-01
  8.50000000E-01  8.00000000E-01  8.50000000E-01  8.50000000E-01  8.50000000E-01
  8.00000000E-01  8.50000000E-01  8.50000000E-01  8.50000000E-01  8.00000000E-01
  8.50000000E-01  8.50000000E-01  8.50000000E-01  8.00000000E-01  8.50000000E-01
  8.50000000E-01  8.50000000E-01  8.00000000E-01  8.50000000E-01  8.50000000E-01
  8.50000000E-01  8.00000000E-01  8.50000000E-01  8.50000000E-01  8.50000000E-01
  8.00000000E-01  8.50000000E-01  8.50000000E-01  8.50000000E-01  8.00000000E-01
  8.50000000E-01  8.50000000E-01  8.50000000E-01  8.00000000E-01  8.50000000E-01
  8.50000000E-01  8.50000000E-01  8.00000000E-01  8.50000000E-01  8.50000000E-01
  8.50000000E-01  8.00000000E-01  8.50000000E-01  8.50000000E-01  8.50000000E-01
  8.00000000E-01  8.50000000E-01  8.50000000E-01  8.50000000E-01  8.00000000E-01
  8.50000000E-01  8.50000000E-01  8.50000000E-01  8.00000000E-01  8.50000000E-01
  8.50000000E-01  8.50000000E-01  8.00000000E-01  8.50000000E-01  8.50000000E-01
  8.50000000E-01  8.00000000E-01  8.50000000E-01  8.50000000E-01  8.50000000E-01
  8.00000000E-01  8.50000000E-01  8.50000000E-01  8.50000000E-01  8.00000000E-01
  8.50000000E-01  8.50000000E-01  8.50000000E-01  8.00000000E-01  8.50000000E-01
  8.50000000E-01  8.50000000E-01  8.00000000E-01  8.50000000E-01  8.50000000E-01
  8.50000000E-01  8.00000000E-01  8.50000000E-01  8.50000000E-01  8.50000000E-01
  8.00000000E-01  8.50000000E-01  8.50000000E-01  8.50000000E-01  8.00000000E-01
  8.50000000E-01  8.50000000E-01  8.50000000E-01  8.00000000E-01  8.50000000E-01
  8.50000000E-01  8.50000000E-01  8.00000000E-01  8.50000000E-01  8.50000000E-01
  8.50000000E-01  8.00000000E-01  8.50000000E-01  8.50000000E-01  8.50000000E-01
  8.00000000E-01  8.50000000E-01  8.50000000E-01  8.50000000E-01  8.00000000E-01
  8.50000000E-01  8.50000000E-01  8.50000000E-01  8.00000000E-01  8.50000000E-01
  8.50000000E-01  8.50000000E-01  8.00000000E-01  8.50000000E-01  8.50000000E-01
  8.50000000E-01  8.00000000E-01  8.50000000E-01  8.50000000E-01  8.50000000E-01
  8.00000000E-01  8.50000000E-01  8.50000000E-01  8.50000000E-01  8.00000000E-01
  8.50000000E-01  8.50000000E-01  8.50000000E-01  8.00000000E-01  8.50000000E-01
  8.50000000E-01  8.50000000E-01  8.00000000E-01  8.50000000E-01  8.50000000E-01
  8.50000000E-01  8.00000000E-01  8.50000000E-01  8.50000000E-01  8.50000000E-01
  8.00000000E-01  8.50000000E-01  8.50000000E-01  8.50000000E-01  8.00000000E-01
  8.50000000E-01  8.50000000E-01  8.50000000E-01  8.00000000E-01  8.50000000E-01
  8.50000000E-01  8.50000000E-01  8.00000000E-01  8.50000000E-01  8.50000000E-01
  8.50000000E-01  8.00000000E-01  8.50000000E-01  8.50000000E-01  8.50000000E-01
  8.00000000E-01  8.50000000E-01  8.50000000E-01  8.50000000E-01  8.00000000E-01
  8.50000000E-01  8.50000000E-01  8.50000000E-01  8.00000000E-01  8.50000000E-01
  8.50000000E-01  8.50000000E-01  8.00000000E-01  8.50000000E-01  8.50000000E-01
  8.50000000E-01  8.00000000E-01  8.50000000E-01  8.50000000E-01  8.50000000E-01
  8.00000000E-01  8.50000000E-01  8.50000000E-01  8.50000000E-01  8.00000000E-01
  8.50000000E-01  8.50000000E-01  8.50000000E-01  8.00000000E-01  8.50000000E-01
  8.50000000E-01  8.50000000E-01  8.00000000E-01  8.50000000E-01  8.50000000E-01
  8.50000000E-01  8.00000000E-01  8.50000000E-01  8.50000000E-01  8.50000000E-01
  8.00000000E-01  8.50000000E-01  8.50000000E-01  8.50000000E-01  8.00000000E-01
  8.50000000E-01  8.50000000E-01  8.50000000E-01  8.00000000E-01  8.50000000E-01
  8.50000000E-01  8.50000000E-01  8.00000000E-01  8.50000000E-01  8.50000000E-01
  8.50000000E-01  8.00000000E-01  8.50000000E-01  8.50000000E-01  8.50000000E-01
  8.00000000E-01  8.50000000E-01  8.50000000E-01  8.50000000E-01  8.00000000E-01
  8.50000000E-01  8.50000000E-01  8.50000000E-01  8.00000000E-01  8.50000000E-01
  8.50000000E-01  8.50000000E-01  8.00000000E-01  8.50000000E-01  8.50000000E-01
  8.50000000E-01  8.00000000E-01  8.50000000E-01  8.50000000E-01  8.50000000E-01
  8.00000000E-01  8.50000000E-01  8.50000000E-01  8.50000000E-01  8.00000000E-01
  8.50000000E-01  8.50000000E-01  8.50000000E-01  8.00000000E-01  8.50000000E-01
  8.50000000E-01  8.50000000E-01  8.00000000E-01  8.50000000E-01  8.50000000E-01
  8.50000000E-01  8.00000000E-01  8.50000000E-01  8.50000000E-01  8.50000000E-01
  8.00000000E-01  8.50000000E-01  8.50000000E-01  8.50000000E-01  8.00000000E-01
  8.50000000E-01  8.50000000E-01  8.50000000E-01  8.00000000E-01  8.50000000E-01
  8.50000000E-01  8.50000000E-01  8.00000000E-01  8.50000000E-01  8.50000000E-01
  8.50000000E-01  8.00000000E-01  8.50000000E-01  8.50000000E-01  8.50000000E-01
  8.00000000E-01  8.50000000E-01  8.50000000E-01  8.50000000E-01  8.00000000E-01
  8.50000000E-01  8.50000000E-01  8.50000000E-01  8.00000000E-01  8.50000000E-01
  8.50000000E-01  8.50000000E-01  8.00000000E-01  8.50000000E-01  8.50000000E-01
  8.50000000E-01  8.00000000E-01  8.50000000E-01  8.50000000E-01  8.50000000E-01
  8.00000000E-01  8.50000000E-01  8.50000000E-01  8.50000000E-01  8.00000000E-01
  8.50000000E-01  8.50000000E-01  8.50000000E-01  8.00000000E-01  8.50000000E-01
  8.50000000E-01  8.50000000E-01  8.00000000E-01  8.50000000E-01  8.50000000E-01
  8.50000000E-01  8.00000000E-01  8.50000000E-01  8.50000000E-01  8.50000000E-01
  8.00000000E-01  8.50000000E-01  8.50000000E-01  8.50000000E-01  8.00000000E-01
  8.50000000E-01  8.50000000E-01  8.50000000E-01  8.00000000E-01  8.50000000E-01
  8.50000000E-01  8.50000000E-01  8.00000000E-01  8.50000000E-01  8.50000000E-01
  8.50000000E-01  8.00000000E-01  8.50000000E-01  8.50000000E-01  8.50000000E-01
  8.00000000E-01  8.50000000E-01  8.50000000E-01  8.50000000E-01  8.00000000E-01
  8.50000000E-01  8.50000000E-01  8.50000000E-01  8.00000000E-01  8.50000000E-01
  8.50000000E-01  8.50000000E-01  8.00000000E-01  8.50000000E-01  8.50000000E-01
  8.50000000E-01  8.00000000E-01  8.50000000E-01  8.50000000E-01  8.50000000E-01
  8.00000000E-01  8.50000000E-01  8.50000000E-01  8.50000000E-01  8.00000000E-01
  8.50000000E-01  8.50000000E-01  8.50000000E-01  8.00000000E-01  8.50000000E-01
  8.50000000E-01  8.50000000E-01  8.00000000E-01  8.50000000E-01  8.50000000E-01
  8.50000000E-01  8.00000000E-01  8.50000000E-01  8.50000000E-01  8.50000000E-01
  8.00000000E-01  8.50000000E-01  8.50000000E-01  8.50000000E-01  8.00000000E-01
  8.50000000E-01  8.50000000E-01  8.50000000E-01  8.00000000E-01  8.50000000E-01
  8.50000000E-01  8.50000000E-01  8.00000000E-01  8.50000000E-01  8.50000000E-01
  8.50000000E-01  8.00000000E-01  8.50000000E-01  8.50000000E-01  8.50000000E-01
  8.00000000E-01  8.50000000E-01  8.50000000E-01  8.50000000E-01  8.00000000E-01
  8.50000000E-01  8.50000000E-01  8.50000000E-01  8.00000000E-01  8.50000000E-01
  8.50000000E-01  8.50000000E-01  8.00000000E-01  8.50000000E-01  8.50000000E-01
  8.50000000E-01  8.00000000E-01  8.50000000E-01  8.50000000E-01  8.50000000E-01
  8.00000000E-01  8.50000000E-01  8.50000000E-01  8.50000000E-01  8.00000000E-01
  8.50000000E-01  8.50000000E-01  8.50000000E-01  8.00000000E-01  8.50000000E-01
  8.50000000E-01  8.50000000E-01  8.00000000E-01  8.50000000E-01  8.50000000E-01
  8.50000000E-01  8.00000000E-01  8.50000000E-01  8.50000000E-01  8.50000000E-01
  8.00000000E-01  8.50000000E-01  8.50000000E-01  8.50000000E-01  8.00000000E-01
  8.50000000E-01  8.50000000E-01  8.50000000E-01  8.00000000E-01  8.50000000E-01
  8.50000000E-01  8.50000000E-01  8.00000000E-01  8.50000000E-01  8.50000000E-01
  8.50000000E-01  8.00000000E-01  8.50000000E-01  8.50000000E-01  8.50000000E-01
  8.00000000E-01  8.50000000E-01  8.50000000E-01  8.50000000E-01  8.00000000E-01
  8.50000000E-01  8.50000000E-01  8.50000000E-01  8.00000000E-01  8.50000000E-01
  8.50000000E-01  8.50000000E-01  8.00000000E-01  8.50000000E-01  8.50000000E-01
  8.50000000E-01  8.00000000E-01  8.50000000E-01  8.50000000E-01  8.50000000E-01
  8.00000000E-01  8.50000000E-01  8.50000000E-01  8.50000000E-01  8.00000000E-01
  8.50000000E-01  8.50000000E-01  8.50000000E-01  8.00000000E-01  8.50000000E-01
  8.50000000E-01  8.50000000E-01  8.00000000E-01  8.50000000E-01  8.50000000E-01
  8.50000000E-01  8.00000000E-01  8.50000000E-01  8.50000000E-01  8.50000000E-01
  8.00000000E-01  8.50000000E-01  8.50000000E-01  8.50000000E-01  8.00000000E-01
  8.50000000E-01  8.50000000E-01  8.50000000E-01  8.00000000E-01  8.50000000E-01
  8.50000000E-01  8.50000000E-01  8.00000000E-01  8.50000000E-01  8.50000000E-01
  8.50000000E-01  8.00000000E-01  8.50000000E-01  8.50000000E-01  8.50000000E-01
  8.00000000E-01  8.50000000E-01  8.50000000E-01  8.50000000E-01  8.00000000E-01
  8.50000000E-01  8.50000000E-01  8.50000000E-01  8.00000000E-01  8.50000000E-01
  8.50000000E-01  8.50000000E-01  8.00000000E-01  8.50000000E-01  8.50000000E-01
  8.50000000E-01  8.00000000E-01  8.50000000E-01  8.50000000E-01  8.50000000E-01
  8.00000000E-01  8.50000000E-01  8.50000000E-01  8.50000000E-01  8.00000000E-01
  8.50000000E-01  8.50000000E-01  8.50000000E-01  8.00000000E-01  8.50000000E-01
  8.50000000E-01  8.50000000E-01  8.00000000E-01  8.50000000E-01  8.50000000E-01
  8.50000000E-01  8.00000000E-01  8.50000000E-01  8.50000000E-01  8.50000000E-01
  8.00000000E-01  8.50000000E-01  8.50000000E-01  8.50000000E-01  8.00000000E-01
  8.50000000E-01  8.50000000E-01  8.50000000E-01  8.00000000E-01  8.50000000E-01
  8.50000000E-01  8.50000000E-01  8.00000000E-01  8.50000000E-01  8.50000000E-01
  8.50000000E-01  8.00000000E-01  8.50000000E-01  8.50000000E-01  8.50000000E-01
  8.00000000E-01  8.50000000E-01  8.50000000E-01  8.50000000E-01  8.00000000E-01
  8.50000000E-01  8.50000000E-01  8.50000000E-01  8.00000000E-01  8.50000000E-01
  8.50000000E-01  8.50000000E-01  8.00000000E-01  8.50000000E-01  8.50000000E-01
  8.50000000E-01  8.00000000E-01  8.50000000E-01  8.50000000E-01  8.50000000E-01
  8.00000000E-01  8.50000000E-01  8.50000000E-01  8.50000000E-01  8.00000000E-01
  8.50000000E-01  8.50000000E-01  8.50000000E-01  8.00000000E-01  8.50000000E-01
  8.50000000E-01  8.50000000E-01  8.00000000E-01  8.50000000E-01  8.50000000E-01
  8.50000000E-01  8.00000000E-01  8.50000000E-01  8.50000000E-01  8.50000000E-01
  8.00000000E-01  8.50000000E-01  8.50000000E-01  8.50000000E-01  8.00000000E-01
  8.50000000E-01  8.50000000E-01  8.50000000E-01  8.00000000E-01  8.50000000E-01
  8.50000000E-01  8.50000000E-01  8.00000000E-01  8.50000000E-01  8.50000000E-01
  8.50000000E-01  8.00000000E-01  8.50000000E-01  8.50000000E-01  8.50000000E-01
  8.00000000E-01  8.50000000E-01  8.50000000E-01  8.50000000E-01  8.00000000E-01
  8.50000000E-01  8.50000000E-01  8.50000000E-01  8.00000000E-01  8.50000000E-01
  8.50000000E-01  8.50000000E-01  8.00000000E-01  8.50000000E-01  8.50000000E-01
  8.50000000E-01  8.00000000E-01  8.50000000E-01  8.50000000E-01  8.50000000E-01
  8.00000000E-01  8.50000000E-01  8.50000000E-01  8.50000000E-01  8.00000000E-01
  8.50000000E-01  8.50000000E-01  8.50000000E-01  8.00000000E-01  8.50000000E-01
  8.50000000E-01  8.50000000E-01  8.00000000E-01  8.50000000E-01  8.50000000E-01
  8.50000000E-01  8.00000000E-01  8.50000000E-01  8.50000000E-01  8.50000000E-01
  8.00000000E-01  8.50000000E-01  8.50000000E-01  8.50000000E-01  8.00000000E-01
  8.50000000E-01  8.50000000E-01  8.50000000E-01  8.00000000E-01  8.50000000E-01
  8.50000000E-01  8.50000000E-01  8.00000000E-01  8.50000000E-01  8.50000000E-01
  8.50000000E-01  8.00000000E-01  8.50000000E-01  8.50000000E-01  8.50000000E-01
  8.00000000E-01  8.50000000E-01  8.50000000E-01  8.50000000E-01  8.00000000E-01
  8.50000000E-01  8.50000000E-01  8.50000000E-01  8.00000000E-01  8.50000000E-01
  8.50000000E-01  8.50000000E-01  8.00000000E-01  8.50000000E-01  8.50000000E-01
  8.50000000E-01  8.00000000E-01  8.50000000E-01  8.50000000E-01  8.50000000E-01
  8.00000000E-01  8.50000000E-01  8.50000000E-01  8.50000000E-01  8.00000000E-01
  8.50000000E-01  8.50000000E-01  8.50000000E-01  8.00000000E-01  8.50000000E-01
  8.50000000E-01  8.50000000E-01  8.00000000E-01  8.50000000E-01  8.50000000E-01
  8.50000000E-01  8.00000000E-01  8.50000000E-01  8.50000000E-01  8.50000000E-01
  8.00000000E-01  8.50000000E-01  8.50000000E-01  8.50000000E-01  8.00000000E-01
  8.50000000E-01  8.50000000E-01  8.50000000E-01  8.00000000E-01  8.50000000E-01
  8.50000000E-01  8.50000000E-01  8.00000000E-01  8.50000000E-01  8.50000000E-01
  8.50000000E-01  8.00000000E-01  8.50000000E-01  8.50000000E-01  8.50000000E-01
  8.00000000E-01  8.50000000E-01  8.50000000E-01  8.50000000E-01  8.00000000E-01
  8.50000000E-01  8.50000000E-01  8.50000000E-01  8.00000000E-01  8.50000000E-01
  8.50000000E-01  8.50000000E-01  8.00000000E-01  8.50000000E-01  8.50000000E-01
  8.50000000E-01  8.00000000E-01  8.50000000E-01  8.50000000E-01  8.50000000E-01
  8.00000000E-01  8.50000000E-01  8.50000000E-01  8.50000000E-01  8.00000000E-01
  8.50000000E-01  8.50000000E-01  8.50000000E-01  8.00000000E-01  8.50000000E-01
  8.50000000E-01  8.50000000E-01  8.00000000E-01  8.50000000E-01  8.50000000E-01
  8.50000000E-01  8.00000000E-01  8.50000000E-01  8.50000000E-01  8.50000000E-01
  8.00000000E-01  8.50000000E-01  8.50000000E-01  8.50000000E-01  8.00000000E-01
  8.50000000E-01  8.50000000E-01  8.50000000E-01  8.00000000E-01  8.50000000E-01
  8.50000000E-01  8.50000000E-01  8.00000000E-01  8.50000000E-01  8.50000000E-01
  8.50000000E-01  8.00000000E-01  8.50000000E-01  8.50000000E-01  8.50000000E-01
  8.00000000E-01  8.50000000E-01  8.50000000E-01  8.50000000E-01  8.00000000E-01
  8.50000000E-01  8.50000000E-01  8.50000000E-01  8.00000000E-01  8.50000000E-01
  8.50000000E-01  8.50000000E-01  8.00000000E-01  8.50000000E-01  8.50000000E-01
  8.50000000E-01  8.00000000E-01  8.50000000E-01  8.50000000E-01  8.50000000E-01
  8.00000000E-01  8.50000000E-01  8.50000000E-01  8.50000000E-01  8.00000000E-01
  8.50000000E-01  8.50000000E-01  8.50000000E-01  8.00000000E-01  8.50000000E-01
  8.50000000E-01  8.50000000E-01  8.00000000E-01  8.50000000E-01  8.50000000E-01
  8.50000000E-01  8.00000000E-01  8.50000000E-01  8.50000000E-01  8.50000000E-01
  8.00000000E-01  8.50000000E-01  8.50000000E-01  8.50000000E-01  8.00000000E-01
  8.50000000E-01  8.50000000E-01  8.50000000E-01  8.00000000E-01  8.50000000E-01
  8.50000000E-01  8.50000000E-01  8.00000000E-01  8.50000000E-01  8.50000000E-01
  8.50000000E-01  8.00000000E-01  8.50000000E-01  8.50000000E-01  8.50000000E-01
  8.00000000E-01  8.50000000E-01  8.50000000E-01  8.50000000E-01  8.00000000E-01
  8.50000000E-01  8.50000000E-01  8.50000000E-01  8.00000000E-01  8.50000000E-01
  8.50000000E-01  8.50000000E-01  8.00000000E-01  8.50000000E-01  8.50000000E-01
  8.50000000E-01  8.00000000E-01  8.50000000E-01  8.50000000E-01  8.50000000E-01
  8.00000000E-01  8.50000000E-01  8.50000000E-01  8.50000000E-01  8.00000000E-01
  8.50000000E-01  8.50000000E-01  8.50000000E-01  8.00000000E-01  8.50000000E-01
  8.50000000E-01  8.50000000E-01  8.00000000E-01  8.50000000E-01  8.50000000E-01
  8.50000000E-01  8.00000000E-01  8.50000000E-01  8.50000000E-01  8.50000000E-01
  8.00000000E-01  8.50000000E-01  8.50000000E-01  8.50000000E-01  8.00000000E-01
  8.50000000E-01  8.50000000E-01  8.50000000E-01  8.00000000E-01  8.50000000E-01
  8.50000000E-01  8.50000000E-01  8.00000000E-01  8.50000000E-01  8.50000000E-01
  8.50000000E-01  8.00000000E-01  8.50000000E-01  8.50000000E-01  8.50000000E-01
  8.00000000E-01  8.50000000E-01  8.50000000E-01  8.50000000E-01  8.00000000E-01
  8.50000000E-01  8.50000000E-01  8.50000000E-01  8.00000000E-01  8.50000000E-01
  8.50000000E-01  8.50000000E-01  8.00000000E-01  8.50000000E-01  8.50000000E-01
  8.50000000E-01  8.00000000E-01  8.50000000E-01  8.50000000E-01  8.50000000E-01
  8.00000000E-01  8.50000000E-01  8.50000000E-01  8.50000000E-01  8.00000000E-01
  8.50000000E-01  8.50000000E-01  8.50000000E-01  8.00000000E-01  8.50000000E-01
  8.50000000E-01  8.50000000E-01  8.00000000E-01  8.50000000E-01  8.50000000E-01
  8.50000000E-01  8.00000000E-01  8.50000000E-01  8.50000000E-01  8.50000000E-01
  8.00000000E-01  8.50000000E-01  8.50000000E-01  8.50000000E-01  8.00000000E-01
  8.50000000E-01  8.50000000E-01  8.50000000E-01  8.00000000E-01  8.50000000E-01
  8.50000000E-01  8.50000000E-01  8.00000000E-01  8.50000000E-01  8.50000000E-01
  8.50000000E-01  8.00000000E-01  8.50000000E-01  8.50000000E-01  8.50000000E-01
  8.00000000E-01  8.50000000E-01  8.50000000E-01  8.50000000E-01  8.00000000E-01
  8.50000000E-01  8.50000000E-01  8.50000000E-01  8.00000000E-01  8.50000000E-01
  8.50000000E-01  8.50000000E-01  8.00000000E-01  8.50000000E-01  8.50000000E-01
  8.50000000E-01  8.00000000E-01  8.50000000E-01  8.50000000E-01  8.50000000E-01
  8.00000000E-01  8.50000000E-01  8.50000000E-01  8.50000000E-01  8.00000000E-01
  8.50000000E-01  8.50000000E-01  8.50000000E-01  8.00000000E-01  8.50000000E-01
  8.50000000E-01  8.50000000E-01  8.00000000E-01  8.50000000E-01  8.50000000E-01
  8.50000000E-01  8.00000000E-01  8.50000000E-01  8.50000000E-01  8.50000000E-01
  8.00000000E-01  8.50000000E-01  8.50000000E-01  8.50000000E-01  8.00000000E-01
  8.50000000E-01  8.50000000E-01  8.50000000E-01  8.00000000E-01  8.50000000E-01
  8.50000000E-01  8.50000000E-01  8.00000000E-01  8.50000000E-01  8.50000000E-01
  8.50000000E-01  8.00000000E-01  8.50000000E-01  8.50000000E-01  8.50000000E-01
  8.00000000E-01  8.50000000E-01  8.50000000E-01  8.50000000E-01  8.00000000E-01
  8.50000000E-01  8.50000000E-01  8.50000000E-01  8.00000000E-01  8.50000000E-01
  8.50000000E-01  8.50000000E-01  8.00000000E-01  8.50000000E-01  8.50000000E-01
  8.50000000E-01  8.00000000E-01  8.50000000E-01  8.50000000E-01  8.50000000E-01
  8.00000000E-01  8.50000000E-01  8.50000000E-01  8.50000000E-01  8.00000000E-01
  8.50000000E-01  8.50000000E-01  8.50000000E-01  8.00000000E-01  8.50000000E-01
  8.50000000E-01  8.50000000E-01  8.00000000E-01  8.50000000E-01  8.50000000E-01
  8.50000000E-01  8.00000000E-01  8.50000000E-01  8.50000000E-01  8.50000000E-01
  8.00000000E-01  8.50000000E-01  8.50000000E-01  8.50000000E-01  8.00000000E-01
  8.50000000E-01  8.50000000E-01  8.50000000E-01  8.00000000E-01  8.50000000E-01
  8.50000000E-01  8.50000000E-01  8.00000000E-01  8.50000000E-01  8.50000000E-01
  8.50000000E-01  8.00000000E-01  8.50000000E-01  8.50000000E-01  8.50000000E-01
  8.00000000E-01  8.50000000E-01  8.50000000E-01  8.50000000E-01  8.00000000E-01
  8.50000000E-01  8.50000000E-01  8.50000000E-01  8.00000000E-01  8.50000000E-01
  8.50000000E-01  8.50000000E-01  8.00000000E-01  8.50000000E-01  8.50000000E-01
  8.50000000E-01  8.00000000E-01  8.50000000E-01  8.50000000E-01  8.50000000E-01
  8.00000000E-01  8.50000000E-01  8.50000000E-01  8.50000000E-01  8.00000000E-01
  8.50000000E-01  8.50000000E-01  8.50000000E-01  8.00000000E-01  8.50000000E-01
  8.50000000E-01  8.50000000E-01  8.00000000E-01  8.50000000E-01  8.50000000E-01
  8.50000000E-01  8.00000000E-01  8.50000000E-01  8.50000000E-01  8.50000000E-01
  8.00000000E-01  8.50000000E-01  8.50000000E-01  8.50000000E-01  8.00000000E-01
  8.50000000E-01  8.50000000E-01  8.50000000E-01  8.00000000E-01  8.50000000E-01
  8.50000000E-01  8.50000000E-01  8.00000000E-01  8.50000000E-01  8.50000000E-01
  8.50000000E-01  8.00000000E-01  8.50000000E-01  8.50000000E-01  8.50000000E-01
  8.00000000E-01  8.50000000E-01  8.50000000E-01  8.50000000E-01  8.00000000E-01
  8.50000000E-01  8.50000000E-01  8.50000000E-01  8.00000000E-01  8.50000000E-01
  8.50000000E-01  8.50000000E-01  8.00000000E-01  8.50000000E-01  8.50000000E-01
  8.50000000E-01  8.00000000E-01  8.50000000E-01  8.50000000E-01  8.50000000E-01
  8.00000000E-01  8.50000000E-01  8.50000000E-01  8.50000000E-01  8.00000000E-01
  8.50000000E-01  8.50000000E-01  8.50000000E-01  8.00000000E-01  8.50000000E-01
  8.50000000E-01  8.50000000E-01  8.00000000E-01  8.50000000E-01  8.50000000E-01
  8.50000000E-01  8.00000000E-01  8.50000000E-01  8.50000000E-01  8.50000000E-01
  8.00000000E-01  8.50000000E-01  8.50000000E-01  8.50000000E-01  8.00000000E-01
  8.50000000E-01  8.50000000E-01  8.50000000E-01  8.00000000E-01  8.50000000E-01
  8.50000000E-01  8.50000000E-01  8.00000000E-01  8.50000000E-01  8.50000000E-01
  8.50000000E-01  8.00000000E-01  8.50000000E-01  8.50000000E-01  8.50000000E-01
  8.00000000E-01  8.50000000E-01  8.50000000E-01  8.50000000E-01  8.00000000E-01
  8.50000000E-01  8.50000000E-01  8.50000000E-01  8.00000000E-01  8.50000000E-01
  8.50000000E-01  8.50000000E-01  8.00000000E-01  8.50000000E-01  8.50000000E-01
  8.50000000E-01  8.00000000E-01  8.50000000E-01  8.50000000E-01  8.50000000E-01
  8.00000000E-01  8.50000000E-01  8.50000000E-01  8.50000000E-01  8.00000000E-01
  8.50000000E-01  8.50000000E-01  8.50000000E-01  8.00000000E-01  8.50000000E-01
  8.50000000E-01  8.50000000E-01  8.00000000E-01  8.50000000E-01  8.50000000E-01
  8.50000000E-01  8.00000000E-01  8.50000000E-01  8.50000000E-01  8.50000000E-01
  8.00000000E-01  8.50000000E-01  8.50000000E-01  8.50000000E-01  8.00000000E-01
  8.50000000E-01  8.50000000E-01  8.50000000E-01  8.00000000E-01  8.50000000E-01
  8.50000000E-01  8.50000000E-01  8.00000000E-01  8.50000000E-01  8.50000000E-01
  8.50000000E-01  8.00000000E-01  8.50000000E-01  8.50000000E-01  8.50000000E-01
  8.00000000E-01  8.50000000E-01  8.50000000E-01  8.50000000E-01  8.00000000E-01
  8.50000000E-01  8.50000000E-01  8.50000000E-01  8.00000000E-01  8.50000000E-01
  8.50000000E-01  8.50000000E-01  8.00000000E-01  8.50000000E-01  8.50000000E-01
  8.50000000E-01  8.00000000E-01  8.50000000E-01  8.50000000E-01  8.50000000E-01
  8.00000000E-01  8.50000000E-01  8.50000000E-01  8.50000000E-01  8.00000000E-01
  8.50000000E-01  8.50000000E-01  8.50000000E-01  8.00000000E-01  8.50000000E-01
  8.50000000E-01  8.50000000E-01  8.00000000E-01  8.50000000E-01  8.50000000E-01
  8.50000000E-01  8.00000000E-01  8.50000000E-01  8.50000000E-01  8.50000000E-01
  8.00000000E-01  8.50000000E-01  8.50000000E-01  8.50000000E-01  8.00000000E-01
  8.50000000E-01  8.50000000E-01  8.50000000E-01  8.00000000E-01  8.50000000E-01
  8.50000000E-01  8.50000000E-01  8.00000000E-01  8.50000000E-01  8.50000000E-01
  8.50000000E-01  8.00000000E-01  8.50000000E-01  8.50000000E-01  8.50000000E-01
  8.00000000E-01  8.50000000E-01  8.50000000E-01  8.50000000E-01  8.00000000E-01
  8.50000000E-01  8.50000000E-01  8.50000000E-01  8.00000000E-01  8.50000000E-01
  8.50000000E-01  8.50000000E-01  8.00000000E-01  8.50000000E-01  8.50000000E-01
  8.50000000E-01  8.00000000E-01  8.50000000E-01  8.50000000E-01  8.50000000E-01
  8.00000000E-01  8.50000000E-01  8.50000000E-01  8.50000000E-01  8.00000000E-01
  8.50000000E-01  8.50000000E-01  8.50000000E-01  8.00000000E-01  8.50000000E-01
  8.50000000E-01  8.50000000E-01  8.00000000E-01  8.50000000E-01  8.50000000E-01
  8.50000000E-01  8.00000000E-01  8.50000000E-01  8.50000000E-01  8.50000000E-01
  8.00000000E-01  8.50000000E-01  8.50000000E-01  8.50000000E-01  8.00000000E-01
  8.50000000E-01  8.50000000E-01  8.50000000E-01  8.00000000E-01  8.50000000E-01
  8.50000000E-01  8.50000000E-01  8.00000000E-01  8.50000000E-01  8.50000000E-01
  8.50000000E-01  8.00000000E-01  8.50000000E-01  8.50000000E-01  8.50000000E-01
  8.00000000E-01  8.50000000E-01  8.50000000E-01  8.50000000E-01  8.00000000E-01
  8.50000000E-01  8.50000000E-01  8.50000000E-01  8.00000000E-01  8.50000000E-01
  8.50000000E-01  8.50000000E-01  8.00000000E-01  8.50000000E-01  8.50000000E-01
  8.50000000E-01  8.00000000E-01  8.50000000E-01  8.50000000E-01  8.50000000E-01
  8.00000000E-01  8.50000000E-01  8.50000000E-01  8.50000000E-01  8.00000000E-01
  8.50000000E-01  8.50000000E-01  8.50000000E-01  8.00000000E-01  8.50000000E-01
  8.50000000E-01  8.50000000E-01  8.00000000E-01  8.50000000E-01  8.50000000E-01
  8.50000000E-01  8.00000000E-01  8.50000000E-01  8.50000000E-01  8.50000000E-01
  8.00000000E-01  8.50000000E-01  8.50000000E-01  8.50000000E-01  8.00000000E-01
  8.50000000E-01  8.50000000E-01  8.50000000E-01  8.00000000E-01  8.50000000E-01
  8.50000000E-01  8.50000000E-01  8.00000000E-01  8.50000000E-01  8.50000000E-01
  8.50000000E-01  8.00000000E-01  8.50000000E-01  8.50000000E-01  8.50000000E-01
  8.00000000E-01  8.50000000E-01  8.50000000E-01  8.50000000E-01  8.00000000E-01
  8.50000000E-01  8.50000000E-01  8.50000000E-01  8.00000000E-01  8.50000000E-01
  8.50000000E-01  8.50000000E-01  8.00000000E-01  8.50000000E-01  8.50000000E-01
  8.50000000E-01  8.00000000E-01  8.50000000E-01  8.50000000E-01  8.50000000E-01
  8.00000000E-01  8.50000000E-01  8.50000000E-01  8.50000000E-01  8.00000000E-01
  8.50000000E-01  8.50000000E-01  8.50000000E-01  8.00000000E-01  8.50000000E-01
  8.50000000E-01  8.50000000E-01  8.00000000E-01  8.50000000E-01  8.50000000E-01
  8.50000000E-01  8.00000000E-01  8.50000000E-01  8.50000000E-01  8.50000000E-01
  8.00000000E-01  8.50000000E-01  8.50000000E-01  8.50000000E-01  8.00000000E-01
  8.50000000E-01  8.50000000E-01  8.50000000E-01  8.00000000E-01  8.50000000E-01
  8.50000000E-01  8.50000000E-01  8.00000000E-01  8.50000000E-01  8.50000000E-01
  8.50000000E-01  8.00000000E-01  8.50000000E-01  8.50000000E-01  8.50000000E-01
  8.00000000E-01  8.50000000E-01  8.50000000E-01  8.50000000E-01  8.00000000E-01
  8.50000000E-01  8.50000000E-01  8.50000000E-01  8.00000000E-01  8.50000000E-01
  8.50000000E-01  8.50000000E-01  8.00000000E-01  8.50000000E-01  8.50000000E-01
  8.50000000E-01  8.00000000E-01  8.50000000E-01  8.50000000E-01  8.50000000E-01
  8.00000000E-01  8.50000000E-01  8.50000000E-01  8.50000000E-01  8.00000000E-01
  8.50000000E-01  8.50000000E-01  8.50000000E-01  8.00000000E-01  8.50000000E-01
  8.50000000E-01  8.50000000E-01  8.00000000E-01  8.50000000E-01  8.50000000E-01
  8.50000000E-01  8.00000000E-01  8.50000000E-01  8.50000000E-01  8.50000000E-01
  8.00000000E-01  8.50000000E-01  8.50000000E-01  8.50000000E-01  8.00000000E-01
  8.50000000E-01  8.50000000E-01  8.50000000E-01  8.00000000E-01  8.50000000E-01
  8.50000000E-01  8.50000000E-01  8.00000000E-01  8.50000000E-01  8.50000000E-01
  8.50000000E-01  8.00000000E-01  8.50000000E-01  8.50000000E-01  8.50000000E-01
  8.00000000E-01  8.50000000E-01  8.50000000E-01  8.50000000E-01  8.00000000E-01
  8.50000000E-01  8.50000000E-01  8.50000000E-01  8.00000000E-01  8.50000000E-01
  8.50000000E-01  8.50000000E-01  8.00000000E-01  8.50000000E-01  8.50000000E-01
  8.50000000E-01  8.00000000E-01  8.50000000E-01  8.50000000E-01  8.50000000E-01
  8.00000000E-01  8.50000000E-01  8.50000000E-01  8.50000000E-01  8.00000000E-01
  8.50000000E-01  8.50000000E-01  8.50000000E-01  8.00000000E-01  8.50000000E-01
  8.50000000E-01  8.50000000E-01  8.00000000E-01  8.50000000E-01  8.50000000E-01
  8.50000000E-01  8.00000000E-01  8.50000000E-01  8.50000000E-01  8.50000000E-01
  8.00000000E-01  8.50000000E-01  8.50000000E-01  8.50000000E-01  8.00000000E-01
  8.50000000E-01  8.50000000E-01  8.50000000E-01  8.00000000E-01  8.50000000E-01
  8.50000000E-01  8.50000000E-01  8.00000000E-01  8.50000000E-01  8.50000000E-01
  8.50000000E-01  8.00000000E-01  8.50000000E-01  8.50000000E-01  8.50000000E-01
  8.00000000E-01  8.50000000E-01  8.50000000E-01  8.50000000E-01  8.00000000E-01
  8.50000000E-01  8.50000000E-01  8.50000000E-01  8.00000000E-01  8.50000000E-01
  8.50000000E-01  8.50000000E-01  8.00000000E-01  8.50000000E-01  8.50000000E-01
  8.50000000E-01  8.00000000E-01  8.50000000E-01  8.50000000E-01  8.50000000E-01
  8.00000000E-01  8.50000000E-01  8.50000000E-01  8.50000000E-01  8.00000000E-01
  8.50000000E-01  8.50000000E-01  8.50000000E-01  8.00000000E-01  8.50000000E-01
  8.50000000E-01  8.50000000E-01  8.00000000E-01  8.50000000E-01  8.50000000E-01
  8.50000000E-01  8.00000000E-01  8.50000000E-01  8.50000000E-01  8.50000000E-01
  8.00000000E-01  8.50000000E-01  8.50000000E-01  8.50000000E-01  8.00000000E-01
  8.50000000E-01  8.50000000E-01  8.50000000E-01  8.00000000E-01  8.50000000E-01
  8.50000000E-01  8.50000000E-01  8.00000000E-01  8.50000000E-01  8.50000000E-01
  8.50000000E-01  8.00000000E-01  8.50000000E-01  8.50000000E-01  8.50000000E-01
  8.00000000E-01  8.50000000E-01  8.50000000E-01  8.50000000E-01  8.00000000E-01
  8.50000000E-01  8.50000000E-01  8.50000000E-01  8.00000000E-01  8.50000000E-01
  8.50000000E-01  8.50000000E-01  8.00000000E-01  8.50000000E-01  8.50000000E-01
  8.50000000E-01  8.00000000E-01  8.50000000E-01  8.50000000E-01  8.50000000E-01
  8.00000000E-01  8.50000000E-01  8.50000000E-01  8.50000000E-01  8.00000000E-01
  8.50000000E-01  8.50000000E-01  8.50000000E-01  8.00000000E-01  8.50000000E-01
  8.50000000E-01  8.50000000E-01  8.00000000E-01  8.50000000E-01  8.50000000E-01
  8.50000000E-01  8.00000000E-01  8.50000000E-01  8.50000000E-01  8.50000000E-01
  8.00000000E-01  8.50000000E-01  8.50000000E-01  8.50000000E-01  8.00000000E-01
  8.50000000E-01  8.50000000E-01  8.50000000E-01  8.00000000E-01  8.50000000E-01
  8.50000000E-01  8.50000000E-01  8.00000000E-01  8.50000000E-01  8.50000000E-01
  8.50000000E-01  8.00000000E-01  8.50000000E-01  8.50000000E-01  8.50000000E-01
  8.00000000E-01  8.50000000E-01  8.50000000E-01  8.50000000E-01  8.00000000E-01
  8.50000000E-01  8.50000000E-01  8.50000000E-01  8.00000000E-01  8.50000000E-01
  8.50000000E-01  8.50000000E-01  8.00000000E-01  8.50000000E-01  8.50000000E-01
  8.50000000E-01  8.00000000E-01  8.50000000E-01  8.50000000E-01  8.50000000E-01
  8.00000000E-01  8.50000000E-01  8.50000000E-01  8.50000000E-01  8.00000000E-01
  8.50000000E-01  8.50000000E-01  8.50000000E-01  8.00000000E-01  8.50000000E-01
  8.50000000E-01  8.50000000E-01  8.00000000E-01  8.50000000E-01  8.50000000E-01
  8.50000000E-01  8.00000000E-01  8.50000000E-01  8.50000000E-01  8.50000000E-01
  8.00000000E-01  8.50000000E-01  8.50000000E-01  8.50000000E-01  8.00000000E-01
  8.50000000E-01  8.50000000E-01  8.50000000E-01  8.00000000E-01  8.50000000E-01
  8.50000000E-01  8.50000000E-01  8.00000000E-01  8.50000000E-01  8.50000000E-01
  8.50000000E-01  8.00000000E-01  8.50000000E-01  8.50000000E-01  8.50000000E-01
  8.00000000E-01  8.50000000E-01  8.50000000E-01  8.50000000E-01  8.00000000E-01
  8.50000000E-01  8.50000000E-01  8.50000000E-01  8.00000000E-01  8.50000000E-01
  8.50000000E-01  8.50000000E-01  8.00000000E-01  8.50000000E-01  8.50000000E-01
  8.50000000E-01  8.00000000E-01  8.50000000E-01  8.50000000E-01  8.50000000E-01
  8.00000000E-01  8.50000000E-01  8.50000000E-01  8.50000000E-01  8.00000000E-01
  8.50000000E-01  8.50000000E-01  8.50000000E-01  8.00000000E-01  8.50000000E-01
  8.50000000E-01  8.50000000E-01  8.00000000E-01  8.50000000E-01  8.50000000E-01
  8.50000000E-01  8.00000000E-01  8.50000000E-01  8.50000000E-01  8.50000000E-01
  8.00000000E-01  8.50000000E-01  8.50000000E-01  8.50000000E-01  8.00000000E-01
  8.50000000E-01  8.50000000E-01  8.50000000E-01  8.00000000E-01  8.50000000E-01
  8.50000000E-01  8.50000000E-01  8.00000000E-01  8.50000000E-01  8.50000000E-01
  8.50000000E-01  8.00000000E-01  8.50000000E-01  8.50000000E-01  8.50000000E-01
  8.00000000E-01  8.50000000E-01  8.50000000E-01  8.50000000E-01  8.00000000E-01
  8.50000000E-01  8.50000000E-01  8.50000000E-01  8.00000000E-01  8.50000000E-01
  8.50000000E-01  8.50000000E-01  8.00000000E-01  8.50000000E-01  8.50000000E-01
  8.50000000E-01  8.00000000E-01  8.50000000E-01  8.50000000E-01  8.50000000E-01
  8.00000000E-01  8.50000000E-01  8.50000000E-01  8.50000000E-01  8.00000000E-01
  8.50000000E-01  8.50000000E-01  8.50000000E-01  8.00000000E-01  8.50000000E-01
  8.50000000E-01  8.50000000E-01  8.00000000E-01  8.50000000E-01  8.50000000E-01
  8.50000000E-01  8.00000000E-01  8.50000000E-01  8.50000000E-01  8.50000000E-01
  8.00000000E-01  8.50000000E-01  8.50000000E-01  8.50000000E-01  8.00000000E-01
  8.50000000E-01  8.50000000E-01  8.50000000E-01  8.00000000E-01  8.50000000E-01
  8.50000000E-01  8.50000000E-01  8.00000000E-01  8.50000000E-01  8.50000000E-01
  8.50000000E-01  8.00000000E-01  8.50000000E-01  8.50000000E-01  8.50000000E-01
  8.00000000E-01  8.50000000E-01  8.50000000E-01  8.50000000E-01  8.00000000E-01
  8.50000000E-01  8.50000000E-01  8.50000000E-01  8.00000000E-01  8.50000000E-01
  8.50000000E-01  8.50000000E-01  8.00000000E-01  8.50000000E-01  8.50000000E-01
  8.50000000E-01  8.00000000E-01  8.50000000E-01  8.50000000E-01  8.50000000E-01
  8.00000000E-01  8.50000000E-01  8.50000000E-01  8.50000000E-01  8.00000000E-01
  8.50000000E-01  8.50000000E-01  8.50000000E-01  8.00000000E-01  8.50000000E-01
  8.50000000E-01  8.50000000E-01  8.00000000E-01  8.50000000E-01  8.50000000E-01
  8.50000000E-01  8.00000000E-01  8.50000000E-01  8.50000000E-01  8.50000000E-01
  8.00000000E-01  8.50000000E-01  8.50000000E-01  8.50000000E-01  8.00000000E-01
  8.50000000E-01  8.50000000E-01  8.50000000E-01  8.00000000E-01  8.50000000E-01
  8.50000000E-01  8.50000000E-01  8.00000000E-01  8.50000000E-01  8.50000000E-01
  8.50000000E-01  8.00000000E-01  8.50000000E-01  8.50000000E-01  8.50000000E-01
  8.00000000E-01  8.50000000E-01  8.50000000E-01  8.50000000E-01  8.00000000E-01
  8.50000000E-01  8.50000000E-01  8.50000000E-01  8.00000000E-01  8.50000000E-01
  8.50000000E-01  8.50000000E-01  8.00000000E-01  8.50000000E-01  8.50000000E-01
  8.50000000E-01  8.00000000E-01  8.50000000E-01  8.50000000E-01  8.50000000E-01
  8.00000000E-01  8.50000000E-01  8.50000000E-01  8.50000000E-01  8.00000000E-01
  8.50000000E-01  8.50000000E-01  8.50000000E-01  8.00000000E-01  8.50000000E-01
  8.50000000E-01  8.50000000E-01  8.00000000E-01  8.50000000E-01  8.50000000E-01
  8.50000000E-01  8.00000000E-01  8.50000000E-01  8.50000000E-01  8.50000000E-01
  8.00000000E-01  8.50000000E-01  8.50000000E-01  8.50000000E-01  8.00000000E-01
  8.50000000E-01  8.50000000E-01  8.50000000E-01  8.00000000E-01  8.50000000E-01
  8.50000000E-01  8.50000000E-01  8.00000000E-01  8.50000000E-01  8.50000000E-01
  8.50000000E-01  8.00000000E-01  8.50000000E-01  8.50000000E-01  8.50000000E-01
  8.00000000E-01  8.50000000E-01  8.50000000E-01  8.50000000E-01  8.00000000E-01
  8.50000000E-01  8.50000000E-01  8.50000000E-01  8.00000000E-01  8.50000000E-01
  8.50000000E-01  8.50000000E-01  8.00000000E-01  8.50000000E-01  8.50000000E-01
  8.50000000E-01  8.00000000E-01  8.50000000E-01  8.50000000E-01  8.50000000E-01
  8.00000000E-01  8.50000000E-01  8.50000000E-01  8.50000000E-01  8.00000000E-01
  8.50000000E-01  8.50000000E-01  8.50000000E-01  8.00000000E-01  8.50000000E-01
  8.50000000E-01  8.50000000E-01  8.00000000E-01  8.50000000E-01  8.50000000E-01
  8.50000000E-01  8.00000000E-01  8.50000000E-01  8.50000000E-01  8.50000000E-01
  8.00000000E-01  8.50000000E-01  8.50000000E-01  8.50000000E-01  8.00000000E-01
  8.50000000E-01  8.50000000E-01  8.50000000E-01  8.00000000E-01  8.50000000E-01
  8.50000000E-01  8.50000000E-01  8.00000000E-01  8.50000000E-01  8.50000000E-01
  8.50000000E-01  8.00000000E-01  8.50000000E-01  8.50000000E-01  8.50000000E-01
  8.00000000E-01  8.50000000E-01  8.50000000E-01  8.50000000E-01  8.00000000E-01
  8.50000000E-01  8.50000000E-01  8.50000000E-01  8.00000000E-01  8.50000000E-01
  8.50000000E-01  8.50000000E-01  8.00000000E-01  8.50000000E-01  8.50000000E-01
  8.50000000E-01  8.00000000E-01  8.50000000E-01  8.50000000E-01  8.50000000E-01
  8.00000000E-01  8.50000000E-01  8.50000000E-01  8.50000000E-01  8.00000000E-01
  8.50000000E-01  8.50000000E-01  8.50000000E-01  8.00000000E-01  8.50000000E-01
  8.50000000E-01  8.50000000E-01  8.00000000E-01  8.50000000E-01  8.50000000E-01
  8.50000000E-01  8.00000000E-01  8.50000000E-01  8.50000000E-01  8.50000000E-01
  8.00000000E-01  8.50000000E-01  8.50000000E-01  8.50000000E-01  8.00000000E-01
  8.50000000E-01  8.50000000E-01  8.50000000E-01  8.00000000E-01  8.50000000E-01
  8.50000000E-01  8.50000000E-01  8.00000000E-01  8.50000000E-01  8.50000000E-01
  8.50000000E-01  8.00000000E-01  8.50000000E-01  8.50000000E-01  8.50000000E-01
  8.00000000E-01  8.50000000E-01  8.50000000E-01  8.50000000E-01  8.00000000E-01
  8.50000000E-01  8.50000000E-01  8.50000000E-01  8.00000000E-01  8.50000000E-01
  8.50000000E-01  8.50000000E-01  8.00000000E-01  8.50000000E-01  8.50000000E-01
  8.50000000E-01  8.00000000E-01  8.50000000E-01  8.50000000E-01  8.50000000E-01
  8.00000000E-01  8.50000000E-01  8.50000000E-01  8.50000000E-01  8.00000000E-01
  8.50000000E-01  8.50000000E-01  8.50000000E-01  8.00000000E-01  8.50000000E-01
  8.50000000E-01  8.50000000E-01  8.00000000E-01  8.50000000E-01  8.50000000E-01
  8.50000000E-01  8.00000000E-01  8.50000000E-01  8.50000000E-01  8.50000000E-01
  8.00000000E-01  8.50000000E-01  8.50000000E-01  8.50000000E-01  8.00000000E-01
  8.50000000E-01  8.50000000E-01  8.50000000E-01  8.00000000E-01  8.50000000E-01
  8.50000000E-01  8.50000000E-01  8.00000000E-01  8.50000000E-01  8.50000000E-01
  8.50000000E-01  8.00000000E-01  8.50000000E-01  8.50000000E-01  8.50000000E-01
  8.00000000E-01  8.50000000E-01  8.50000000E-01  8.50000000E-01  8.00000000E-01
  8.50000000E-01  8.50000000E-01  8.50000000E-01  8.00000000E-01  8.50000000E-01
  8.50000000E-01  8.50000000E-01  8.00000000E-01  8.50000000E-01  8.50000000E-01
  8.50000000E-01  8.00000000E-01  8.50000000E-01  8.50000000E-01  8.50000000E-01
  8.00000000E-01  8.50000000E-01  8.50000000E-01  8.50000000E-01  8.00000000E-01
  8.50000000E-01  8.50000000E-01  8.50000000E-01  8.00000000E-01  8.50000000E-01
  8.50000000E-01  8.50000000E-01  8.00000000E-01  8.50000000E-01  8.50000000E-01
  8.50000000E-01  8.00000000E-01  8.50000000E-01  8.50000000E-01  8.50000000E-01
  8.00000000E-01  8.50000000E-01  8.50000000E-01  8.50000000E-01  8.00000000E-01
  8.50000000E-01  8.50000000E-01  8.50000000E-01  8.00000000E-01  8.50000000E-01
  8.50000000E-01  8.50000000E-01  8.00000000E-01  8.50000000E-01  8.50000000E-01
  8.50000000E-01  8.00000000E-01  8.50000000E-01  8.50000000E-01  8.50000000E-01
  8.00000000E-01  8.50000000E-01  8.50000000E-01  8.50000000E-01  8.00000000E-01
  8.50000000E-01  8.50000000E-01  8.50000000E-01  8.00000000E-01  8.50000000E-01
  8.50000000E-01  8.50000000E-01  8.00000000E-01  8.50000000E-01  8.50000000E-01
  8.50000000E-01  8.00000000E-01  8.50000000E-01  8.50000000E-01  8.50000000E-01
  8.00000000E-01  8.50000000E-01  8.50000000E-01  8.50000000E-01  8.00000000E-01
  8.50000000E-01  8.50000000E-01  8.50000000E-01  8.00000000E-01  8.50000000E-01
  8.50000000E-01  8.50000000E-01  8.00000000E-01  8.50000000E-01  8.50000000E-01
  8.50000000E-01  8.00000000E-01  8.50000000E-01  8.50000000E-01  8.50000000E-01
  8.00000000E-01  8.50000000E-01  8.50000000E-01  8.50000000E-01  8.00000000E-01
  8.50000000E-01  8.50000000E-01  8.50000000E-01  8.00000000E-01  8.50000000E-01
  8.50000000E-01  8.50000000E-01  8.00000000E-01  8.50000000E-01  8.50000000E-01
  8.50000000E-01  8.00000000E-01  8.50000000E-01  8.50000000E-01  8.50000000E-01
  8.00000000E-01  8.50000000E-01  8.50000000E-01  8.50000000E-01  8.00000000E-01
  8.50000000E-01  8.50000000E-01  8.50000000E-01  8.00000000E-01  8.50000000E-01
  8.50000000E-01  8.50000000E-01  8.00000000E-01  8.50000000E-01  8.50000000E-01
  8.50000000E-01  8.00000000E-01  8.50000000E-01  8.50000000E-01  8.50000000E-01
  8.00000000E-01  8.50000000E-01  8.50000000E-01  8.50000000E-01  8.00000000E-01
  8.50000000E-01  8.50000000E-01  8.50000000E-01  8.00000000E-01  8.50000000E-01
  8.50000000E-01  8.50000000E-01  8.00000000E-01  8.50000000E-01  8.50000000E-01
  8.50000000E-01  8.00000000E-01  8.50000000E-01  8.50000000E-01  8.50000000E-01
  8.00000000E-01  8.50000000E-01  8.50000000E-01  8.50000000E-01  8.00000000E-01
  8.50000000E-01  8.50000000E-01  8.50000000E-01  8.00000000E-01  8.50000000E-01
  8.50000000E-01  8.50000000E-01  8.00000000E-01  8.50000000E-01  8.50000000E-01
  8.50000000E-01  8.00000000E-01  8.50000000E-01  8.50000000E-01  8.50000000E-01
  8.00000000E-01  8.50000000E-01  8.50000000E-01  8.50000000E-01  8.00000000E-01
  8.50000000E-01  8.50000000E-01  8.50000000E-01  8.00000000E-01  8.50000000E-01
  8.50000000E-01  8.50000000E-01  8.00000000E-01  8.50000000E-01  8.50000000E-01
  8.50000000E-01  8.00000000E-01  8.50000000E-01  8.50000000E-01  8.50000000E-01
  8.00000000E-01  8.50000000E-01  8.50000000E-01  8.50000000E-01  8.00000000E-01
  8.50000000E-01  8.50000000E-01  8.50000000E-01  8.00000000E-01  8.50000000E-01
  8.50000000E-01  8.50000000E-01  8.00000000E-01  8.50000000E-01  8.50000000E-01
  8.50000000E-01  8.00000000E-01  8.50000000E-01  8.50000000E-01  8.50000000E-01
  8.00000000E-01  8.50000000E-01  8.50000000E-01  8.50000000E-01  8.00000000E-01
  8.50000000E-01  8.50000000E-01  8.50000000E-01  8.00000000E-01  8.50000000E-01
  8.50000000E-01  8.50000000E-01  8.00000000E-01  8.50000000E-01  8.50000000E-01
  8.50000000E-01  8.00000000E-01  8.50000000E-01  8.50000000E-01  8.50000000E-01
  8.00000000E-01  8.50000000E-01  8.50000000E-01  8.50000000E-01  8.00000000E-01
  8.50000000E-01  8.50000000E-01  8.50000000E-01  8.00000000E-01  8.50000000E-01
  8.50000000E-01  8.50000000E-01  8.00000000E-01  8.50000000E-01  8.50000000E-01
  8.50000000E-01  8.00000000E-01  8.50000000E-01  8.50000000E-01  8.50000000E-01
  8.00000000E-01  8.50000000E-01  8.50000000E-01  8.50000000E-01  8.00000000E-01
  8.50000000E-01  8.50000000E-01  8.50000000E-01  8.00000000E-01  8.50000000E-01
  8.50000000E-01  8.50000000E-01  8.00000000E-01  8.50000000E-01  8.50000000E-01
  8.50000000E-01  8.00000000E-01  8.50000000E-01  8.50000000E-01  8.50000000E-01
  8.00000000E-01  8.50000000E-01  8.50000000E-01  8.50000000E-01  8.00000000E-01
  8.50000000E-01  8.50000000E-01  8.50000000E-01  8.00000000E-01  8.50000000E-01
  8.50000000E-01  8.50000000E-01  8.00000000E-01  8.50000000E-01  8.50000000E-01
  8.50000000E-01  8.00000000E-01  8.50000000E-01  8.50000000E-01  8.50000000E-01
  8.00000000E-01  8.50000000E-01  8.50000000E-01  8.50000000E-01  8.00000000E-01
  8.50000000E-01  8.50000000E-01  8.50000000E-01  8.00000000E-01  8.50000000E-01
  8.50000000E-01  8.50000000E-01  8.00000000E-01  8.50000000E-01  8.50000000E-01
  8.50000000E-01  8.00000000E-01  8.50000000E-01  8.50000000E-01  8.50000000E-01
  8.00000000E-01  8.50000000E-01  8.50000000E-01  8.50000000E-01  8.00000000E-01
  8.50000000E-01  8.50000000E-01  8.50000000E-01  8.00000000E-01  8.50000000E-01
  8.50000000E-01  8.50000000E-01  8.00000000E-01  8.50000000E-01  8.50000000E-01
  8.50000000E-01  8.00000000E-01  8.50000000E-01  8.50000000E-01  8.50000000E-01
  8.00000000E-01  8.50000000E-01  8.50000000E-01  8.50000000E-01  8.00000000E-01
  8.50000000E-01  8.50000000E-01  8.50000000E-01  8.00000000E-01  8.50000000E-01
  8.50000000E-01  8.50000000E-01  8.00000000E-01  8.50000000E-01  8.50000000E-01
  8.50000000E-01  8.00000000E-01  8.50000000E-01  8.50000000E-01  8.50000000E-01
  8.00000000E-01  8.50000000E-01  8.50000000E-01  8.50000000E-01  8.00000000E-01
  8.50000000E-01  8.50000000E-01  8.50000000E-01  8.00000000E-01  8.50000000E-01
  8.50000000E-01  8.50000000E-01  8.00000000E-01  8.50000000E-01  8.50000000E-01
  8.50000000E-01  8.00000000E-01  8.50000000E-01  8.50000000E-01  8.50000000E-01
  8.00000000E-01
%FLAG IPOL                                                                      
%FORMAT(1I8)                                                                    
       0
%FLAG CMAP_COUNT                                                                
%FORMAT(2I8)                                                                    
       3       1                                                                
%FLAG CMAP_RESOLUTION                                                           
%FORMAT(20I4)                                                                   
  24
%FLAG CMAP_PARAMETER_01                                                         
%COMMENT  Ala CMAP                                                              
%FORMAT(8F9.5)                                                                  
 -0.40490 -0.91563 -0.66011 -0.12395  0.67400  1.66712  2.29819  2.59327
  2.26341  1.68604  1.08454  0.71831 -0.48870 -1.12865 -0.92439 -0.34344
  0.32979  0.59769  0.44008 -0.02411 -0.36985 -0.85317 -0.95648 -1.10907
 -0.57095 -0.51404 -0.20974  0.13143  0.76924  1.59233  2.29037  2.67125
  3.36182  2.18892  2.73567  0.45223 -0.65830 -0.99890 -0.71628  0.42576
  0.53333  0.77654  0.66928  0.32986  0.00178 -0.28339 -0.35321 -0.52818
 -0.04441  1.18495  0.28672  0.49834  1.04770  1.74318  2.42981  2.78424
  2.83854  2.61585  1.87191  0.41363 -0.42895 -0.65692  0.55228  0.27728
  0.92789  1.20682  1.03564  0.82326  0.50898  0.23806  0.20869  0.03162
  0.75270  0.92426  0.87815  1.07435  1.34904  1.95311  2.55584  3.01644
  2.98774  2.58246  1.60744  0.42752 -0.30354 -0.31446 -0.03375  0.52111
  1.16914  1.46572  1.98214  1.17058  0.95531  0.70808  0.78722  1.35766
  1.34685  2.28011  1.28633  1.21465  1.51939  2.05226  2.68560  3.11202
  2.91890  2.50948  1.45835  0.41028 -0.10582 -0.34705 -0.04464  0.55547
  1.11301  1.35870  1.48001  1.35541  1.12115  0.95721  1.12820  1.22585
  2.04850  1.37875  1.14784  1.59064  1.72039  1.78908  3.30313  3.04054
  2.98842  2.41992  1.44654  0.52504 -0.06270 -0.27801  0.87234  0.67598
  0.94307  1.15416  1.20141  1.24110  1.26105  1.20805  1.33113  1.49416
  1.04113  0.90852  0.69483  0.85361  1.26559  1.89687  2.63196  4.14974
  2.85712  2.19037  1.16979  0.05713 -0.34982 -0.13111  1.14408  0.72916
  0.83976  0.87834  2.10017  1.17948  1.17775  1.17175  1.28140  1.31313
  0.56020  0.54579  0.70265  1.11648  1.74498  2.34101  3.30438  2.91742
  2.51820  1.80071  0.63368 -0.12153  0.06806  0.72937  1.10420  1.35758
  1.49864  1.53737  1.46180  1.46294  1.03983  0.71730  0.57013  0.61315
  0.24962  0.58339  1.16380  1.97603  2.89121  3.52557  3.68570  3.11960
  2.13455  1.15056  0.41716  0.25190  0.90813  1.46041  1.72423  2.08326
  2.41176  2.51527  2.40584  2.10326  1.06657  0.24926  0.00000  0.09150
  0.69001  1.45869  2.56017  3.51462  4.36327  4.88489  4.44136  3.31773
  1.94048  1.18640  1.14388  1.38827  1.99448  1.97586  2.10793  2.62567
  3.22808  3.67878  3.65514  2.76833  1.09340 -0.02756 -0.20820  0.11394
  2.04863  3.24028  4.45604  5.33890  5.83417  5.62064  4.51400  3.15546
  2.11289  2.12474  2.51205  2.64497  2.21088  1.89502  2.06746  3.01892
  4.17428  5.04288  4.34485  2.58422  0.91721  0.02839  0.38724  1.08963
  3.86396  5.17448  4.99907  4.71176  4.69475  4.40584  3.94871  3.17716
  3.06333  3.67246  4.29338  2.44448  1.35877  2.75298  2.01318  3.50593
  5.09938  4.27559  3.31646  1.97909  0.94467  0.88095  1.62501  2.60184
  5.48793  4.77064  3.78644  3.36104  3.22046  3.45658  3.76845  4.19099
  4.55308  4.85880  2.97166  1.40450  1.55754  1.01694  2.55251  4.15890
  3.59316  2.89015  2.39954  2.03475  2.02513  2.33480  3.18431  4.21056
  4.70559  3.27912  2.28983  1.85924  2.16582  3.20992  4.49444  5.42412
  5.98035  4.20595  2.46249  1.80286  1.41486  2.22339  3.40125  3.01974
  2.06463  1.98502  2.41985  3.03336  3.42492  3.76647  4.58344  5.51267
  2.34028  1.47026  0.70060  0.67110  1.72673  3.69931  5.49162  6.13923
  5.15665  3.78295  2.61455  3.27648  2.23785  2.65327  2.09930  0.98357
  0.83115  1.73620  2.87719  3.88918  4.40086  4.76522  4.34641  3.40891
  0.89883  0.26728  0.50152  0.12164  1.64744  3.66760  4.84258  4.73428
  4.15359  3.27829  2.48102  2.07496  1.77587  1.23018  0.22862 -0.17811
  0.36837  1.62610  2.66752  3.41452  3.43224  3.08090  2.54957  1.61094
  0.32705 -0.14752 -0.38279 -0.00752  1.31062  2.89019  3.39946  3.48428
  3.29026  2.66680  1.96417  1.33230  0.70261 -0.31922 -0.88675 -0.59803
  0.32944  1.32712  1.88494  2.20282  2.13265  1.82079  1.35338  0.71220
 -0.03270 -0.18304 -0.26783  0.12774  0.88323  1.96743  2.18027  2.30248
  2.25909  1.78219  1.00274  0.24927 -0.80554 -1.41955 -1.17733 -0.22422
  1.19834  1.07092  1.05260  0.95885  0.87757  0.60790  0.30853  0.05046
  0.08873  0.15910  0.22294  0.37757  0.76603  1.36872  1.54866  1.47050
  1.32077  0.90501  0.18754 -0.81180 -1.70050 -1.70896 -0.87307 -0.00331
  0.74981  0.73853  0.55032  0.27050 -0.03313 -0.23059 -0.27425 -0.15004
  1.38786  0.31030  0.31376  0.30435  0.69516  1.26684  1.67665  1.73040
  1.48205  0.83164  0.78021 -1.27092 -1.69247 -1.59919 -0.87185  0.23049
  0.75546  0.68419  0.50548  0.18474 -0.18354 -0.22863 -0.03965  0.15614
  1.13038  0.28339  0.13603  0.26411  0.64582  1.31757  2.01140  2.13005
  1.85723  0.94711 -0.10199 -0.99228 -1.35141 -1.23057 -0.39240  0.63569
  1.03002  0.93699  1.12925  0.94167  0.14233  0.14305  0.34318  0.43742
 -0.18145 -0.18129 -0.36426 -0.02774  0.57160  1.29873  2.16831  2.37053
  1.81288  0.84225 -0.13994 -0.87562 -1.03375 -0.75156  0.33665  1.25211
  1.11963  1.00266  0.72525  0.87651  0.22308  0.12905  0.05647 -0.10214
 -1.05110 -0.75879 -0.79562 -0.36879  0.45648  1.36193  2.25739  2.41888
  1.79507  0.83030 -0.09049 -0.76021 -0.87672 -0.19067  0.64936  0.61856
  0.80179  0.82609  0.68948  0.43884 -0.07529 -0.55654 -0.80787 -1.00697
 -1.21902 -1.03039 -0.88255 -0.32105  0.49201  1.53828  2.43182  2.53201
  1.97701  1.22953  0.40353 -0.11048 -0.00493 -0.40512 -0.63562 -0.14764
  0.47545  0.72229  0.59153  0.14907 -0.47001 -0.96318 -1.22829 -1.35376
%FLAG CMAP_INDEX                                                                
%FORMAT(6I8)                                                                    
       5       7       9      15      17       1
      15      17      19      25      27       1
      25      27      29      35      37       1
