ACE
  6386
  25.8011481  17.6340325  15.1904691  25.1300631  18.4389677  15.4901761
  24.2631564  18.4548674  14.8296322  25.6537239  19.3926839  15.4245734
  24.6453867  18.2452436  16.9283902  25.0171640  17.2763300  17.5867427
  23.8141982  19.1727398  17.4091203  23.5369515  19.9517605  16.8291543
  23.2851759  19.1025388  18.7562689  22.7170708  18.1800916  18.8764643
  24.4075477  19.1216360  19.7885195  24.9798930  20.0436720  19.6866837
  23.9814528  19.0678697  20.7903442  25.0646588  18.2670367  19.6273855
  22.3664600  20.2808276  19.0462352  22.1576898  21.1350555  18.1876607
  21.8165408  20.3250155  20.2619083  22.0185724  19.5989139  20.9342616
  20.9244270  21.3950611  20.6603273  21.4480866  22.3487779  20.5947221
  19.6962059  21.4504326  19.7580904  19.1563066  20.5055693  19.8200750
  19.0444251  22.2625417  20.0802100  20.0087606  21.6228192  18.7281916
  20.4422864  21.2023511  22.0910220  20.8140667  20.2334383  22.7493743
  19.6110969  22.1298466  22.5717516  19.3338485  22.9088660  21.9917849
  19.0820760  22.0596464  23.9189009  18.5139724  21.1371985  24.0390980
  20.2044487  22.0787468  24.9511504  20.7767924  23.0007835  24.8493128
  19.7783548  22.0249810  25.9529755  20.8615610  21.2241483  24.7900169
  18.1633584  23.2379342  24.2088664  17.9545861  24.0921606  23.3502911
  17.6134402  23.2821228  25.4245400  17.8154737  22.5560223  26.0968940
  16.7213251  24.3521675  25.8229584  16.6020895  25.0530885  24.9967664
  15.7496385  23.9358353  26.0886520  17.1402070  24.8736585  26.6835890
  13.0974624   9.7719493  34.8407723  13.8647609   9.8319618  34.4313574
  12.6505933   9.1999935  34.3564041  13.1448051   9.6956069  34.7085433
  29.6259849  19.6170537  42.5093454  29.5953854  20.4715174  42.6811723
  30.2241198  19.3165830  43.0679598  29.7097007  19.6987034  42.6168256
  17.2100674  28.2408906  43.0283616  16.4583573  27.8624444  42.7999661
  17.6586686  28.2727339  42.2802426  17.1650341  28.1894513  42.8841118
  22.6625634  28.6634275  38.4569163  22.3277002  29.3411197  38.0213385
  23.1752504  28.2739587  37.8686035  22.6891215  28.7058854  38.3055955
  27.4476424  22.1922839  40.7811764  27.3315950  22.9430525  41.2103902
  28.2432311  21.9346792  41.0307851  27.5481013  22.2657686  40.8815856
  19.3306749  26.1816862  42.0681106  19.6522591  26.7222069  41.4642414
  19.9778846  25.6113633  42.2003396  19.4732805  26.1776037  41.9988142
  21.3808457  18.1832857  42.1515493  22.0788622  18.3620985  42.6436956
  21.6960790  17.6603196  41.5285882  21.5303795  18.1326629  42.1317503
  21.5696393  24.5703302  42.1395284  22.0090028  23.9620403  42.5850057
  21.4201056  24.1910675  41.3680749  21.6117859  24.4241773  42.0914452
  25.1705729  22.9230483  39.0926054  25.0857025  23.7791450  39.2375623
  25.6590113  22.6474807  39.7608213  25.2294627  23.0087805  39.2128135
  26.1024163  19.5415277  40.5923789  25.5735634  19.7574911  41.2521095
  26.6249183  20.2351416  40.5124758  26.1012616  19.6758414  40.6779388
  17.9923770  23.4378494  39.3931257  17.4080986  23.9428526  39.7997121
  17.5893866  23.2120881  38.6527849  17.8463074  23.4786743  39.3436282
  22.4500985  19.6844146  37.8700177  22.6896989  19.8922130  37.0575520
  22.7716826  18.8801655  37.9789122  22.5338143  19.5958248  37.7660730
  16.1148340  14.0207861  38.4137828  15.9323913  14.2379742  37.5878821
  16.9773953  14.1346874  38.4696443  16.2152929  14.0697759  38.2992315
  15.6610367  17.2982034  36.9260301  14.9468544  17.0120213  37.3382734
  16.1454336  17.6378659  37.5666689  15.6269730  17.3063683  37.0815936
  22.8357685  25.8011988  37.3022110  23.2508833  25.4697011  36.6106605
  22.0049614  25.5680890  37.1742246  22.7745693  25.7183244  37.1812957
  25.2768054  20.2073807  43.2546359  25.3714908  20.9463101  43.7085985
  24.6526897  19.7791283  43.6880924  25.1977084  20.2535128  43.3854507
  25.5291075  22.0522547  36.4883311  25.4471237  22.1224734  37.3538298
  26.1670795  22.6152291  36.2967052  25.6110912  22.1461518  36.5873261
  22.6331185  22.0743001  39.4991917  23.4471824  22.3657894  39.3874689
  22.5690326  21.4202864  38.9250210  22.7433924  22.0208196  39.3980755
  19.1441908  20.7666809  38.9639119  19.5287061  20.5474515  39.7155664
  18.8953529  21.5929754  39.0940195  19.1643981  20.8564955  39.0940195
  14.6466322  26.3694804  43.3352459  13.8204440  26.6156541  43.2086738
  14.7078313  26.2906885  44.2014517  14.5340489  26.3939753  43.4441404
  19.4265151  28.9871684  41.0371489  19.7163449  28.5960666  40.3130716
  20.1568632  29.1688389  41.4776765  19.5772035  28.9565498  40.9954296
  16.4820287  24.6907634  42.2929706  17.2366255  25.0720674  42.5065168
  15.8890900  25.1418778  42.7476402  16.5057001  24.8136462  42.3912584
  19.2284839  22.8920215  43.0651312  19.0327622  23.4994949  42.4711615
  19.4519185  22.1988159  42.5842986  19.2319480  22.8797740  42.9067393
  17.6263369  19.7774953  43.1832180  18.3486021  19.9416111  42.7235986
  17.1471362  20.4984618  43.0771520  17.6627100  19.9073182  43.0997794
  28.7241639  24.7079099  39.0218947  28.3448447  23.9216236  39.0148236
  28.0607884  25.2565956  38.8790591  28.5700113  24.6723923  38.9999744
  24.0707207  25.2904801  34.8407723  24.8380192  25.3504926  34.4313574
  23.6238516  24.7185243  34.3564041  24.1180634  25.2141377  34.7085433
  16.0680686  22.1261477  43.4568683  16.2245305  22.0608280  44.3124675
  16.4081279  22.9010029  43.2447363  16.1413920  22.2310675  43.5523278
  22.6059830  21.5019361  42.3262047  23.1475376  20.9989742  42.7900667
  22.9206389  21.4484555  41.5151532  22.7324227  21.4198781  42.2745859
  20.7746280  26.8936712  39.6102075  20.8439100  26.0351251  39.7495075
  21.5534735  27.1108593  39.2821099  20.8999130  26.7989576  39.5819232
  20.1181808  21.5623568  36.3044833  20.4074332  22.3388450  36.5788407
  20.2053607  21.0512299  37.0059332  20.1736064  21.6015486  36.4487331
  19.1528511  16.1138751  42.2187244  19.4288245  15.3957664  41.8064812
  19.7527180  16.7123671  42.0108350  19.2821775  16.0959122  42.1268006
  22.6539031  13.7852269  40.4933839  23.1082778  13.9562829  41.2181684
  23.1279077  13.1720379  40.0931615  22.7907351  13.7203154  40.5407601
  19.9952051  20.4894803  41.5978847  20.7394096  20.8769079  41.8361797
  20.1412747  19.6452228  41.7619334  20.1262636  20.4225276  41.6572816
  24.9113427  16.9556831  40.5598520  24.3836445  17.0385575  39.8704229
  25.3709135  17.6974702  40.5563164  24.9015277  17.0777493  40.4573215
  16.9046492  15.2259350  35.5839415  16.5559296  15.8779076  36.0470964
  16.4242938  15.2116463  34.8563286  16.7816736  15.3202404  35.5450506
  24.4650509  25.5260394  39.6908177  25.1884708  25.9918507  39.5472750
  24.0251100  25.5934004  38.9405774  24.5066201  25.6044231  39.5592958
  17.2770400  17.8517881  41.0965459  17.4173362  18.3490345  41.7994101
  17.7752933  17.1504175  41.2379673  17.3711481  17.8219860  41.2217038
  17.3070623  18.7184992  38.4258036  17.9415702  19.3145417  38.3607498
  17.3896234  18.4188449  39.2403906  17.4127174  18.7625900  38.5361123
  18.8849606  14.6498967  38.4003478  19.2065447  14.1702050  37.7462741
  19.1476549  15.4598613  38.2094290  18.9715631  14.6988865  38.2758970
  13.8123611  20.9152833  41.6947582  14.3215840  21.5117340  42.0758888
  14.2857883  20.6478806  41.0124002  13.9566986  20.9638648  41.6502105
  27.3102330  18.4645688  43.5947543  26.6393520  19.0075390  43.4660609
  28.0042080  18.9340543  43.3529238  27.3131198  18.6143959  43.5403071
  21.9460717  16.5907091  39.8994142  21.3525556  16.9124087  39.3478709
  21.9835995  15.7448186  39.6915248  21.8635106  16.5131419  39.7876913
  24.8218533  16.5486595  43.3295892  24.5932226  16.5719297  42.4874251
  25.0816610  15.7244063  43.4490903  24.8264721  16.4302675  43.2221090
  19.9189949  17.2304342  37.9923472  20.2988914  17.2483971  37.2074587
  19.1782545  17.6758330  37.8714319  19.8658787  17.2986116  37.8587040
  27.5475240  15.5386533  43.5799051  27.5469466  15.3835189  44.4383327
  27.3431420  16.3849520  43.5240436  27.5175017  15.6407154  43.6986990
  20.7174703  24.0681848  39.3832262  19.9086026  23.7448521  39.3365572
  21.2249612  23.3615070  39.3160511  20.6724370  23.9163164  39.3662556
  19.9109120  13.4565870  40.6751104  20.7324814  13.6264183  40.4332798
  19.4478771  13.6113131  39.9517401  19.9640282  13.5047603  40.5322748
  27.8779075  30.7444658  35.5839415  27.5291880  31.3964384  36.0470964
  27.3975521  30.7301771  34.8563286  27.7549319  30.8387712  35.5450506
  16.9051498   5.1787037  29.9623663  16.1534397   4.8002575  29.7339708
  17.3537510   5.2105471  29.2142473  16.8601165   5.1272644  29.8181165
  22.3576458   5.6012407  25.3909210  22.0227826   6.2789328  24.9553432
  22.8703328   5.2117718  24.8026082  22.3842039   5.6436985  25.2396001
  21.8980749   7.5526675  31.3320321  22.2820128   8.1213574  30.7925097
  21.8339890   6.8276186  30.8526138  21.9454176   7.5302139  31.1814184
  18.4836254   5.1905429  32.2286435  18.5846617   4.3805783  32.5383563
  17.8877999   5.0962376  31.5986114  18.4108793   5.0570457  32.1812674
  18.3236994  10.1083018  33.6301291  18.9674449  10.5496182  34.0197450
  18.6493249   9.3036445  33.5431550  18.4668822  10.0548213  33.6746769
  19.0257573   3.1194993  29.0021153  19.3473414   3.6600201  28.3982461
  19.6729670   2.5491765  29.1343443  19.1683629   3.1154168  28.9328188
  21.2647217   1.5081433  29.0735331  21.7040852   0.8998534  29.5190104
  21.1151880   1.1288807  28.3020796  21.3068683   1.3619904  29.0254499
  17.6874594   0.3756625  26.3271304  17.1031810   0.8806657  26.7337168
  17.2844690   0.1499012  25.5867896  17.5413898   0.4164874  26.2776329
  13.2418623   6.0911387  33.1294975  12.7586201   6.8161876  33.1054559
  14.0541941   6.3887517  33.2405133  13.2909371   6.2413740  33.1422254
  19.3132777   4.8843567  35.7344790  18.7959719   4.5250982  35.1306098
  20.0107168   4.3605742  35.7450856  19.3398358   4.7541255  35.6475048
  16.0962820   6.6067562  33.2815255  16.7983400   6.0919552  33.3388012
  16.0160303   6.9341714  34.0862130  16.1886581   6.5781789  33.4088047
  28.5087355   2.7239068  33.0361596  28.0722587   2.7275810  33.7920567
  28.1750270   3.4044567  32.6041173  28.3949975   2.8251523  33.0842428
  22.5308509   2.7390119  24.2362156  22.9459657   2.4075143  23.5446652
  21.7000438   2.5059021  24.1082293  22.4696517   2.6561375  24.1153004
  18.1989917   2.4842650  31.5604276  18.8363864   2.2454398  32.1056070
  18.6244989   2.6879809  30.8257437  18.3566084   2.4793660  31.5321434
  20.5811389   2.9615073  33.2398063  20.6550398   2.7990244  34.0939913
  21.3980896   3.1505262  32.9958544  20.7127748   2.9651815  33.3296088
  14.3417146   3.3072935  30.2692506  13.5155264   3.5534673  30.1426785
  14.4029137   3.2285016  31.1354564  14.2291313   3.3317884  30.3781451
  19.1215975   5.9249816  27.9711536  19.4114273   5.5338797  27.2470763
  19.8519456   6.1066521  28.4116811  19.2722859   5.8943629  27.9294343
  17.0621891   7.9017198  31.0371686  16.8422186   7.6114553  31.8298353
  16.8416413   7.2432153  30.5089598  16.9969485   7.7616906  31.0760594
  19.2289846   9.2746588  29.8202378  19.8813904   8.7423030  30.0493404
  18.5315455   8.9215240  30.2070252  19.2220564   9.1436111  29.9114546
  16.1771111   1.6285766  29.2269752  16.9317079   2.0098805  29.4405215
  15.5841724   2.0796909  29.6816449  16.2007825   1.7514593  29.3252631
  27.2229765   1.5951002  29.1633357  27.7887797   2.2544212  29.0791900
  26.5757668   1.9400700  29.6349760  27.2108521   1.7432943  29.2206114
  23.6936343   4.5389786  28.5870437  23.4523019   3.8057647  28.1797502
  23.8737676   5.0876643  27.9336770  23.6843967   4.5112177  28.4300660
  18.9235663  -0.1701654  29.9991359  18.7278446   0.4373081  29.4051662
  19.1470009  -0.8633710  29.5183033  18.9270304  -0.1824128  29.8407440
  26.9239090   2.2878976  35.1942495  26.7853449   2.9860022  35.6991237
  26.1439088   2.1327632  34.8378676  26.7882316   2.3679143  35.2168769
  21.2439371   5.1970749  29.7947820  22.0089262   4.9280392  29.4730484
  21.1417461   4.7120759  30.5117883  21.3420866   5.0860313  29.8527648
  23.7658031   2.2282933  21.7747769  24.5331016   2.2883057  21.3653621
  23.3189340   1.6563374  21.2904088  23.8131458   2.1519508  21.6425480
  26.6652561   3.8902721  26.2910680  26.7472399   4.6969707  25.9672131
  27.1502303   3.9098680  27.0151453  26.7489719   4.0123383  26.3497578
  19.9760758  10.0838070  37.4202215  20.4656688   9.3848859  37.2377880
  19.4044990   9.7861940  38.0078272  19.9645288   9.9364293  37.4803256
  20.4697104   3.8314843  26.5442121  20.5389924   2.9729382  26.6835122
  21.2485559   4.0486724  26.2161146  20.5949954   3.7367707  26.5159279
  24.8604591   6.2552545  30.7578615  24.4684383   5.9519260  30.0401481
  25.0157664   7.0921634  30.5683569  24.8258181   6.3336381  30.6235112
  25.0244266   2.8202533  30.6984645  24.6658921   2.9917176  31.4748678
  24.5382977   3.2815739  30.1412644  24.9002963   2.9141504  30.7309914
  26.2403262   4.4026238  38.2857203  27.0295640   4.0515302  38.4059285
  26.4146860   5.2162626  38.0233837  26.3823544   4.4712095  38.2645071
  25.6294897   5.6588037  34.1908649  25.4314585   6.1478852  33.4964860
  25.0082608   5.8629279  34.7692783  25.5082461   5.7604575  34.1731872
  24.1601333   2.4638525  26.6248224  24.8835532   2.9296638  26.4812797
  23.7201924   2.5312135  25.8745821  24.2017025   2.5422362  26.4933005
  13.5074435  -2.1469036  28.6287629  14.0166664  -1.5504529  29.0098935
  13.9808707  -2.4143063  27.9464049  13.6517810  -2.0983221  28.5842152
  24.4205183   6.5259230  26.7846285  23.7034492   6.3520093  26.3193522
  25.0711920   6.2911803  26.2521771  24.4107033   6.4655023  26.6375503
  21.0539888   7.5420531  35.7599348  20.8305542   6.7839360  36.1283374
  20.5649731   7.5718552  35.0379788  20.9483337   7.4342755  35.7076089
  19.7018345   7.7620989  33.2136433  19.2878743   7.0995119  32.8240274
  20.3865719   7.9098848  32.6932127  19.7416716   7.6861647  33.0792930
  23.0683639   6.9211074  33.9660049  22.6699922   7.0313345  33.1980870
  22.4534858   7.1293141  34.5486609  22.9182528   6.9684642  33.9391349
  20.4125527   1.0059979  26.3172309  19.6036850   0.6826653  26.2705618
  20.9200436   0.2993201  26.2500558  20.3675194   0.8541295  26.3002603
  16.6672814   8.2030071  35.6149779  16.9819373   9.0166459  35.6227560
  17.0766228   7.8180289  36.2831938  16.7740912   8.2658773  35.7153870
  23.6197334   3.6200118  33.1853591  24.0908512   4.3340380  33.3543576
  23.9557512   3.0198868  33.7213460  23.7392449   3.6371582  33.2885967
  23.8229607   4.4169124  36.4790624  24.6427980   4.2732090  36.7406920
  23.5423684   5.0415323  37.0207062  23.9026350   4.4879476  36.5978564
  40.2943257  12.0733976  29.4433501  40.2637261  12.9278613  29.6151770
  40.8924606  11.7729269  30.0019644  40.3780415  12.1550473  29.5508303
  33.4942942  11.1609627  34.1986431  32.6380837  11.3218125  34.2495548
  33.5410595  10.2901691  34.2191492  33.3742053  11.0560429  34.2092497
  27.8784081  20.6972345  29.9623663  27.1266981  20.3187883  29.7339708
  28.3270093  20.7290779  29.2142473  27.8333748  20.6457952  29.8181165
  33.3309041  21.1197714  25.3909210  32.9960410  21.7974636  24.9553432
  33.8435912  20.7303026  24.8026082  33.3574622  21.1622293  25.2396001
  32.8713333  23.0711983  31.3320321  33.2552712  23.6398882  30.7925097
  32.8072474  22.3461493  30.8526138  32.9186760  23.0487447  31.1814184
  36.3394763  13.2201671  36.8418083  36.8850723  13.8986758  36.9012053
  36.2811639  13.0789132  35.9819664  36.4110677  13.2993673  36.7230143
  29.4568838  20.7090737  32.2286435  29.5579201  19.8991091  32.5383563
  28.8610583  20.6147684  31.5986114  29.3841376  20.5755765  32.1812674
  38.1159831  14.6486278  27.7151811  37.9999357  15.3993964  28.1443949
  38.9115718  14.3910231  27.9647898  38.2164421  14.7221125  27.8155902
  29.2969577  25.6268326  33.6301291  29.9407033  26.0681490  34.0197450
  29.6225833  24.8221752  33.5431550  29.4401406  25.5733521  33.6746769
  22.6533882  16.7311024  31.8538769  22.4184066  15.8978676  31.7471038
  22.7919523  17.0115689  31.0399970  22.6389544  16.6494527  31.7181124
  24.9523969   8.8996754  34.7523077  24.3329001   8.3089402  34.5833091
  24.8507833   9.4908190  34.1187400  24.8461645   8.9000837  34.6328066
  29.9990157  18.6380301  29.0021153  30.3205998  19.1785508  28.3982461
  30.6462253  18.0677073  29.1343443  30.1416212  18.6339476  28.9328188
  32.0491865  10.6396296  29.0855540  32.7472030  10.8184424  29.5777003
  32.3644198  10.1166635  28.4625929  32.1987202  10.5890068  29.0657550
  24.6793102  12.4449036  36.9966646  24.5551799  13.0311481  37.6316465
  25.3311387  11.9509232  37.2978921  24.7566752  12.4587840  37.1352575
  32.2379800  17.0266741  29.0735331  32.6773436  16.4183842  29.5190104
  32.0884463  16.6474114  28.3020796  32.2801266  16.8805212  29.0254499
  29.7051443  15.6210753  36.2754157  30.3500446  15.1283196  35.9565105
  29.9453220  15.7635540  37.1020235  29.8362029  15.5688195  36.3503690
  32.2437535  18.4665659  35.9261049  32.5260778  17.6717065  35.7047805
  32.9723695  18.9446246  35.9466110  32.3927098  18.4200256  35.8964064
  30.2218729   6.0088693  33.1676814  29.8922059   6.4599836  32.4980513
  29.5463730   5.9304856  33.7149821  30.0729165   6.0639828  33.1500038
  35.8389137  15.3793922  26.0266100  35.7540432  16.2354889  26.1715669
  36.3273520  15.1038246  26.6948260  35.8978034  15.4651244  26.1468182
  36.7707570  11.9978717  27.5263836  36.2419042  12.2138350  28.1861142
  37.2932590  12.6914855  27.4464805  36.7696023  12.1321853  27.6119435
  28.6607178  15.8941933  26.3271304  28.0764393  16.3991965  26.7337168
  28.2577273  15.6684320  25.5867896  28.5146482  15.9350182  26.2776329
  24.2151207  21.6096694  33.1294975  23.7318785  22.3347184  33.1054559
  25.0274525  21.9072825  33.2405133  24.2641954  21.7599048  33.1422254
  30.2865361  20.4028875  35.7344790  29.7692302  20.0436290  35.1306098
  30.9839752  19.8791050  35.7450856  30.3130942  20.2726563  35.6475048
  31.5099412  20.1354849  40.6778625  30.9470247  19.7227459  41.2018286
  32.2720436  20.0607755  41.0971768  31.5393861  20.0632250  40.8171625
  33.1184392  12.1407585  24.8040224  33.3580396  12.3485569  23.9915567
  33.4400233  11.3365094  24.9129169  33.2021550  12.0521687  24.7000777
  28.4274683   4.0700981  28.6499762  29.1820651   4.4379298  28.4116812
  28.2502217   4.4440536  29.4178942  28.5129161   4.1799169  28.7284651
  27.0695404  22.1252870  33.2815255  27.7715983  21.6104859  33.3388012
  26.9892887  22.4527022  34.0862130  27.1619164  22.0967097  33.4088047
  28.1174310  12.3628457  42.4095670  28.2894814  12.2534352  43.2580952
  28.6543668  13.0082863  42.1726862  28.2219314  12.4420459  42.5000767
  26.7831747   6.4771300  25.3477875  26.6007321   6.6943181  24.5218868
  27.6457360   6.5910313  25.4036490  26.8836337   6.5261198  25.2332362
  26.3946179  18.3159222  32.7900863  27.2335079  18.5482155  32.8374625
  26.4257948  17.4463534  32.7207898  26.5227897  18.2216169  32.7865508
  27.0198882  18.7360098  37.0914169  27.5597107  18.5931229  37.7617541
  26.3368829  19.1356848  37.4598195  26.9991036  18.7739768  37.2448590
  36.4439767  14.4151098  32.2859193  37.1997282  14.8482613  32.3248102
  36.5502092  13.7655868  32.8593829  36.5709938  14.3828582  32.3757219
  39.4819938  18.2424375  33.0361596  39.0455170  18.2461118  33.7920567
  39.1482854  18.9229874  32.6041173  39.3682558  18.3436831  33.0842428
  22.4236027  14.9560388  37.2448590  22.1574443  14.1399505  37.4039580
  22.4374592  15.0013544  36.3744106  22.3860750  14.8417293  37.1402072
  26.3293774   9.7545473  23.8600348  25.6151951   9.4683652  24.2722781
  26.8137743  10.0942099  24.5006736  26.2953138   9.7627122  24.0155983
  27.1734634   8.4938767  39.8915598  26.4806431   8.0235746  40.1376329
  27.7894961   8.2677071  40.4657305  27.1619164   8.3905898  40.0124750
  34.2119405  22.1942810  38.0071202  33.4134651  21.9542310  38.2645070
  34.6605417  22.2457203  38.7538249  34.1594016  22.1665201  38.1556126
  33.5041092  18.2575427  24.2362156  33.9192241  17.9260451  23.5446652
  32.6733022  18.0244329  24.1082293  33.4429101  18.1746683  24.1153004
  22.8329441  15.7419168  34.5260334  22.6505014  15.7166054  33.6732627
  23.5679110  16.2118106  34.5649243  22.9143505  15.8080530  34.4058253
  38.9029115  15.9770678  31.6693222  39.1384704  16.1215877  30.8420073
  39.0518679  16.7413086  32.0624736  38.9594918  16.1109732  31.6056826
  25.8975193  12.4604171  41.0342443  26.6215165  12.4457201  41.5207338
  25.9991329  13.1699526  40.5364411  26.0193402  12.5628874  41.0321230
  40.7319572  14.8172344  29.5062826  41.0627789  15.3499984  28.9002921
  41.3052660  14.8711231  30.1624777  40.8653251  14.9041913  29.5140607
  35.9451461  12.6637246  30.1886406  36.0398315  13.4026540  30.6426031
  35.3210305  12.2354722  30.6220970  35.8660491  12.7098567  30.3194553
  22.8000351  12.6212668  34.6759401  23.3773854  12.4849119  35.3151646
  22.1014413  12.1648453  34.9304985  22.7821373  12.5334935  34.8081691
  36.1974482  14.5085986  23.4223358  36.1154645  14.5788173  24.2878345
  36.8354203  15.0715730  23.2307098  36.2794320  14.6024957  23.5213307
  29.5567654  14.2746724  32.8897884  29.2986898  13.4418459  32.8629184
  29.6116136  14.5004337  32.0490385  29.5267431  14.1844495  32.7618021
  34.6368704   6.3775175  32.9901977  33.9325030   5.8884360  33.1485896
  34.6853678   6.3897649  32.1190421  34.5398755   6.3064823  32.8841317
  28.5302366  11.8284487  33.3762779  27.9551957  11.9876655  34.0126740
  28.1538042  11.1919896  32.9131229  28.3905178  11.7582300  33.4017337
  32.1975654  10.3007836  38.2355157  31.8090087   9.8762054  37.5807349
  31.5330353  10.5489986  38.7432184  32.0422582  10.2746557  38.2143025
  18.2759185  11.4724561  31.3907220  18.3619436  11.0956430  32.1720749
  18.9034982  11.0985007  30.9127178  18.3815736  11.3610044  31.4352697
  33.3014593  14.5306440  26.4331964  34.1155231  14.8221333  26.3214736
  33.2373734  13.8766303  25.8590257  33.4117332  14.4771635  26.3320802
  29.1722501  18.0027958  31.5604276  29.8096448  17.7639705  32.1056070
  29.5977572  18.2065117  30.8257437  29.3298667  17.9978968  31.5321434
  23.8635143  20.2416294  35.4438580  23.9039289  20.5131145  34.6158360
  24.4229667  20.7658202  35.8596368  23.9518489  20.3592049  35.3830468
  29.8125316  13.2230248  25.8979166  30.1970469  13.0037954  26.6495711
  29.5636936  14.0493193  26.0280242  29.8327388  13.3128394  26.0280242
  31.5543973  18.4800381  33.2398063  31.6282981  18.3175552  34.0939913
  32.3713479  18.6690570  32.9958544  31.6860331  18.4837123  33.3296088
  25.3149730  18.8258243  30.2692506  24.4887847  19.0719981  30.1426785
  25.3761721  18.7470324  31.1354564  25.2023896  18.8503192  30.3781451
  27.5325753   4.8927184  31.2287946  26.6648179   4.9649784  31.2945556
  27.8200958   5.6949263  31.4175921  27.4465501   5.0221331  31.2662713
  30.0948559  21.4435124  27.9711536  30.3846857  21.0524105  27.2470763
  30.8252039  21.6251828  28.4116811  30.2455443  21.4128937  27.9294343
  30.6843304  16.2452869  39.0564667  30.1854997  16.9568637  39.1349555
  31.4943528  16.5653536  39.0182829  30.7299410  16.3979718  39.0621235
  28.0354474  23.4202506  31.0371686  27.8154770  23.1299861  31.8298353
  27.8148996  22.7617461  30.5089598  27.9702068  23.2802214  31.0760594
  26.9471421  15.5075822  33.3027387  26.6584670  14.8813294  33.8373115
  27.8154769  15.4496110  33.3692068  27.0331673  15.4063367  33.3918342
  37.7349319  10.6510606  33.6209369  37.3914085   9.9300941  33.9716619
  37.8342362  10.4424457  32.7787728  37.6991362  10.5134809  33.5481049
  30.2022430  24.7931896  29.8202378  30.8546488  24.2608338  30.0493404
  29.5048039  24.4400548  30.2070252  30.1953148  24.6621419  29.9114546
  27.1503695  17.1471074  29.2269752  27.9049663  17.5284113  29.4405215
  26.5574307  17.5982217  29.6816449  27.1740408  17.2699901  29.3252631
  38.1962348  17.1136310  29.1633357  38.7620381  17.7729520  29.0791900
  37.5490252  17.4586008  29.6349760  38.1841105  17.2618251  29.2206114
  28.4701921  18.3179635  34.6009868  27.9482675  18.4579927  35.2861733
  28.8575942  17.5590299  34.7911985  28.4505622  18.2265159  34.7310944
  25.4593105   8.3685444  28.6704823  25.1717901   7.9986714  27.9336770
  26.1463574   8.8380299  28.4088527  25.5182003   8.3832413  28.5219898
  34.6668926  20.0575094  28.5870437  34.4255602  19.3242955  28.1797502
  34.8470259  20.6061951  27.9336770  34.6576550  20.0297485  28.4300660
  29.8968247  15.3483654  29.9991359  29.7011030  15.9558388  29.4051662
  30.1202592  14.6551598  29.5183033  29.9002888  15.3361179  29.8407440
  28.2946777  12.2338392  30.1172227  29.0169429  12.3979550  29.6576033
  27.8154770  12.9548057  30.0111567  28.3310508  12.3636621  30.0337841
  25.9454394  14.6396464  39.2226367  26.4575491  14.9180718  38.5735127
  25.6590736  15.3785758  39.5889180  25.9789257  14.7898818  39.1816245
  34.7009563   5.4687568  30.2296528  35.4035916   5.2695316  29.7516486
  34.4353752   4.6963510  30.5365372  34.7656195   5.3250534  30.2041970
  40.1297808  13.7770177  32.7830154  40.0431783  13.9325603  33.6364933
  39.6748288  14.4208253  32.4089559  40.0501065  13.8945933  32.8537261
  23.0321300   9.1466656  29.5190104  23.1337436   9.9492818  29.8471079
  23.8277187   8.9453992  29.2213184  23.1649206   9.2352555  29.5225459
  23.8485032   9.2613834  37.2611225  23.7070524   8.4097775  37.3855733
  24.1325595   9.3042495  36.4373431  23.8692878   9.1413584  37.1578849
  34.0023624  11.0980925  31.4055713  33.7558339  11.0176675  32.2392502
  34.3308747  10.3134392  31.2118241  34.0144868  10.9707190  31.5003237
  37.8971673  17.8064284  35.1942495  37.7586033  18.5045330  35.6991237
  37.1171671  17.6512940  34.8378676  37.7614900  17.8864451  35.2168769
  29.9620652  13.8337643  40.8178697  30.1064027  14.4138851  40.1821807
  30.3096300  14.2113940  41.5228551  30.0348113  13.9758347  40.8277691
  32.1340569  13.0327811  38.6003828  31.3863883  13.2258826  38.1952106
  32.2882094  12.2073031  38.3627949  32.0462997  12.9392923  38.5049234
  29.0348407  22.0240415  37.6839723  29.1837970  21.4643331  37.0313128
  29.8148409  22.1032417  38.0672242  29.1722500  21.9525980  37.6436673
  39.3925046  17.1642538  25.9558994  39.0131855  16.3779676  25.9488283
  38.7291291  17.7129395  25.8130638  39.2383521  17.1287362  25.9339791
  31.5601707  22.1955058  38.9624214  31.4845378  21.5263868  39.5175002
  31.4891566  22.8972846  39.4764880  31.5382314  22.1999965  39.1201062
  32.2171954  20.7156057  29.7947820  32.9821845  20.4465700  29.4730484
  32.1150044  20.2306067  30.5117883  32.3153450  20.6045621  29.8527648
  30.2524724   8.9180466  36.3341056  29.4620799   8.7371926  36.6558392
  30.6485347   8.1407419  36.3171350  30.1941600   8.7767927  36.3793604
  34.7390615  17.7468240  21.7747769  35.5063600  17.8068365  21.3653621
  34.2921924  17.1748682  21.2904088  34.7864042  17.6704816  21.6425480
  35.6368410  16.5522896  34.0600502  34.9613412  16.3208129  34.5613889
  35.6460786  15.9444079  33.4342607  35.5386915  16.4281821  34.0416654
  37.6385145  19.4088029  26.2910680  37.7204982  20.2155015  25.9672131
  38.1234887  19.4283988  27.0151453  37.7222303  19.5308691  26.3497578
  31.4481648  14.0872865  34.9580758  31.0243897  14.2877364  34.2219776
  31.2726503  13.2401713  35.0705058  31.3592529  13.9921646  34.8654448
  30.9493342  25.6023378  37.4202215  31.4389272  24.9034167  37.2377880
  30.3777574  25.3047248  38.0078272  30.9377872  25.4549601  37.4803256
  26.7364093  14.5824916  30.3908730  26.8928712  14.5171719  31.2464722
  27.0764686  15.3573469  30.1787410  26.8097328  14.6874114  30.4863324
  33.2743238  13.9582800  29.2602093  33.8158783  13.4553181  29.7240714
  33.5889797  13.9047994  28.4491579  33.4007635  13.8762221  29.2085906
  31.4429687  19.3500151  26.5442121  31.5122508  18.4914690  26.6835122
  32.2218143  19.5672032  26.2161146  31.5682538  19.2553015  26.5159279
  35.8337175  21.7737852  30.7578615  35.4416967  21.4704568  30.0401481
  35.9890247  22.6106942  30.5683569  35.7990765  21.8521689  30.6235112
  23.3098355  11.7659867  30.7069497  23.6897319  12.1844411  30.0429765
  22.7353719  12.3473322  31.0138341  23.2809679  11.9137725  30.6546238
  35.9976850  18.3387841  30.6984645  35.6391505  18.5102484  31.4748678
  35.5115561  18.8001047  30.1412644  35.8735547  18.4326812  30.7309914
  30.7865215  14.0187007  23.2384880  31.0757740  14.7951889  23.5128454
  30.8737014  13.5075738  23.9399379  30.8419471  14.0578925  23.3827378
  30.8396376   3.9725268  35.7585207  30.3234865   3.2805460  35.8836786
  30.2790305   4.6396045  35.7047806  30.6802890   3.9688526  35.7691273
  37.2135846  19.9211546  38.2857203  38.0028224  19.5700610  38.4059285
  37.3879444  20.7347934  38.0233837  37.3556127  19.9897403  38.2645071
  26.9529156  13.3320271  35.3384992  26.1117163  13.2324145  35.5463886
  27.1619164  14.1015752  35.6899312  26.8593849  13.4312315  35.4212307
  24.4304723  10.9539808  33.1669742  24.0361421  11.0282820  32.3919852
  23.8744840  11.3397755  33.7178104  24.2907535  11.0221583  33.1337402
  30.7645821  11.2601670  34.5882589  30.4608959  10.7057659  35.1892997
  30.0625242  11.4393880  34.1010624  30.6162031  11.2046453  34.6052295
  29.8211918   8.5702190  29.1527291  30.0971652   7.8521103  28.7404859
  30.4210587   9.1687110  28.9448397  29.9505183   8.5522561  29.0608052
  28.8264172  18.4751391  39.2954687  28.7184527  18.4853453  40.1616745
  29.0359954  19.3006172  39.1059641  28.8414283  18.5992466  39.3958779
  33.3222439   6.2415708  27.4273886  33.7766185   6.4126268  28.1521731
  33.7962484   5.6283818  27.0271662  33.4590759   6.1766593  27.4747648
  26.8437964  15.7264034  36.7576625  26.2525897  16.3673532  36.7279640
  27.6058988  16.1501651  36.7307924  26.8686225  15.8839872  36.7491772
  27.2398587   6.8866031  37.4244642  27.7000068   6.9604961  38.1619766
  27.2854694   7.6847285  37.0744464  27.3149142   7.0160178  37.4817399
  36.6027480  21.1773345  34.1908649  36.4047169  21.6664160  33.4964860
  35.9815191  21.3814587  34.7692783  36.4815045  21.2789883  34.1731872
  30.6635459  12.9458242  28.5318893  31.4077504  13.3332518  28.7701843
  30.8096155  12.1015667  28.6959381  30.7946044  12.8788715  28.5912863
  32.5815034   4.7408501  33.5650755  31.7351079   4.9131309  33.4392105
  32.5786167   3.9357845  33.9016583  32.4562184   4.6469530  33.5961882
  33.6513334   8.5183715  34.4312813  33.1773289   7.9925477  34.9418124
  34.0231470   7.9713188  33.8627674  33.6363223   8.3599712  34.4227960
  24.0286365  10.5155222  39.7996359  24.8911978  10.4150931  39.7133688
  23.6978148   9.9349931  39.2381931  24.1071561  10.4146849  39.7041764
  35.5796834   9.4120270  27.4938567  35.0519853   9.4949014  26.8044275
  36.0392542  10.1538141  27.4903211  35.5698685   9.5340932  27.3913262
  27.3888151   9.3397671  36.4606777  26.7641221   9.3516063  35.8532729
  27.0533745   9.8157846  37.1098017  27.2473642   9.4116188  36.4663345
  27.5729899   7.6822789  22.5179462  27.2242704   8.3342515  22.9811011
  27.0926345   7.6679903  21.7903333  27.4500143   7.7765843  22.4790553
  24.1013826  17.3998131  37.9010541  23.5713751  16.7090570  37.9505516
  24.3738919  17.3908316  37.0723250  24.0638548  17.2965263  37.7857957
  35.1333917  17.9823833  26.6248224  35.8568116  18.4481946  26.4812797
  34.6934508  18.0497443  25.8745821  35.1749609  18.0607670  26.4933005
  34.3020072  14.8421376  37.8748913  33.6877065  14.2979426  38.1697548
  34.8187357  14.3285612  37.3954729  34.2875734  14.6857785  37.8473141
  33.5416369  15.9125646  35.6093211  33.1143977  15.2875364  35.1758647
  33.5341313  15.6300568  36.4352218  33.4775510  15.7778426  35.6673039
  26.6578896  10.9490819  38.6781645  26.8172383  10.1934143  39.0833367
  26.4771790  11.4981758  39.3322383  26.6544255  10.9184633  38.8344351
  31.8702079   6.7894400  35.8235745  31.8944566   6.2554513  35.1348525
  32.1213552   6.2811709  36.4861336  31.9111997   6.6355304  35.8200390
  19.3809668  14.0725895  35.2578889  19.2753117  14.0272740  34.3930973
  18.6309888  14.4179676  35.5393174  19.2545271  14.1166803  35.1716219
  28.1503401   5.5165219  35.2041490  28.1901772   6.0174425  35.9176197
  27.3253065   5.6075612  34.9347413  28.0342927   5.6047035  35.2692028
  29.5717764  12.0325728  37.5015389  28.7409694  12.1999546  37.2950637
  29.5169281  11.6561679  38.2864274  29.4407179  12.0015460  37.5863917
  27.9453808  10.3081320  28.0305506  28.0856769  10.8053784  28.7334148
  28.4436341   9.6067614  28.1719720  28.0394889  10.2783299  28.1557085
  27.9754030  11.1748431  25.3598083  28.6099110  11.7708856  25.2947545
  28.0579641  10.8751889  26.1743953  28.0810581  11.2189339  25.4701170
  29.5533013   7.1062406  25.3343525  29.8748854   6.6265489  24.6802787
  29.8159957   7.9162052  25.1434337  29.6399039   7.1552304  25.2099017
  32.7829986  18.1281281  38.8542341  32.2755077  18.6817127  39.2982972
  32.4856632  18.1889571  38.0361116  32.6634871  18.2187592  38.7990798
  24.4807018  13.3716272  28.6287629  24.9899248  13.9680779  29.0098935
  24.9541291  13.1042245  27.9464049  24.6250394  13.4202087  28.5842152
  35.3937766  22.0444538  26.7846285  34.6767076  21.8705401  26.3193522
  36.0444504  21.8097111  26.2521771  35.3839617  21.9840331  26.6375503
  37.9785738  10.9209127  30.5287590  37.3076927  11.4638829  30.4000655
  38.6725488  11.3903982  30.2869285  37.9814605  11.0707398  30.4743118
  32.0272471  23.0605839  35.7599348  31.8038126  22.3024668  36.1283374
  31.5382315  23.0903860  35.0379788  31.9215920  22.9528063  35.7076089
  26.8397550  10.0072530  31.4960810  26.1209539  10.4236663  31.7633673
  27.2109912  10.5726769  30.9452448  26.7889482  10.1521812  31.4543617
  30.6750928  23.2806297  33.2136433  30.2611327  22.6180427  32.8240274
  31.3598302  23.4284156  32.6932127  30.7149300  23.2046955  33.0792930
  34.0416222  22.4396382  33.9660049  33.6432506  22.5498653  33.1980870
  33.4267442  22.6478449  34.5486609  33.8915112  22.4869950  33.9391349
  32.6144124   9.0470530  26.8334189  32.0208964   9.3687527  26.2818756
  32.6519402   8.2011626  26.6255295  32.5318513   8.9694858  26.7216960
  35.4901941   9.0050035  30.2635939  35.2615634   9.0282736  29.4214297
  35.7500017   8.1807502  30.3830950  35.4948129   8.8866115  30.1561137
  29.7721169  10.8584508  39.8661039  29.2600072  10.2505691  40.2246071
  29.6000666  11.5741100  40.3335015  29.6710806  10.8747807  39.9877263
  28.5446703   7.5426581  31.5590135  29.0204070   7.9043661  30.9240316
  28.0435303   8.1983048  31.8390278  28.5412062   7.6920770  31.5066876
  21.5188949  12.2068949  37.7751891  20.9715668  11.5369594  37.8932759
  22.3081327  11.8398796  37.8395358  21.5541132  12.0533935  37.8020592
  30.5873357   9.6867781  24.9263519  30.9672321   9.7047410  24.1414634
  29.8465953  10.1321770  24.8054366  30.5342194   9.7549555  24.7927087
  38.2158647   7.9949972  30.5139098  38.2152874   7.8398628  31.3723374
  38.0114827   8.8412959  30.4580483  38.1858425   8.0970593  30.6327037
  20.2775918  11.4189756  34.9297914  20.0997679  10.9666365  35.6552830
  19.9894940  12.2215918  35.1136392  20.2088871  11.4712314  35.0641417
  35.9399499  12.6747474  34.1675304  36.4353164  11.9570469  34.1279325
  35.1299275  12.3718271  34.0529791  35.8943392  12.5245120  34.1449030
  31.3858111  16.5245287  26.3172309  30.5769433  16.2011960  26.2705618
  31.8933020  15.8178509  26.2500558  31.3407777  16.3726603  26.3002603
  22.0148388  13.9517480  32.0419673  21.1493907  13.9403171  31.9302444
  22.1147204  13.7647703  32.8890812  21.9022555  13.9223541  32.1508618
  38.0051318  15.4251161  36.8552433  38.4306390  14.9025583  36.3022858
  37.6408238  16.0231999  36.3341056  38.0137921  15.4361388  36.6961443
  27.6405398  23.7215379  35.6149779  27.9551957  24.5351767  35.6227560
  28.0498811  23.3365597  36.2831938  27.7473496  23.7844081  35.7153870
  34.5929917  19.1385425  33.1853591  35.0641096  19.8525688  33.3543576
  34.9290096  18.5384176  33.7213460  34.7125033  19.1556890  33.2885967
  35.2303864  18.9303360  39.9481283  34.6824810  18.3061243  39.6801349
  35.6916893  19.1197632  39.2325363  35.2171073  18.8662410  39.8031714
  30.5792527   5.9129309  27.6091150  31.4008222   6.0827622  27.3672845
  30.1162178   6.0676570  26.8857448  30.6323690   5.9611042  27.4662795
  24.9818418  17.6688487  35.2628387  25.5863275  17.6284321  34.6342208
  24.7745731  18.5159639  35.2932443  25.0407315  17.7876490  35.1744504
  34.7962190  19.9354432  36.4790624  35.6160564  19.7917398  36.7406920
  34.5156268  20.5600631  37.0207062  34.8758933  20.0064784  36.5978564
  20.2169700  16.6523105  35.1327310  20.1193978  15.8419376  35.4417367
  20.9998570  16.6314898  34.7473578  20.3185837  16.5290195  35.1214173
  33.6266466  32.2496332  31.8538769  33.3916650  31.4163984  31.7471038
  33.7652106  32.5300997  31.0399970  33.6122128  32.1679835  31.7181124
  35.9256553  24.4182062  34.7523077  35.3061585  23.8274709  34.5833091
  35.8240417  25.0093497  34.1187400  35.8194228  24.4186145  34.6328066
  40.9722741  34.1565609  29.0021153  41.2938582  34.6970816  28.3982461
  41.6194837  33.5862380  29.1343443  41.1148796  34.1524784  28.9328188
  41.1951312  21.5274001  33.1676814  40.8654642  21.9785144  32.4980513
  40.5196314  21.4490164  33.7149821  41.0461748  21.5825136  33.1500038
  39.6339762  31.4127241  26.3271304  39.0496977  31.9177273  26.7337168
  39.2309857  31.1869628  25.5867896  39.4879065  31.4535490  26.2776329
  39.4007266  19.5886289  28.6499762  40.1553234  19.9564606  28.4116812
  39.2234801  19.9625843  29.4178942  39.4861745  19.6984477  28.7284651
  37.7564331  21.9956608  25.3477875  37.5739904  22.2128489  24.5218868
  38.6189944  22.1095621  25.4036490  37.8568920  22.0446506  25.2332362
  37.3026358  25.2730781  23.8600348  36.5884535  24.9868960  24.2722781
  37.7870327  25.6127407  24.5006736  37.2685721  25.2812430  24.0155983
  33.7732935  28.1397976  34.6759401  34.3506438  28.0034427  35.3151646
  33.0746997  27.6833761  34.9304985  33.7553956  28.0520243  34.8081691
  39.5034949  27.3469794  33.3762779  38.9284541  27.5061963  34.0126740
  39.1270626  26.7105204  32.9131229  39.3637762  27.2767607  33.4017337
  29.2491768  26.9909869  31.3907220  29.3352020  26.6141738  32.1720749
  29.8767566  26.6170315  30.9127178  29.3548319  26.8795351  31.4352697
  40.7857899  28.7415556  25.8979166  41.1703052  28.5223262  26.6495711
  40.5369520  29.5678501  26.0280242  40.8059972  28.8313702  26.0280242
  36.2882313  34.3443551  30.2692506  35.4620431  34.5905288  30.1426785
  36.3494304  34.2655632  31.1354564  36.1756480  34.3688500  30.3781451
  38.5058337  20.4112492  31.2287946  37.6380762  20.4835092  31.2945556
  38.7933541  21.2134571  31.4175921  38.4198085  20.5406639  31.2662713
  38.1236278  32.6656381  29.2269752  38.8782246  33.0469421  29.4405215
  37.5306891  33.1167525  29.6816449  38.1472992  32.7885209  29.3252631
  36.4325689  23.8870752  28.6704823  36.1450485  23.5172022  27.9336770
  37.1196157  24.3565607  28.4088527  36.4914586  23.9017721  28.5219898
  40.8700830  30.8668962  29.9991359  40.6743613  31.4743696  29.4051662
  41.0935176  30.1736906  29.5183033  40.8735472  30.8546487  29.8407440
  39.2679360  27.7523700  30.1172227  39.9902012  27.9164858  29.6576033
  38.7887353  28.4733365  30.0111567  39.3043091  27.8821929  30.0337841
  34.0053884  24.6651964  29.5190104  34.1070020  25.4678125  29.8471079
  34.8009770  24.4639300  29.2213184  34.1381789  24.7537863  29.5225459
  34.8217616  24.7799142  37.2611225  34.6803107  23.9283083  37.3855733
  35.1058179  24.8227803  36.4373431  34.8425462  24.6598892  37.1578849
  37.7096677  30.1010224  30.3908730  37.8661296  30.0357027  31.2464722
  38.0497270  30.8758777  30.1787410  37.7829912  30.2059422  30.4863324
  34.2830938  27.2845174  30.7069497  34.6629903  27.7029719  30.0429765
  33.7086303  27.8658630  31.0138341  34.2542263  27.4323033  30.6546238
  35.4037307  26.4725116  33.1669742  35.0094004  26.5468128  32.3919852
  34.8477424  26.8583062  33.7178104  35.2640119  26.5406891  33.1337402
  40.7944502  24.0887498  29.1527291  41.0704236  23.3706411  28.7404859
  41.3943171  24.6872418  28.9448397  40.9237766  24.0707869  29.0608052
  38.5462483  23.2008097  22.5179462  38.1975287  23.8527823  22.9811011
  38.0658929  23.1865210  21.7903333  38.4232727  23.2951151  22.4790553
  30.3542252  29.5911203  35.2578889  30.2485701  29.5458047  34.3930973
  29.6042472  29.9364984  35.5393174  30.2277855  29.6352111  35.1716219
  39.1235984  21.0350526  35.2041490  39.1634356  21.5359733  35.9176197
  38.2985649  21.1260920  34.9347413  39.0075510  21.1232343  35.2692028
  38.9186392  25.8266628  28.0305506  39.0589353  26.3239092  28.7334148
  39.4168924  25.1252922  28.1719720  39.0127472  25.7968607  28.1557085
  38.9486614  26.6933739  25.3598083  39.5831693  27.2894164  25.2947545
  39.0312225  26.3937196  26.1743953  39.0543165  26.7374647  25.4701170
  40.5265597  22.6247714  25.3343525  40.8481438  22.1450797  24.6802787
  40.7892541  23.4347360  25.1434337  40.6131622  22.6737612  25.2099017
  35.4539602  28.8901580  28.6287629  35.9631831  29.4866087  29.0098935
  35.9273874  28.6227553  27.9464049  35.5982978  28.9387395  28.5842152
  37.8130134  25.5257838  31.4960810  37.0942123  25.9421971  31.7633673
  38.1842496  26.0912077  30.9452448  37.7622065  25.6707120  31.4543617
  39.5179287  23.0611889  31.5590135  39.9936653  23.4228969  30.9240316
  39.0167887  23.7168356  31.8390278  39.5144646  23.2106078  31.5066876
  31.2508502  26.9375064  34.9297914  31.0730263  26.4851673  35.6552830
  30.9627524  27.7401226  35.1136392  31.1821455  26.9897622  35.0641417
  32.9880972  29.4702788  32.0419673  32.1226491  29.4588478  31.9302444
  33.0879787  29.2833011  32.8890812  32.8755138  29.4408849  32.1508618
  31.1902284  32.1708413  35.1327310  31.0926562  31.3604684  35.4417367
  31.9731154  32.1500206  34.7473578  31.2918420  32.0475503  35.1214173
  38.5467489  13.1535784  16.8963710  37.7950389  12.7751322  16.6679755
  38.9953501  13.1854218  16.1482520  38.5017156  13.1021391  16.7521212
  40.1252245  13.1654176  19.1626482  40.2262608  12.3554530  19.4723610
  39.5293990  13.0711123  18.5326161  40.0524784  13.0319204  19.1152721
  39.9652985  18.0831765  20.5641338  40.6090440  18.5244929  20.9537497
  40.2909240  17.2785192  20.4771597  40.1084813  18.0296960  20.6086815
  33.3217289   9.1874463  18.7878816  33.0867474   8.3542115  18.6811085
  33.4602930   9.4679128  17.9740017  33.3072952   9.1057966  18.6521171
  40.6673564  11.0943740  15.9361200  40.9889406  11.6348948  15.3322508
  41.3145661  10.5240512  16.0683490  40.8099620  11.0902915  15.8668235
  40.3734851   8.0774192  23.2094204  41.0183853   7.5846635  22.8905152
  40.6136628   8.2198979  24.0360282  40.5045436   8.0251634  23.2843737
  39.3290585   8.3505372  13.2611350  38.7447801   8.8555404  13.6677214
  38.9260681   8.1247759  12.5207942  39.1829889   8.3913621  13.2116376
  34.8834614  14.0660134  20.0635022  34.4002192  14.7910623  20.0394606
  35.6957932  14.3636264  20.1745180  34.9325362  14.2162487  20.0762301
  37.7378811  14.5816309  20.2155302  38.4399391  14.0668299  20.2728058
  37.6576294  14.9090461  21.0202177  37.8302572  14.5530536  20.3428094
  37.0629587  10.7722661  19.7240910  37.9018486  11.0045594  19.7714671
  37.0941356   9.9026973  19.6547945  37.1911304  10.6779608  19.7205555
  37.6882290  11.1923537  24.0254215  38.2280515  11.0494668  24.6957588
  37.0052236  11.5920287  24.3938242  37.6674444  11.2303208  24.1788637
  33.0919435   7.4123827  24.1788637  32.8257850   6.5962944  24.3379627
  33.1057999   7.4576983  23.3084152  33.0544157   7.2980732  24.0742119
  33.5012849   8.1982607  21.4600381  33.3188422   8.1729493  20.6072673
  34.2362517   8.6681545  21.4989290  33.5826912   8.2643969  21.3398300
  33.4683759   5.0776108  21.6099448  34.0457262   4.9412558  22.2491693
  32.7697821   4.6211892  21.8645032  33.4504780   4.9898374  21.7421737
  40.2251061   6.7310163  19.8237931  39.9670305   5.8981898  19.7969230
  40.2799544   6.9567776  18.9830431  40.1950839   6.6407934  19.6958068
  28.9442592   3.9288000  18.3247266  29.0302844   3.5519869  19.1060796
  29.5718390   3.5548446  17.8467225  29.0499143   3.8173483  18.3692744
  39.8405908  10.4591397  18.4944323  40.4779855  10.2203145  19.0396117
  40.2660980  10.6628556  17.7597484  39.9982075  10.4542407  18.4661481
  34.5318551  12.6979734  22.3778627  34.5722696  12.9694585  21.5498407
  35.0913075  13.2221642  22.7936415  34.6201897  12.8155489  22.3170515
  35.9833137  11.2821682  17.2032553  35.1571255  11.5283420  17.0766832
  36.0445128  11.2033763  18.0694611  35.8707304  11.3066631  17.3121497
  40.7631966  13.8998563  14.9051583  41.0530264  13.5087544  14.1810809
  41.4935447  14.0815268  15.3456858  40.9138850  13.8692376  14.8634390
  38.7037882  15.8765945  17.9711733  38.4838177  15.5863300  18.7638400
  38.4832404  15.2180900  17.4429645  38.6385476  15.7365653  18.0100641
  37.6154829   7.9639262  20.2367434  37.3268077   7.3376733  20.7713162
  38.4838177   7.9059549  20.3032115  37.7015081   7.8626806  20.3258389
  40.8705837  17.2495335  16.7542425  41.5229895  16.7171777  16.9833451
  40.1731446  16.8963987  17.1410299  40.8636555  17.1184858  16.8454593
  37.8187102   9.6034513  16.1609799  38.5733070   9.9847552  16.3745262
  37.2257715  10.0545656  16.6156496  37.8423816   9.7263340  16.2592678
  39.1385329  10.7743074  21.5349915  38.6166082  10.9143366  22.2201779
  39.5259349  10.0153738  21.7252032  39.1189030  10.6828598  21.6650991
  40.5651654   7.8047093  16.9331406  40.3694437   8.4121828  16.3391709
  40.7886000   7.1115037  16.4523080  40.5686295   7.7924619  16.7747487
  36.6137801   7.0959903  26.1566414  37.1258898   7.3744157  25.5075174
  36.3274144   7.8349197  26.5229227  36.6472664   7.2462257  26.1156292
  40.6304059   6.2901082  27.7518743  40.7747435   6.8702290  27.1161853
  40.9779708   6.6677379  28.4568598  40.7031521   6.4321786  27.7617738
  39.7031814  14.4803854  24.6179770  39.8521378  13.9206770  23.9653175
  40.4831816  14.5595856  25.0012289  39.8405908  14.4089420  24.5776719
  37.4047501   7.0388355  17.3248777  37.5612120   6.9735158  18.1804769
  37.7448094   7.8136908  17.1127457  37.4780735   7.1437553  17.4203371
  33.9781762   4.2223306  17.6409544  34.3580727   4.6407851  16.9769812
  33.4037127   4.8036761  17.9478388  33.9493087   4.3701164  17.5886285
  37.6212564   5.7883710  22.2725039  36.7800570   5.6887585  22.4803932
  37.8302572   6.5579191  22.6239359  37.5277256   5.8875754  22.3552354
  39.4947580  10.9314830  26.2294734  39.3867934  10.9416892  27.0956792
  39.7043361  11.7569611  26.0399688  39.5097691  11.0555905  26.3298826
  37.5121372   8.1827473  23.6916672  36.9209305   8.8236971  23.6619687
  38.2742395   8.6065090  23.6647971  37.5369632   8.3403311  23.6831819
  34.7697234   9.8561570  24.8350588  34.2397158   9.1654009  24.8845563
  35.0422327   9.8471755  24.0063296  34.7321956   9.7528702  24.7198004
  30.0493076   6.5289334  22.1918936  29.9436525   6.4836179  21.3271020
  29.2993296   6.8743115  22.4733221  29.9228679   6.5730242  22.1056266
  35.1490426   5.8279711  15.5627676  35.6582655   6.4244218  15.9438981
  35.6224698   5.5605684  14.8804096  35.2933801   5.8765526  15.5182199
  32.1872356   4.6632388  24.7091938  31.6399076   3.9933033  24.8272806
  32.9764734   4.2962235  24.7735405  32.2224540   4.5097374  24.7360638
  30.9459326   3.8753195  21.8637961  30.7681087   3.4229804  22.5892877
  30.6578348   4.6779357  22.0476438  30.8772279   3.9275753  21.9981464
  32.6831795   6.4080919  18.9759720  31.8177315   6.3966610  18.8642491
  32.7830611   6.2211142  19.8230859  32.5705962   6.3786980  19.0848664
  38.3088805  16.1778818  22.5489826  38.6235364  16.9915206  22.5567607
  38.7182219  15.7929036  23.2171985  38.4156903  16.2407520  22.6493917
  35.6501825  10.1251926  22.1968434  36.2546683  10.0847760  21.5682255
  35.4429138  10.9723078  22.2272490  35.7090723  10.2439929  22.1084550
  30.8853108   9.1086544  22.0667357  30.7877386   8.2982815  22.3757414
  31.6681977   9.0878337  21.6813625  30.9869244   8.9853634  22.0554220
  39.9175176  19.4473308  18.3247266  40.0035427  19.0705177  19.1060796
  40.5450973  19.0733754  17.8467225  40.0231727  19.3358791  18.3692744
  41.0225659  22.0474642  22.1918936  40.9169109  22.0021487  21.3271020
  40.2725879  22.3928423  22.4733221  40.8961262  22.0915550  22.1056266
   7.7611039  11.8000631  29.1698861   7.7305044  12.6545268  29.3417131
   8.3592388  11.4995924  29.7285005   7.8448197  11.8817128  29.2773664
   5.5827614  14.3752933  27.4417171   5.4667140  15.1260619  27.8709309
   6.3783501  14.1176887  27.6913258   5.6832203  14.4487780  27.5421263
   3.3056920  15.1060578  25.7531461   3.2208215  15.9621544  25.8981030
   3.7941303  14.8304902  26.4213620   3.3645817  15.1917899  25.8733542
   4.2375353  11.7245372  27.2529196   3.7086824  11.9405005  27.9126502
   4.7600373  12.4181510  27.1730165   4.2363806  11.8588509  27.3384795
   9.6923406  17.2991676  32.6262241   8.8621109  17.5102320  32.7895657
   9.6432658  16.4728731  32.3504524   9.5630141  17.2081283  32.6099606
   3.9107550  14.1417753  32.0124553   4.6665065  14.5749268  32.0513462
   4.0169874  13.4922523  32.5859189   4.0377720  14.1095237  32.1022579
   6.9487721  17.9691031  32.7626956   6.5122953  17.9727773  33.5185928
   6.6150636  18.6496530  32.3306534   6.8350341  18.0703486  32.8107789
  10.0832067  14.6871951  31.6546594  10.7448501  14.1262619  31.5542502
   9.4423479  14.1923981  31.9799285  10.0860935  14.5308360  31.6878934
   6.3696898  15.7037333  31.3958582   6.6052487  15.8482532  30.5685433
   6.5186461  16.4679741  31.7890096   6.4262701  15.8376387  31.3322186
   8.1987355  14.5438999  29.2328186   8.5295572  15.0766639  28.6268281
   8.7720443  14.5977887  29.8890137   8.3321034  14.6308568  29.2405968
   3.4119244  12.3903902  29.9151766   3.5066098  13.1293196  30.3691392
   2.7878087  11.9621377  30.3486331   3.3328274  12.4365222  30.0459914
   3.6642265  14.2352641  23.1488718   3.5822427  14.3054828  24.0143705
   4.3021985  14.7982385  22.9572459   3.7462102  14.3291612  23.2478668
   9.3066706   9.7849496  30.7368348   9.0503271   8.9729437  30.5466231
  10.1496020   9.7927063  30.5098535   9.3932731   9.6661493  30.6753165
   8.0128286  16.7243541  36.6355195   7.7074103  17.4571597  36.9968510
   7.2934502  16.3181470  36.3547981   7.8615628  16.7725274  36.6468332
  13.7130078  13.3636541  35.9623539  13.6454578  13.3832500  35.0926126
  13.6985740  14.2066868  36.1879210  13.7008835  13.4910276  35.8676016
  11.4988695  12.1380927  34.2370134  12.0496617  11.5048996  34.4767226
  11.4832811  12.6696320  34.9285638  11.5773892  12.1229876  34.3748992
   5.6630131  16.8402965  28.8898718   6.2288163  17.4996175  28.8057261
   5.0158034  17.1852663  29.3615120   5.6508887  16.9884906  28.9471474
   2.1336709  19.7841749  28.3135797   1.8923385  19.0509610  27.9062862
   2.3138042  20.3328606  27.6602130   2.1244333  19.7564141  28.1566020
   7.5965591  13.5036833  32.5095514   7.5099565  13.6592259  33.3630293
   7.1416071  14.1474908  32.1354919   7.5168848  13.6212588  32.5802621
   5.3639456  17.5330939  34.9207855   5.2253815  18.2311985  35.4256598
   4.5839454  17.3779596  34.5644037   5.2282683  17.6131106  34.9434129
   6.8592829  16.8909193  25.6824354   6.4799637  16.1046331  25.6753644
   6.1959074  17.4396050  25.5395999   6.7051303  16.8554017  25.6605151
   2.2058397  17.4734896  21.5013130   2.9731382  17.5335021  21.0918982
   1.7589706  16.9015337  21.0169448   2.2531825  17.3971471  21.3690840
   3.1036193  16.2789552  33.7865862   2.4281195  16.0474784  34.2879249
   3.1128569  15.6710734  33.1607967   3.0054697  16.1548477  33.7682015
   5.1052927  19.1354684  26.0176040   5.1872765  19.9421670  25.6937491
   5.5902670  19.1550643  26.7416814   5.1890085  19.2575346  26.0762939
   3.3004958  21.5004508  30.4843975   2.9084749  21.1971223  29.7666841
   3.4558030  22.3373598  30.2948929   3.2658547  21.5788344  30.3500472
   3.4644632  18.0654496  30.4250006   3.1059287  18.2369139  31.2014038
   2.9783343  18.5267702  29.8678004   3.3403329  18.1593468  30.4575275
   4.6803628  19.6478201  38.0122563   5.4696006  19.2967265  38.1324645
   4.8547226  20.4614589  37.7499197   4.8223910  19.7164058  37.9910431
  10.4296168  15.2836458  37.4819263  10.4879292  15.7323107  38.2279240
   9.7962636  15.6935271  37.0449343  10.3447463  15.4110193  37.5271812
   4.0695263  20.9040000  33.9174010   3.8714951  21.3930815  33.2230221
   3.4482974  21.1081242  34.4958143   3.9482827  21.0056539  33.8997233
   3.0464617   9.1386925  27.2203927   2.5187635   9.2215669  26.5309636
   3.5060325   9.8804797  27.2168572   3.0366467   9.2607587  27.1178622
   9.3823035  10.0854203  33.5214213   9.1432805  10.0450037  32.6834997
   9.5456936  10.9325355  33.6479934   9.3713338  10.2046288  33.4167695
   2.6001699  17.7090489  26.3513584   3.3235898  18.1748602  26.2078157
   2.1602290  17.7764098  25.6011181   2.6417391  17.7874325  26.2198365
   2.8605549  21.7711194  26.5111645   2.1434859  21.5972056  26.0458882
   3.5112286  21.5363766  25.9787131   2.8507399  21.7106986  26.3640863
   5.4453520  10.6475782  30.2552950   4.7744710  11.1905484  30.1266016
   6.1393270  11.1170637  30.0134645   5.4482388  10.7974053  30.2008478
   1.5084005  22.1663037  33.6925410   1.1100288  22.2765308  32.9246230
   0.8935224  22.3745104  34.2751970   1.3582894  22.2136605  33.6656709
   2.9569724   8.7316690  29.9901300   2.7283417   8.7549391  29.1479658
   3.2167800   7.9074157  30.1096310   2.9615912   8.6132770  29.8826497
   9.2425848  16.7415004  27.0768500   9.6259453  17.4906360  27.3066597
   8.4469961  16.9880824  26.8180489   9.1819630  16.8884698  27.0726074
   5.6826430   7.7216627  30.2404458   5.6820656   7.5665284  31.0988734
   5.4782610   8.5679614  30.1845844   5.6526208   7.8237248  30.3592397
   2.0597700  18.8652081  32.9118951   2.5308878  19.5792343  33.0808936
   2.3957879  18.2650831  33.4478821   2.1792815  18.8823545  33.0151327
   2.2629973  19.6621087  36.2055985   3.0828346  19.5184054  36.4672280
   1.9824050  20.2867286  36.7472423   2.3426716  19.7331440  36.3243924
  18.7343623  27.3185939  29.1698861  18.7037627  28.1730576  29.3417131
  19.3324972  27.0181232  29.7285005  18.8180781  27.4002436  29.2773664
  11.9343308  26.4061590  33.9251792  11.0781203  26.5670088  33.9760909
  11.9810962  25.5353654  33.9456853  11.8142419  26.3012392  33.9357858
   6.3184448  35.9424308  29.6889023   5.5667347  35.5639846  29.4605068
   6.7670459  35.9742742  28.9407834   6.2734114  35.8909915  29.5446525
  11.7709407  36.3649678  25.1174570  11.4360776  37.0426599  24.6818793
  12.2836278  35.9754989  24.5291442  11.7974989  36.4074256  24.9661362
  11.3113699  38.3163946  31.0585682  11.6953078  38.8850845  30.5190457
  11.2472840  37.5913457  30.5791498  11.3587126  38.2939410  30.9079545
  14.7795129  28.4653634  36.5683443  15.3251089  29.1438721  36.6277413
  14.7212005  28.3241095  35.7085025  14.8511043  28.5445636  36.4495504
   7.8969204  35.9542700  31.9551796   7.9979567  35.1443054  32.2648924
   7.3010949  35.8599647  31.3251474   7.8241742  35.8207728  31.9078034
  16.5560198  29.8938241  27.4417171  16.4399723  30.6445927  27.8709309
  17.3516084  29.6362195  27.6913258  16.6564787  29.9673088  27.5421263
   3.3924336  24.1448717  34.4788437   2.7729367  23.5541365  34.3098452
   3.2908199  24.7360153  33.8452760   3.2862011  24.1452800  34.3593427
   8.4390523  33.8832264  28.7286514   8.7606364  34.4237472  28.1247822
   9.0862620  33.3129036  28.8608803   8.5816578  33.8791439  28.6593549
  10.4892231  25.8848259  28.8120900  11.1872396  26.0636387  29.3042364
  10.8044564  25.3618599  28.1891290  10.6387568  25.8342031  28.7922910
  10.6780167  32.2718704  28.8000692  11.1173802  31.6635805  29.2455465
  10.5284829  31.8926078  28.0286157  10.7201632  32.1257175  28.7519859
   8.1451810  30.8662716  36.0019517   8.7900812  30.3735159  35.6830466
   8.3853587  31.0087503  36.8285596   8.2762395  30.8140158  36.0769050
  10.6837901  33.7117622  35.6526410  10.9661144  32.9169028  35.4313166
  11.4124061  34.1898209  35.6731471  10.8327465  33.6652219  35.6229425
   8.6619095  21.2540656  32.8942175   8.3322425  21.7051799  32.2245874
   7.9864097  21.1756819  33.4415181   8.5129531  21.3091791  32.8765398
  14.2789503  30.6245886  25.7531461  14.1940798  31.4806852  25.8981030
  14.7673886  30.3490210  26.4213620  14.3378400  30.7103207  25.8733542
  15.8695503  17.2426179  31.1391786  15.5548944  17.9329657  31.5712208
  15.3522444  17.1870961  30.4377286  15.7459973  17.3361067  31.0988735
  20.6655989  32.8176984  32.6262241  19.8353692  33.0287628  32.7895657
  20.6165242  31.9914039  32.3504524  20.5362725  32.7266590  32.6099606
   7.1007544  31.1393896  26.0536664   6.5164759  31.6443928  26.4602528
   6.6977639  30.9136283  25.3133256   6.9546848  31.1802145  26.0041689
   8.7265727  35.6480838  35.4610150   8.2092668  35.2888253  34.8571458
   9.4240118  35.1243013  35.4716216   8.7531308  35.5178526  35.3740409
  11.5584759  27.3859549  24.5305585  11.7980762  27.5937532  23.7180928
  11.8800600  26.5817057  24.6394529  11.6421916  27.2973650  24.4266138
   6.8675049  19.3152944  28.3765123   7.6221017  19.6831261  28.1382173
   6.6902583  19.6892499  29.1444302   6.9529527  19.4251132  28.4550011
  20.1609948  25.4647385  36.4212662  19.3238369  25.5349572  36.6560256
  20.1298178  25.4671880  35.5486964  20.0328230  25.4757612  36.3272210
   5.2232113  21.7223263  25.0743236   5.0407687  21.9395144  24.2484228
   6.0857726  21.8362276  25.1301850   5.3236703  21.7713161  24.9597723
   4.8346545  33.5611185  32.5166223   5.6735445  33.7934118  32.5639985
   4.8658315  32.6915497  32.4473259   4.9628263  33.4668132  32.5130868
  10.9031833  18.7249674  28.1092259  11.6317993  18.5465629  27.6630416
  10.9926726  19.5667754  28.3199438  11.0238495  18.8233552  28.0745777
  14.8840133  29.6603061  32.0124553  15.6397648  30.0934576  32.0513462
  14.9902458  29.0107831  32.5859189  15.0110304  29.6280545  32.1022579
  17.9220304  33.4876339  32.7626956  17.4855536  33.4913081  33.5185928
  17.5883220  34.1681838  32.3306534  17.8082924  33.5888794  32.8107789
  17.8417787  20.5290166  35.0056384  18.4843696  20.5988271  35.5918300
  18.0940808  19.8619389  34.5035926  17.9739919  20.4416515  35.0183664
   4.7694140  24.9997436  23.5865709   4.0552318  24.7135615  23.9988141
   5.2538109  25.3394062  24.2272096   4.7353504  25.0079086  23.7421344
  21.0564651  30.2057258  31.6546594  21.7181085  29.6447927  31.5542502
  20.4156063  29.7109289  31.9799285  21.0593518  30.0493667  31.6878934
  11.9441458  33.5027390  23.9627517  12.3592607  33.1712414  23.2712013
  11.1133388  33.2696292  23.8347654  11.8829467  33.4198646  23.8418364
  17.3429481  31.2222641  31.3958582  17.5785071  31.3667840  30.5685433
  17.4919045  31.9865049  31.7890096  17.3995285  31.3561695  31.3322186
  19.1719938  30.0624307  29.2328186  19.5028155  30.5951947  28.6268281
  19.7453026  30.1163195  29.8890137  19.3053617  30.1493876  29.2405968
  14.3851827  27.9089210  29.9151766  14.4798682  28.6478504  30.3691392
  13.7610671  27.4806685  30.3486331  14.3060857  27.9550530  30.0459914
  12.6404301  31.0875422  40.5642047  13.2143163  30.4502666  40.7190611
  12.5619105  31.0879505  39.6951705  12.7137536  30.9940534  40.4588458
  14.6374849  29.7537949  23.1488718  14.5555011  29.8240136  24.0143705
  15.2754569  30.3167693  22.9572459  14.7194686  29.8476920  23.2478668
   7.9968020  29.5198687  32.6163245   7.7387264  28.6870422  32.5894544
   8.0516503  29.7456300  31.7755745   7.9667798  29.4296458  32.4883381
  13.0769070  21.6227138  32.7167337  12.3725397  21.1336323  32.8751256
  13.1254044  21.6349612  31.8455782  12.9799121  21.5516786  32.6106677
   6.9702732  27.0736450  33.1028139   6.3952323  27.2328618  33.7392100
   6.5938408  26.4371859  32.6396590   6.8305544  27.0034263  33.1282698
  10.6376020  25.5459799  37.9620518  10.2490453  25.1214017  37.3072709
   9.9730719  25.7941949  38.4697544  10.4822948  25.5198520  37.9408386
  20.2799290  25.3034804  30.7368348  20.0235854  24.4914745  30.5466231
  21.1228604  25.3112371  30.5098535  20.3665315  25.1846801  30.6753165
  14.4602382  19.2434428  35.4744502  14.8412894  18.5612599  35.8612376
  13.6565666  18.9544030  35.2920166  14.3978844  19.1001476  35.5048558
  11.7414959  29.7758404  26.1597325  12.5555598  30.0673296  26.0480096
  11.6774100  29.1218266  25.5855618  11.8517698  29.7223598  26.0586162
   7.6122867  33.2479921  31.2869637   8.2496814  33.0091669  31.8321430
   8.0377939  33.4517080  30.5522797   7.7699033  33.2430931  31.2586794
   8.2525682  28.4682211  25.6244526   8.6370835  28.2489918  26.3761071
   8.0037302  29.2945156  25.7545603   8.2727755  28.5580357  25.7545603
  18.9860870  32.2428848  36.6355195  18.6806687  32.9756905  36.9968510
  18.2667085  31.8366778  36.3547981  18.8348212  32.2910581  36.6468332
   9.9944339  33.7252344  32.9663423  10.0683347  33.5627516  33.8205273
  10.8113845  33.9142533  32.7223905  10.1260698  33.7289086  33.0561449
  24.6862662  28.8821849  35.9623539  24.6187162  28.9017808  35.0926126
  24.6718324  29.7252176  36.1879210  24.6741418  29.0095584  35.8676016
   3.7550096  34.0710206  29.9957867   2.9288213  34.3171944  29.8692145
   3.8162087  33.9922287  30.8619925   3.6424263  34.0955155  30.1046811
   5.9726119  20.1379147  30.9553307   5.1048545  20.2101747  31.0210916
   6.2601324  20.9401226  31.1441282   5.8865867  20.2673295  30.9928073
  15.0959008  20.2857007  39.2864629  15.8412600  20.0966817  38.8728054
  14.6796313  20.8115245  38.7278485  15.1443982  20.3359152  39.1429202
   8.5348925  36.6887087  27.6976896   8.8247223  36.2976068  26.9736123
   9.2652406  36.8703792  28.1382172   8.6855809  36.6580900  27.6559704
  22.4721279  27.6566235  34.2370134  23.0229201  27.0234304  34.4767226
  22.4565394  28.1881628  34.9285638  22.5506475  27.6415184  34.3748992
   5.3871787  30.7527786  33.0292748   5.0985036  30.1265257  33.5638475
   6.2555136  30.6948073  33.0957428   5.4732039  30.6515330  33.1183702
  16.1749685  25.8962569  33.3474730  15.8314451  25.1752904  33.6981979
  16.2742728  25.6876420  32.5053088  16.1391728  25.7586772  33.2746410
   5.5904061  32.3923037  28.9535113   6.3450029  32.7736076  29.1670575
   4.9974673  32.8434180  29.4081809   5.6140774  32.5151864  29.0517991
  16.6362714  32.3588273  28.8898718  17.2020747  33.0181483  28.8057261
  15.9890618  32.7037971  29.3615120  16.6241471  32.5070214  28.9471474
   3.8993471  23.6137407  28.3970183   3.6118267  23.2438677  27.6602130
   4.5863940  24.0832262  28.1353888   3.9582369  23.6284376  28.2485259
  13.1069292  35.3027057  28.3135797  12.8655968  34.5694918  27.9062862
  13.2870625  35.8513914  27.6602130  13.0976916  35.2749448  28.1566020
   8.3368613  30.5935617  29.7256719   8.1411396  31.2010352  29.1317022
   8.5602959  29.9003561  29.2448393   8.3403254  30.5813143  29.5672800
   6.7347143  27.4790355  29.8437588   7.4569795  27.6431513  29.3841394
   6.2555136  28.2000020  29.7376927   6.7710874  27.6088585  29.7603202
  14.6940651  23.8154154  35.2234273  13.8551751  23.8415433  34.9872536
  14.7645018  24.4624889  35.8039619  14.5809044  23.9150280  35.2743390
  13.1409929  20.7139531  29.9561889  13.8436282  20.5147279  29.4781847
  12.8754118  19.9415473  30.2630732  13.2056561  20.5702497  29.9307330
  18.5698174  29.0222141  32.5095514  18.4832149  29.1777567  33.3630293
  18.1148654  29.6660216  32.1354919  18.4901431  29.1397896  32.5802621
   1.4721666  24.3918619  29.2455464   1.5737803  25.1944781  29.5736440
   2.2677553  24.1905955  28.9478545   1.6049572  24.4804518  29.2490819
   7.9038485  21.9774816  39.0092769   7.7121682  21.9929950  39.8592193
   8.7537081  22.1738490  38.9859424   8.0014207  22.0089167  39.1316064
  12.4423991  26.3432888  31.1321074  12.1958705  26.2628639  31.9657863
  12.7709114  25.5586355  30.9383601  12.4545234  26.2159153  31.2268597
  16.3372039  33.0516247  34.9207855  16.1986399  33.7497293  35.4256598
  15.5572037  32.8964903  34.5644037  16.2015266  33.1316414  34.9434129
  14.6750124  29.3512622  41.1730237  14.6698163  28.4792439  41.1772663
  15.3811118  29.5500792  40.6999693  14.7795128  29.2516497  41.1037272
  10.5740935  28.2779775  38.3269189   9.8264249  28.4710789  37.9217467
  10.7282460  27.4524994  38.0893310  10.4863363  28.1844886  38.2314594
  17.8325412  32.4094501  25.6824354  17.4532221  31.6231639  25.6753644
  17.1691658  32.9581358  25.5395999  17.6783887  32.3739325  25.6605151
  10.8142712  22.1730325  39.2164592  11.2715326  22.9054300  39.3437385
  10.8899041  21.7496791  39.9751848  10.8933682  22.2187563  39.3465669
  15.2870038  15.3520201  33.0858435  15.4053606  15.8096664  32.3525738
  15.1132214  14.5465462  32.7994653  15.2789209  15.3013973  32.9359369
  10.6572320  35.9608020  29.5213181  11.4222211  35.6917664  29.1995845
  10.5550410  35.4758030  30.2383243  10.7553816  35.8497584  29.5793008
   8.6925090  24.1632429  36.0606416   7.9021165  23.9823889  36.3823752
   9.0885713  23.3859382  36.0436711   8.6341966  24.0219890  36.1058965
  13.1790981  32.9920204  21.5013130  13.9463966  33.0520329  21.0918982
  12.7322290  32.4200645  21.0169448  13.2264408  32.9156779  21.3690840
  14.0768776  31.7974859  33.7865862  13.4013778  31.5660092  34.2879249
  14.0861153  31.1896042  33.1607967  13.9787281  31.6733785  33.7682015
  11.2062920  26.6392688  40.5429915  11.1422062  27.5002645  40.4150052
  11.3460108  26.3224682  39.7425467  11.2178390  26.7192855  40.4058128
  16.0785511  34.6539992  26.0176040  16.1605348  35.4606978  25.6937491
  16.5635253  34.6735951  26.7416814  16.1622669  34.7760654  26.0762939
   9.8882014  29.3324828  34.6846118   9.4644263  29.5329327  33.9485137
   9.7126869  28.4853676  34.7970418   9.7992895  29.2373609  34.5919808
   5.1764459  29.8276879  30.1174091   5.3329078  29.7623682  30.9730083
   5.5165052  30.6025432  29.9052770   5.2497694  29.9326077  30.2128685
  11.7143604  29.2034763  28.9867454  12.2559149  28.7005144  29.4506074
  12.0290163  29.1499957  28.1756939  11.8408001  29.1214184  28.9351266
   9.8830054  34.5952114  26.2707482   9.9522874  33.7366653  26.4100482
  10.6618509  34.8123995  25.9426507  10.0082904  34.5004978  26.2424639
  12.8632873  24.0971067  39.0389754  13.0774843  23.4581981  38.4853108
  12.2466772  24.5416891  38.6097616  12.8038202  24.0681211  38.8940185
  14.2737541  37.0189816  30.4843975  13.8817333  36.7156531  29.7666841
  14.4290613  37.8558906  30.2948929  14.2391131  37.0973652  30.3500472
   1.7498721  27.0111830  30.4334858   2.1297686  27.4296375  29.7695125
   1.1754086  27.5925285  30.7403701   1.7210046  27.1589688  30.3811599
  15.0271961  25.7060132  39.9773061  14.2148643  25.3986023  40.0586234
  15.4861896  25.2259133  40.5415774  14.9752346  25.5896625  40.0727656
  14.4377216  33.5839804  30.4250006  14.0791871  33.7554447  31.2014038
  13.9515927  34.0453010  29.8678004  14.3135913  33.6778775  30.4575275
  12.2547602  17.2071003  34.0277097  11.3841160  17.1809724  33.9810407
  12.5087943  17.0348195  33.2102943  12.1641162  17.1781147  33.8997234
   9.2265581  29.2638970  22.9650240   9.5158106  30.0403852  23.2393814
   9.3137380  28.7527701  23.6664739   9.2819838  29.3030888  23.1092738
   9.2796742  19.2177231  35.4850568   8.7635231  18.5257423  35.6102147
   8.7190671  19.8848008  35.4313166   9.1203256  19.2140489  35.4956634
  11.3488976  19.7570191  37.3143420  10.9620729  19.7819223  38.0956950
  10.8621913  19.1911870  36.8617937  11.2201485  19.6765942  37.3631324
  17.3238955  26.3232846  35.9383122  16.8966563  26.2359195  35.1831222
  16.6865008  26.4310622  36.5237966  17.1668563  26.3265506  35.9128564
  10.8160032  21.4308372  41.8780092  11.6433462  21.1593520  41.9338706
  10.8367878  22.2269213  42.2343910  10.9412883  21.5088126  41.9395275
  15.6536212  35.1663509  38.0122563  16.4428590  34.8152573  38.1324645
  15.8279810  35.9799897  37.7499197  15.7956494  35.2349366  37.9910431
   5.3929522  28.5772234  35.0650352   4.5517529  28.4776109  35.2729246
   5.6019530  29.3467715  35.4164673   5.2994215  28.6764278  35.1477667
   2.8705089  26.1991771  32.8935103   2.4761787  26.2734783  32.1185213
   2.3145206  26.5849718  33.4443465   2.7307902  26.2673546  32.8602763
  14.5070036  19.1773065  32.5738982  14.7119629  19.1095373  33.4195979
  14.1796460  19.9831887  32.5060159  14.4885284  19.2859006  32.6898637
   9.2046187  26.5053634  34.3147950   8.9009325  25.9509622  34.9158357
   8.5025608  26.6845844  33.8275984   9.0562397  26.4498416  34.3317655
   8.2612284  23.8154153  28.8792652   8.5372019  23.0973066  28.4670219
   8.8610954  24.4139073  28.6713758   8.3905549  23.7974524  28.7873413
  17.7603724  19.7304830  32.0541747  17.1478037  20.2175232  32.4395479
  17.8567899  19.0548320  32.5979398  17.6841621  19.7023138  32.1920606
  11.7622805  21.4867671  27.1539247  12.2166551  21.6578231  27.8787091
  12.2362850  20.8735781  26.7537022  11.8991125  21.4218556  27.2013008
   5.6798953  22.1317994  37.1510003   6.1400435  22.2056924  37.8885127
   5.7255060  22.9299248  36.8009824   5.7549508  22.2612141  37.2082759
  21.4028752  30.8021766  37.4819263  21.4611875  31.2508415  38.2279240
  20.7695219  31.2120579  37.0449343  21.3180047  30.9295501  37.5271812
  15.0427846  36.4225308  33.9174010  14.8447535  36.9116123  33.2230221
  14.4215557  36.6266550  34.4958143  14.9215411  36.5241847  33.8997233
   9.1035825  28.1910205  28.2584254   9.8477870  28.5784481  28.4967204
   9.2496521  27.3467630  28.4224742   9.2346410  28.1240678  28.3178224
  11.0215400  19.9860464  33.2916115  10.1751445  20.1583272  33.1657465
  11.0186533  19.1809808  33.6281944  10.8962550  19.8921493  33.3227242
  12.0913701  23.7635678  34.1578173  11.6173655  23.2377440  34.6683484
  12.4631836  23.2165151  33.5893035  12.0763590  23.6051675  34.1493320
  18.3550431  28.8238054  35.5684954  18.1148654  27.9844469  35.5727380
  18.8342438  28.9038221  36.2925727  18.3902615  28.7119454  35.6759756
  20.3555618  25.6039511  33.5214213  20.1165388  25.5635345  32.6834997
  20.5189519  26.4510663  33.6479934  20.3445922  25.7231596  33.4167695
  16.9601648  29.9889461  39.4519258  17.6835847  29.5361987  39.2730278
  16.6951611  30.2694126  38.6691586  17.0282922  29.9640429  39.3097973
   5.8288517  24.5849634  36.1872137   5.2041587  24.5968026  35.5798090
   5.4934112  25.0609809  36.8363377   5.6874009  24.6568151  36.1928706
   6.0130265  22.9274753  22.2444822   5.6643070  23.5794478  22.7076372
   5.5326711  22.9131866  21.5168693   5.8900509  23.0217806  22.2055913
  13.5734283  33.2275797  26.3513584  14.2968482  33.6933910  26.2078157
  13.1334874  33.2949406  25.6011181  13.6149975  33.3059633  26.2198365
  12.7420438  30.0873339  37.6014273  12.1277431  29.5431389  37.8962908
  13.2587723  29.5737575  37.1220089  12.7276100  29.9309748  37.5738501
  11.9816735  31.1577609  35.3358572  11.5544343  30.5327327  34.9024007
  11.9741679  30.8752531  36.1617579  11.9175876  31.0230389  35.3938399
  13.0399565  18.3604017  38.9597795  12.5440126  18.5567692  38.2689362
  13.7968627  18.7596686  38.7886597  13.0786390  18.4481751  38.8317932
  10.3102445  22.0346363  35.5501106  10.3344932  21.5006476  34.8613886
  10.5613918  21.5263672  36.2126696  10.3512363  21.8807267  35.5465750
   6.5903767  20.7617182  34.9306850   6.6302139  21.2626388  35.6441557
   5.7653432  20.8527575  34.6612773   6.4743293  20.8498998  34.9957388
   8.0118130  27.2777691  37.2280749   7.1810060  27.4451509  37.0215997
   7.9569647  26.9013642  38.0129634   7.8807545  27.2467423  37.3129277
   6.3854174  25.5533283  27.7570867   6.5257135  26.0505747  28.4599508
   6.8836707  24.8519577  27.8985080   6.4795255  25.5235262  27.8822446
   6.4154397  26.4200394  25.0863444   7.0499476  27.0160819  25.0212905
   6.4980007  26.1203852  25.9009314   6.5210947  26.4641302  25.1966530
  19.3936962  28.9515871  37.9549808  19.9854803  29.5913122  37.9868006
  19.8295957  28.2538908  38.2441875  19.5455394  28.9434222  38.0030640
   7.9933379  22.3514369  25.0608886   8.3149220  21.8717452  24.4068148
   8.2560323  23.1614015  24.8699697   8.0799405  22.4004267  24.9364378
  13.3892534  21.7386563  37.4232365  13.8147606  21.2859090  36.8115891
  12.7749527  21.1846634  37.6997152  13.3621180  21.5900540  37.3737390
   2.9207384  28.6168235  28.3552990   3.4299614  29.2132742  28.7364295
   3.3941657  28.3494208  27.6729409   3.0650760  28.6654050  28.3107512
  13.8338132  37.2896501  26.5111645  13.1167442  37.1157364  26.0458882
  14.4844870  37.0549074  25.9787131  13.8239983  37.2292294  26.3640863
  11.8286757  18.2101663  30.8322942  11.1855075  18.0599310  31.4008080
  11.4886164  17.9644008  30.0672046  11.6831835  18.1513786  30.8025957
  16.4186104  26.1661090  30.2552950  15.7477294  26.7090792  30.1266016
  17.1125854  26.6355945  30.0134645  16.4214971  26.3159361  30.2008478
  16.5814231  22.6216974  33.1643323  16.9341841  22.1946697  33.8389122
  15.7229033  22.5367817  33.2944400  16.5063676  22.5461714  33.2838334
   5.2797916  25.2524493  31.2226170   4.5609905  25.6688626  31.4899034
   5.6510278  25.8178732  30.6717808   5.2289848  25.3973775  31.1808977
  14.5797497  25.8852342  37.1128166  14.5595424  25.7035637  37.9662945
  14.6276698  26.7564361  37.0887749  14.5832138  25.9868880  37.2351460
  12.4816588  37.6848345  33.6925410  12.0832872  37.7950616  32.9246230
  11.8667808  37.8930412  34.2751970  12.3315478  37.7321913  33.6656709
  11.0544490  24.2922493  26.5599549  10.4609330  24.6139490  26.0084116
  11.0919768  23.4463589  26.3520656  10.9718880  24.2146821  26.4482321
  18.0138291  17.7435385  34.0927636  17.5069156  17.0364525  34.0248813
  18.8105725  17.4128574  34.2228713  18.0565530  17.5908537  34.1026631
  13.9302307  24.2501998  29.9901300  13.7016000  24.2734699  29.1479658
  14.1900383  23.4259465  30.1096310  13.9348495  24.1318078  29.8826497
   6.9847070  22.7878544  31.2855495   7.4604436  23.1495624  30.6505676
   6.4835669  23.4435012  31.5655638   6.9812429  22.9372733  31.2332236
  20.2158431  32.2600312  27.0768500  20.5992037  33.0091668  27.3066597
  19.4202544  32.5066132  26.8180489  20.1552213  32.4070006  27.0726074
  12.0890606  24.0260715  42.0328655  12.6462036  23.7974525  41.4007121
  11.7651671  24.7866381  41.7563868  12.1237016  24.1044552  41.8985153
   9.0273723  24.9319744  24.6528879   9.4072688  24.9499373  23.8679994
   8.2866319  25.3773733  24.5319727   8.9742560  25.0001518  24.5192447
  16.6559013  23.2401935  30.2404458  16.6553240  23.0850592  31.0988734
  16.4515193  24.0864922  30.1845844  16.6258791  23.3422556  30.3592397
  14.3799865  27.9199437  33.8940665  14.8753531  27.2022432  33.8544685
  13.5699641  27.6170234  33.7795152  14.3343759  27.7697083  33.8714391
   9.8258477  31.7697250  26.0437669   9.0169800  31.4463924  25.9970979
  10.3333386  31.0630472  25.9765918   9.7808144  31.6178566  26.0267964
  16.4451684  30.6703124  36.5817794  16.8706756  30.1477546  36.0288219
  16.0808604  31.2683962  36.0606417  16.4538287  30.6813351  36.4226803
  13.0330284  34.3837389  32.9118951  13.5041462  35.0977651  33.0808936
  13.3690462  33.7836139  33.4478821  13.1525399  34.4008853  33.0151327
  13.6704230  34.1755323  39.6746644  13.1225176  33.5513206  39.4066709
  14.1317259  34.3649595  38.9590723  13.6571439  34.1114373  39.5297075
  13.0232134  16.0795185  36.4658139  12.2178097  15.9692915  36.7825977
  12.8938869  16.1807641  35.6088005  12.8852267  16.0778855  36.3866180
  16.4798094  22.2440677  37.0597836  15.8961083  22.7449884  36.6475403
  16.8002388  21.7370233  36.4262159  16.4411270  22.2432512  36.9056343
   9.0192893  21.1581272  27.3356511   9.8408588  21.3279585  27.0938206
   8.5562544  21.3128533  26.6122808   9.0724056  21.2063005  27.1928155
   7.6088225  19.1524034  38.1154940   8.1532638  18.8115161  38.7059281
   7.6625161  20.0109496  38.2576224   7.6977345  19.2279294  38.2236813
  13.2362556  35.1806395  36.2055985  14.0560930  35.0369361  36.4672280
  12.9556634  35.8052594  36.7472423  13.3159300  35.2516747  36.3243924
  21.4624815  41.4033567  28.8120900  22.1604979  41.5821695  29.3042364
  21.7777147  40.8803906  28.1891290  21.6120152  41.3527339  28.7922910
  19.6351678  36.7725964  32.8942175  19.3055008  37.2237107  32.2245874
  18.9596680  36.6942127  33.4415181  19.4862115  36.8277099  32.8765398
  26.8428086  32.7611487  31.1391786  26.5281527  33.4514965  31.5712208
  26.3255028  32.7056269  30.4377286  26.7192557  32.8546375  31.0988735
  26.1840520  42.7615988  27.2529196  25.6551991  42.9775621  27.9126502
  26.7065540  43.4552126  27.1730165  26.1828973  42.8959125  27.3384795
  22.5317342  42.9044856  24.5305585  22.7713346  43.1122840  23.7180928
  22.8533183  42.1002365  24.6394529  22.6154500  42.8158958  24.4266138
  17.8407632  34.8338252  28.3765123  18.5953600  35.2016569  28.1382173
  17.6635167  35.2077807  29.1444302  17.9262111  34.9436440  28.4550011
  16.1964697  37.2408571  25.0743236  16.0140270  37.4580452  24.2484228
  17.0590310  37.3547584  25.1301850  16.2969287  37.2898469  24.9597723
  21.8764416  34.2434982  28.1092259  22.6050577  34.0650937  27.6630416
  21.9659309  35.0853062  28.3199438  21.9971078  34.3418860  28.0745777
  24.0501653  37.1412446  32.7167337  23.3457980  36.6521631  32.8751256
  24.0986628  37.1534920  31.8455782  23.9531705  37.0702094  32.6106677
  25.4334966  34.7619736  35.4744502  25.8145477  34.0797907  35.8612376
  24.6298250  34.4729338  35.2920166  25.3711427  34.6186784  35.5048558
  16.9458703  35.6564455  30.9553307  16.0781128  35.7287055  31.0210916
  17.2333907  36.4586534  31.1441282  16.8598451  35.7858602  30.9928073
  14.8726055  39.1322715  28.3970183  14.5850851  38.7623985  27.6602130
  15.5596523  39.6017570  28.1353888  14.9314952  39.1469684  28.2485259
  24.1142512  36.2324839  29.9561889  24.8168865  36.0332587  29.4781847
  23.8486701  35.4600781  30.2630732  24.1789145  36.0887805  29.9307330
  23.4156574  41.8618196  31.1321074  23.1691288  41.7813947  31.9657863
  23.7441697  41.0771663  30.9383601  23.4277818  41.7344461  31.2268597
  26.2602622  30.8705508  33.0858435  26.3786190  31.3281972  32.3525738
  26.0864797  30.0650770  32.7994653  26.2521793  30.8199281  32.9359369
  23.2280185  32.7256311  34.0277097  22.3573743  32.6995032  33.9810407
  23.4820527  32.5533503  33.2102943  23.1373746  32.6966455  33.8997234
  20.2529326  34.7362539  35.4850568  19.7367815  34.0442731  35.6102147
  19.6923255  35.4033316  35.4313166  20.0935839  34.7325797  35.4956634
  25.4802620  34.6958373  32.5738982  25.6852213  34.6280681  33.4195979
  25.1529044  35.5017194  32.5060159  25.4617868  34.8044314  32.6898637
  19.2344868  39.3339461  28.8792652  19.5104602  38.6158374  28.4670219
  19.8343537  39.9324381  28.6713758  19.3638132  39.3159832  28.7873413
  28.7336307  35.2490138  32.0541747  28.1210621  35.7360540  32.4395479
  28.8300482  34.5733628  32.5979398  28.6574205  35.2208446  32.1920606
  22.7355388  37.0052979  27.1539247  23.1899135  37.1763539  27.8787091
  23.2095434  36.3921089  26.7537022  22.8723708  36.9403864  27.2013008
  21.9947984  35.5045772  33.2916115  21.1484029  35.6768580  33.1657465
  21.9919116  34.6995116  33.6281944  21.8695134  35.4106801  33.3227242
  23.0646284  39.2820986  34.1578173  22.5906238  38.7562748  34.6683484
  23.4364420  38.7350459  33.5893035  23.0496173  39.1236983  34.1493320
  24.9929784  40.1757541  27.2203927  24.4652802  40.2586285  26.5309636
  25.4525492  40.9175412  27.2168572  24.9831634  40.2978203  27.1178622
  16.9862849  38.4460061  22.2444822  16.6375653  39.0979786  22.7076372
  16.5059295  38.4317174  21.5168693  16.8633093  38.5403114  22.2055913
  21.2835028  37.5531671  35.5501106  21.3077515  37.0191784  34.8613886
  21.5346502  37.0448980  36.2126696  21.3244947  37.3992575  35.5465750
  17.5636350  36.2802490  34.9306850  17.6034722  36.7811696  35.6441557
  16.7386015  36.3712883  34.6612773  17.4475876  36.3684306  34.9957388
  18.9665963  37.8699677  25.0608886  19.2881804  37.3902760  24.4068148
  19.2292907  38.6799323  24.8699697  19.0531988  37.9189575  24.9364378
  22.8019341  33.7286971  30.8322942  22.1587659  33.5784617  31.4008080
  22.4618748  33.4829316  30.0672046  22.6564418  33.6699094  30.8025957
  27.3918687  41.6846398  30.2552950  26.7209877  42.2276100  30.1266016
  28.0858437  42.1541253  30.0134645  27.3947555  41.8344669  30.2008478
  22.0277074  39.8107801  26.5599549  21.4341913  40.1324798  26.0084116
  22.0652352  38.9648897  26.3520656  21.9451463  39.7332129  26.4482321
  28.9870875  33.2620693  34.0927636  28.4801739  32.5549833  34.0248813
  29.7838309  32.9313882  34.2228713  29.0298114  33.1093845  34.1026631
  24.9034891  39.7687306  29.9901300  24.6748584  39.7920007  29.1479658
  25.1632967  38.9444773  30.1096310  24.9081079  39.6503386  29.8826497
  17.9579653  38.3063852  31.2855495  18.4337019  38.6680932  30.6505676
  17.4568253  38.9620320  31.5655638  17.9545012  38.4558041  31.2332236
  20.0006306  40.4505052  24.6528879  20.3805271  40.4684681  23.8679994
  19.2598902  40.8959041  24.5319727  19.9475144  40.5186826  24.5192447
  27.6291597  38.7587243  30.2404458  27.6285823  38.6035900  31.0988734
  27.4247777  39.6050230  30.1845844  27.5991375  38.8607864  30.3592397
  23.9964717  31.5980493  36.4658139  23.1910681  31.4878223  36.7825977
  23.8671453  31.6992949  35.6088005  23.8584850  31.5964163  36.3866180
  19.9925477  36.6766580  27.3356511  20.8141171  36.8464893  27.0938206
  19.5295128  36.8313841  26.6122808  20.0456639  36.7248313  27.1928155
  18.5820809  34.6709342  38.1154940  19.1265222  34.3300469  38.7059281
  18.6357745  35.5294804  38.2576224  18.6709928  34.7464602  38.2236813
  18.4294447   4.2564070  16.1038908  18.3988451   5.1108707  16.2757177
  19.0275796   3.9559363  16.6625052  18.5131605   4.3380567  16.2113710
  11.6294132   3.3439721  20.8591839  10.7732027   3.5048220  20.9100955
  11.6761786   2.4731785  20.8796900  11.5093243   3.2390523  20.8697905
   6.0135272  12.8802439  16.6229070   5.2618171  12.5017978  16.3945115
   6.4621283  12.9120873  15.8747880   5.9684938  12.8288046  16.4786572
  14.9387848   9.6126247  30.4652295  15.6454616   9.1178278  30.5939229
  15.1275784  10.0535329  29.7354953  15.0715754   9.6044597  30.3761340
  11.4660231  13.3027809  12.0514617  11.1311600  13.9804730  11.6158839
  11.9787102  12.9133120  11.4631489  11.4925813  13.3452387  11.9001409
  11.0064523  15.2542077  17.9925729  11.3903902  15.8228976  17.4530504
  10.9423664  14.5291588  17.5131545  11.0537950  15.2317541  17.8419591
  14.4745953   5.4031765  23.5023490  15.0201913   6.0816852  23.5617460
  14.4162829   5.2619226  22.6425072  14.5461867   5.4823767  23.3835551
   7.5920028  12.8920831  18.8891843   7.6930391  12.0821185  19.1988970
   6.9961773  12.7977778  18.2591521   7.5192566  12.7585860  18.8418081
  16.2511022   6.8316372  14.3757218  16.1350547   7.5824058  14.8049356
  17.0466908   6.5740326  14.6253305  16.3515611   6.9051219  14.4761310
   7.4320767  17.8098421  20.2906699   8.0758223  18.2511585  20.6802857
   7.7577023  17.0051847  20.2036957   7.5752596  17.7563615  20.3352176
   8.1341347  10.8210395  15.6626560   8.4557188  11.3615603  15.0587868
   8.7813444  10.2507167  15.7948850   8.2767402  10.8169571  15.5933596
  10.1843055   2.8226390  15.7460947  10.8823220   3.0014518  16.2382410
  10.4995388   2.2996730  15.1231336  10.3338392   2.7720162  15.7262957
  10.3730990   9.2096835  15.7340739  10.8124626   8.6013936  16.1795511
  10.2235653   8.8304209  14.9626204  10.4152456   9.0635307  15.6859906
   7.8402633   7.8040847  22.9359564   8.4851636   7.3113290  22.6170513
   8.0804411   7.9465634  23.7625642   7.9713219   7.7518289  23.0109097
  10.3788725  10.6495753  22.5866457  10.6611968   9.8547159  22.3653212
  11.1074885  11.1276341  22.6071518  10.5278289  10.6030350  22.5569472
  13.9740327   7.5624017  12.6871508  13.8891622   8.4184983  12.8321077
  14.4624710   7.2868341  13.3553667  14.0329224   7.6481338  12.8073589
  14.9058760   4.1808811  14.1869243  14.3770232   4.3968444  14.8466549
  15.4283780   4.8744949  14.1070212  14.9047213   4.3151948  14.2724842
  20.3606813   9.7555115  19.5602287  19.5304516   9.9665759  19.7235704
  20.3116065   8.9292170  19.2844571  20.2313549   9.6644722  19.5439653
   6.7958368   8.0772028  12.9876711   6.2115583   8.5822059  13.3942575
   6.3928463   7.8514415  12.2473303   6.6497672   8.1180276  12.9381736
   2.3502397  13.7926789  19.7900382   1.8669975  14.5177278  19.7659966
   3.1625715  14.0902919  19.9010540   2.3993144  13.9429142  19.8027662
   8.4216551  12.5858969  22.3950197   7.9043492  12.2266384  21.7911505
   9.1190942  12.0621144  22.4056263   8.4482132  12.4556657  22.3080456
  12.0780143  13.0353784  28.3566370  12.1663489  12.8479924  29.2044580
  12.5069855  12.3891213  27.9571217  12.1542245  12.9116791  28.4238121
   9.6450602  12.3184944  27.3384032   9.0821437  11.9057553  27.8623693
  10.4071626  12.2437849  27.7577175   9.6745051  12.2462344  27.4777032
  11.2535582   4.3237680  11.4645631  11.4931586   4.5315663  10.6520975
  11.5751423   3.5195188  11.5734576  11.3372740   4.2351781  11.3606185
   5.2046594  14.3082965  19.9420662   5.9067173  13.7934954  19.9993419
   5.1244077  14.6357116  20.7467537   5.2970354  14.2797191  20.0693454
  19.8560771   2.4025516  23.3552709  19.0189193   2.4727703  23.5900303
  19.8249002   2.4050011  22.4827011  19.7279054   2.4135743  23.2612257
   6.2525500   4.5458552  29.0701077   6.4246004   4.4364446  29.9186359
   6.7894858   5.1912957  28.8332270   6.3570504   4.6250553  29.1606174
   4.5297369  10.4989317  19.4506270   5.3686269  10.7312249  19.4980032
   4.5609139   9.6293628  19.3813306   4.6579087  10.4046263  19.4470915
   5.1550072  10.9190192  23.7519576   5.6948297  10.7761323  24.4222948
   4.4720019  11.3186943  24.1203602   5.1342226  10.9569863  23.9053998
  14.5790957   6.5981192  18.9464600  15.3348472   7.0312707  18.9853509
  14.6853282   5.9485962  19.5199236  14.7061128   6.5658676  19.0362626
  17.6171128  10.4254470  19.6967003  17.1806360  10.4291212  20.4525975
  17.2834044  11.1059969  19.2646581  17.5033748  10.5266926  19.7447836
  12.1900202  12.4662803  31.0210153  12.9740619  12.5793650  31.3865896
  11.9896797  11.6403940  31.2168839  12.2766227  12.3609522  31.1044540
  12.3470595  14.3772905  24.6676609  11.5485841  14.1372405  24.9250478
  12.7956607  14.4287298  25.4143657  12.2945207  14.3495296  24.8161533
  20.7515475   7.1435390  18.5886640  21.4131909   6.5826058  18.4882549
  20.1106887   6.6487420  18.9139332  20.7544342   6.9871799  18.6218981
  11.6392282  10.4405521  10.8967564  12.0543431  10.1090545  10.2052059
  10.8084212  10.2074423  10.7687700  11.5780291  10.3576777  10.7758411
   0.9680631   7.9249262  21.1865742   0.7856204   7.8996148  20.3338034
   1.7030300   8.3948200  21.2254650   1.0494695   7.9910624  21.0663660
  17.0380305   8.1600772  18.3298629  17.2735894   8.3045971  17.5025480
  17.1869869   8.9243180  18.7230143  17.0946109   8.2939826  18.2662233
   4.0326383   4.6434265  27.6947850   4.7566355   4.6287296  28.1812745
   4.1342519   5.3529620  27.1969818   4.1544592   4.7458968  27.6926637
  18.8670762   7.0002438  16.1668233  19.1978979   7.5330078  15.5608328
  19.4403850   7.0541326  16.8230184  19.0004441   7.0872007  16.1746015
  11.4071332   8.1233350  32.5596797  10.6144313   8.4376861  32.7449417
  11.5220259   8.3384818  31.7217582  11.3066743   8.2017186  32.4635132
  14.0802651   4.8467341  16.8491813  14.1749506   5.5856635  17.3031439
  13.4561495   4.4184816  17.2826378  14.0011681   4.8928661  16.9799961
  12.3355125   8.0253553  27.4982094  12.9093987   7.3880797  27.6530658
  12.2569929   8.0257636  26.6291752  12.4088360   7.9318665  27.3928505
  14.3325672   6.6916080  10.0828765  14.2505835   6.7618268  10.9483752
  14.9705393   7.2545824   9.8912506  14.4145510   6.7855052  10.1818715
   7.6918844   6.4576818  19.5503291   7.4338088   5.6248553  19.5234591
   7.7467326   6.6834431  18.7095792   7.6618621   6.3674590  19.4223428
   6.6653556   4.0114581  20.0368186   6.0903147   4.1706749  20.6732147
   6.2889232   3.3749990  19.5736637   6.5256368   3.9412394  20.0622745
  10.3326844   2.4837930  24.8960565   9.9441277   2.0592148  24.2412756
   9.6681543   2.7320080  25.4037591  10.1773772   2.4576651  24.8748433
  19.9750114   2.2412935  17.6708395  19.7186678   1.4292876  17.4806277
  20.8179428   2.2490502  17.4438582  20.0616139   2.1224932  17.6093212
  11.4365783   6.7136535  13.0937372  12.2506421   7.0051428  12.9820143
  11.3724924   6.0596397  12.5195665  11.5468522   6.6601729  12.9926209
  17.6575273   9.3962531  27.5066947  17.4213910   8.5650596  27.3879008
  18.3018502   9.3448138  28.0921791  17.7169944   9.2660219  27.5752841
   7.3073691  10.1858052  18.2209684   7.9447638   9.9469800  18.7661477
   7.7328762  10.3895211  17.4862844   7.4649857  10.1809062  18.1926841
   1.9986333  12.4246389  22.1043987   2.0390479  12.6961240  21.2763767
   2.5580857  12.9488297  22.5201775   2.0869679  12.5422144  22.0435876
   7.9476506   5.4060342  12.5584573   8.3321659   5.1868049  13.3101118
   7.6988126   6.2323287  12.6885649   7.9678579   5.4958488  12.6885649
  18.6811693   9.1806980  23.5695242  18.3757511   9.9135036  23.9308557
  17.9617909   8.7744909  23.2888028  18.5299036   9.2288713  23.5808379
   9.6895163  10.6630475  19.9003470   9.7634171  10.5005647  20.7545320
  10.5064669  10.8520664  19.6563952   9.8211521  10.6667217  19.9901496
  24.3813486   5.8199980  22.8963586  24.3137986   5.8395939  22.0266173
  24.3669148   6.6630308  23.1219257  24.3692242   5.9473715  22.8016063
   3.4500920  11.0088338  16.9297913   2.6239037  11.2550075  16.8032192
   3.5112911  10.9300419  17.7959971   3.3375087  11.0333287  17.0386858
   8.2299749  13.6265218  14.6316943   8.5198047  13.2354199  13.9076170
   8.9603229  13.8081923  15.0722219   8.3806633  13.5959032  14.5899750
  22.1672103   4.5944367  21.1710180  22.7180024   3.9612436  21.4107272
  22.1516218   5.1259759  21.8625685  22.2457299   4.5793315  21.3089039
   8.8194494   8.4282964  25.7170074   8.3206187   9.1398732  25.7954962
   9.6294718   8.7483630  25.6788236   8.8650600   8.5809812  25.7226642
   6.1705664  15.6032600  17.6977093   5.9505960  15.3129955  18.4903760
   5.9500186  14.9447555  17.1695005   6.1053258  15.4632309  17.7366002
   5.0822611   7.6905917  19.9632795   4.7935860   7.0643388  20.4978522
   5.9505959   7.6326204  20.0297475   5.1682863   7.5893461  20.0523749
  15.8700509   2.8340700  20.2814777  15.5265275   2.1131035  20.6322026
  15.9693552   2.6254551  19.4393135  15.8342552   2.6964903  20.2086457
   8.3373620  16.9761990  16.4807785   8.9897678  16.4438433  16.7098811
   7.6399229  16.6230643  16.8675659   8.3304338  16.8451513  16.5719953
   5.2854885   9.3301168  15.8875160   6.0400853   9.7114207  16.1010622
   4.6925497   9.7812312  16.3421856   5.3091598   9.4529995  15.9858038
  16.3313538   9.2966404  15.8238765  16.8971571   9.9559614  15.7397308
  15.6841442   9.6416102  16.2955167  16.3192295   9.4448346  15.8811521
   6.6053111  10.5009729  21.2615275   6.0833865  10.6410021  21.9467140
   6.9927132   9.7420394  21.4517392   6.5856812  10.4095253  21.3916352
  12.8020116  12.2405188  15.2475844  12.5606792  11.5073049  14.8402909
  12.9821449  12.7892045  14.5942177  12.7927740  12.2127580  15.0906067
   8.0319437   7.5313748  16.6596766   7.8362220   8.1388483  16.0657069
   8.2553783   6.8381692  16.1788440   8.0354078   7.5191274  16.5012847
   6.4297967   4.4168486  16.7777635   7.1520619   4.5809644  16.3181441
   5.9505960   5.1378151  16.6716974   6.4661698   4.5466716  16.6943249
  14.3891475   0.7532285  22.1574319  13.5502575   0.7793564  21.9212583
  14.4595842   1.4003020  22.7379666  14.2759868   0.8528411  22.2083436
   4.0805584   6.8226559  25.8831774   4.5926681   7.1010812  25.2340534
   3.7941926   7.5615853  26.2494587   4.1140447   6.9728912  25.8421652
  18.2648998   5.9600272  19.4435561  18.1782973   6.1155698  20.2970340
  17.8099478   6.6038347  19.0694966  18.1852255   6.0776027  19.5142668
  12.1374814   3.2811019  18.0661121  11.8909529   3.2006770  18.8997910
  12.4659938   2.4964487  17.8723648  12.1496058   3.1537284  18.1608644
  16.0322863   9.9894378  21.8547902  15.8937223  10.6875424  22.3596644
  15.2522861   9.8343035  21.4984084  15.8966090  10.0694545  21.8774176
  14.3700948   6.2890754  28.1070284  14.3648987   5.4170570  28.1112710
  15.0761942   6.4878923  27.6339739  14.4745952   6.1894628  28.0377319
   8.0971842   6.0167737  27.4784104   8.2415217   6.5968946  26.8427214
   8.4447490   6.3944034  28.1833958   8.1699303   6.1588441  27.4883099
  10.2691759   5.2157906  25.2609235   9.5215073   5.4088920  24.8557513
  10.4233284   4.3903125  25.0233357  10.1814187   5.1223017  25.1654641
   7.1699597  14.2070509  24.3445131   7.3189160  13.6473425  23.6918535
   7.9499599  14.2862511  24.7277649   7.3073690  14.1356075  24.3042080
  17.5276236   9.3472632  12.6164401  17.1483045   8.5609770  12.6093691
  16.8642482   9.8959489  12.4736045  17.3734711   9.3117456  12.5945198
   9.6952897  14.3785152  25.6229621   9.6196568  13.7093963  26.1780410
   9.6242756  15.0802940  26.1370288   9.6733504  14.3830059  25.7806470
  10.3523144  12.8986151  16.4553227  11.1173035  12.6295795  16.1335892
  10.2501234  12.4136161  17.1723290  10.4504640  12.7875716  16.5133055
  12.8741805   9.9298335   8.4353177  13.6414790   9.9898460   8.0259029
  12.4273114   9.3578776   7.9509495  12.9215232   9.8534910   8.3030887
  13.7719600   8.7352991  20.7205909  13.0964602   8.5038223  21.2219296
  13.7811976   8.1274174  20.0948014  13.6738105   8.6111916  20.7022061
  10.9013744   3.5770820  27.4769962  10.8372886   4.4380776  27.3490099
  11.0410932   3.2602813  26.6765513  10.9129214   3.6570986  27.3398175
  15.7736335  11.5918123  12.9516087  15.8556172  12.3985109  12.6277538
  16.2586077  11.6114082  13.6756861  15.8573493  11.7138785  13.0102986
   9.5832838   6.2702959  21.6186165   9.1595087   6.4707458  20.8825183
   9.4077693   5.4231807  21.7310465   9.4943719   6.1751740  21.5259855
   9.0844532  17.7853472  24.0807622   9.5740462  17.0864261  23.8983287
   8.5128764  17.4877342  24.6683680   9.0729062  17.6379696  24.1408663
   4.8715283   6.7655010  17.0514137   5.0279902   6.7001813  17.9070130
   5.2115876   7.5403563  16.8392817   4.9448518   6.8704208  17.1468732
  11.4094428   6.1412894  15.9207501  11.9509973   5.6383275  16.3846121
  11.7240987   6.0878089  15.1096986  11.5358825   6.0592315  15.8691313
  15.2811535  10.3515541  33.0334413  16.0946400  10.0800690  33.1939545
  15.1206502  10.0523081  32.2294609  15.3781484  10.2670467  32.9379819
   9.5780878  11.5330245  13.2047529   9.6473698  10.6744784  13.3440529
  10.3569333  11.7502126  12.8766553   9.7033728  11.4383109  13.1764686
  12.5583697   1.0349198  25.9729801  12.7725667   0.3960113  25.4193155
  11.9417596   1.4795022  25.5437663  12.4989026   1.0059342  25.8280232
  13.9688365  13.9567947  17.4184022  13.5768157  13.6534662  16.7006888
  14.1241437  14.7937037  17.2288976  13.9341955  14.0351783  17.2840519
  14.7222785   2.6438264  26.9113108  13.9099467   2.3364154  26.9926281
  15.1812720   2.1637264  27.4755820  14.6703170   2.5274756  27.0067702
  14.1328040  10.5217936  17.3590053  13.7742695  10.6932578  18.1354085
  13.6466751  10.9831141  16.8018051  14.0086737  10.6156907  17.3915322
   8.9216405   6.2017101   9.8990287   9.2108930   6.9781983  10.1733861
   9.0088204   5.6905832  10.6004786   8.9770661   6.2409019  10.0432785
  15.2932779  11.4121832  28.3057253  15.9312500  10.9182027  27.9719710
  14.6506871  11.3399232  27.7209480  15.2927006  11.3280840  28.1699608
  17.0189779   3.2610977  22.8723169  16.5917387   3.1737326  22.1171269
  16.3815832   3.3688753  23.4578013  16.8619387   3.2643637  22.8468611
  15.3487036  12.1041640  24.9462610  16.1379414  11.7530705  25.0664692
  15.5230634  12.9178028  24.6839244  15.4907317  12.1727497  24.9250478
   5.0880346   5.5150366  21.9990399   4.2468353   5.4154240  22.2069293
   5.2970354   6.2845846  22.3504720   4.9945039   5.6142409  22.0817714
   8.8997011   3.4431765  21.2487997   8.5960149   2.8887753  21.8498404
   8.1976432   3.6223975  20.7616031   8.7513221   3.3876547  21.2657702
   6.9615362  10.6581485  25.9560094   6.8535717  10.6683548  26.8222152
   7.1711144  11.4836266  25.7665048   6.9765473  10.7822560  26.0564186
   4.9789154   7.9094128  23.4182032   4.3877087   8.5503626  23.3885047
   5.7410178   8.3331745  23.3913331   5.0037415   8.0669966  23.4097179
  21.0979576   7.7399898  24.4159310  21.1562699   8.1886546  25.1619287
  20.4646043   8.1498710  23.9789390  21.0130871   7.8673632  24.4611859
  14.7378670  13.3603439  20.8514056  14.5398359  13.8494254  20.1570268
  14.1166381  13.5644681  21.4298190  14.6166235  13.4619978  20.8337280
   8.7986649   5.1288336  15.1924301   9.5428694   5.5162613  15.4307251
   8.9447345   4.2845762  15.3564788   8.9297234   5.0618809  15.2518270
  11.7864525   0.7013810  21.0918220  11.3124479   0.1755572  21.6023531
  12.1582660   0.1543282  20.5233082  11.7714413   0.5429806  21.0833367
  18.0501255   5.7616185  22.5025001  17.8099478   4.9222600  22.5067427
  18.5293262   5.8416352  23.2265774  18.0853439   5.6497585  22.6099803
  13.7148024   1.5950364  14.1543974  13.1871043   1.6779108  13.4649683
  14.1743732   2.3368236  14.1508619  13.7049875   1.7171027  14.0518669
  20.0506442   2.5417642  20.4554260  19.8116212   2.5013477  19.6175044
  20.2140343   3.3888794  20.5819981  20.0396746   2.6609727  20.3507742
  16.6552472   6.9267592  26.3859305  17.3786671   6.4740118  26.2070325
  16.3902435   7.2072257  25.6031633  16.7233746   6.9018560  26.2438020
   2.2365016   9.5828225  24.5615948   1.7064941   8.8920664  24.6110923
   2.5090110   9.5738411  23.7328657   2.1989739   9.4795357  24.4463364
  13.2685107  10.1653928  13.2853631  13.9919306  10.6312041  13.1418204
  12.8285698  10.2327537  12.5351228  13.3100799  10.2437764  13.1538412
  12.4371262   7.0251470  24.5354320  11.8228255   6.4809520  24.8302955
  12.9538547   6.5115706  24.0560136  12.4226924   6.8687879  24.5078548
  11.6767559   8.0955740  22.2698619  11.2495167   7.4705459  21.8364054
  11.6692503   7.8130662  23.0957626  11.6126700   7.9608521  22.3278446
   8.4684204   7.2656053  29.9667191   7.6179834   7.4027767  30.1024836
   8.6312331   6.5319831  30.4114893   8.3668067   7.1770154  30.0522791
   7.7068954   4.2155823  24.1620796   6.8760884   4.3829641  23.9556044
   7.6520471   3.8391773  24.9469681   7.5758369   4.1845554  24.2469324
  19.0887786   5.8894003  24.8889855  19.6805626   6.5291253  24.9208053
  19.5246781   5.1917039  25.1781921  19.2406217   5.8812353  24.9370687
  10.9181176  10.3111375  25.5147748  10.4106267  10.8647222  25.9588379
  10.6207822  10.3719665  24.6966523  10.7986061  10.4017686  25.4596205
   2.6158208   5.5546366  15.2893036   3.1250438   6.1510873  15.6704342
   3.0892481   5.2872340  14.6069456   2.7601584   5.6032181  15.2447559
  13.5288956  14.2274633  13.4451692  12.8118266  14.0535495  12.9798929
  14.1795694  13.9927205  12.9127178  13.5190807  14.1670425  13.2980910
  16.1136928   3.1039221  17.1892997  15.4428117   3.6468923  17.0606063
  16.8076678   3.5734077  16.9474692  16.1165795   3.2537492  17.1348525
  10.1623661  15.2435933  22.4204755   9.9389316  14.4854762  22.7888782
   9.6733505  15.2733954  21.6985195  10.0567110  15.1358158  22.3681496
  16.2765055  -0.4404895  20.0983370  16.6292665  -0.8675172  20.7729169
  15.4179857  -0.5254052  20.2284447  16.2014500  -0.5160155  20.2178381
  14.2748321   2.8230473  24.0468213  14.2546248   2.6413769  24.9002991
  14.3227522   3.6942492  24.0227796  14.2782962   2.9247012  24.1691507
  12.2194651   9.4117665  29.9716689  12.1790506   8.7667342  29.3861845
  13.0317969   9.3554283  30.2842101  12.3337804   9.3076632  29.9313638
   8.8102118  15.4636391  19.8741840   8.3962517  14.8010522  19.4845682
   9.4949493  15.6114250  19.3537534   8.8500490  15.3877049  19.7398337
  12.1767412  14.6226477  20.6265457  11.7783696  14.7328747  19.8586277
  11.5618632  14.8308543  21.2092016  12.0266302  14.6700045  20.5996756
  10.7495314   1.2300624  13.4939596  10.1560154   1.5517621  12.9424163
  10.7870592   0.3841720  13.2860702  10.6669704   1.1524953  13.3822368
  13.6253131   1.1880129  16.9241346  13.3966824   1.2112830  16.0819705
  13.8851207   0.3637596  17.0436357  13.6299319   1.0696209  16.8166544
   7.9072359   3.0414602  26.5266447   7.3951263   2.4335785  26.8851478
   7.7351856   3.7571194  26.9940422   7.8061996   3.0577901  26.6482670
  19.9109255   9.1978443  14.0108547  20.2942861   9.9469799  14.2406644
  19.1153368   9.4444263  13.7520536  19.8503037   9.3448137  14.0066121
  11.7841430   0.9638847  28.9668702  12.3412860   0.7352656  28.3347168
  11.4602495   1.7244512  28.6903915  11.8187840   1.0422683  28.8325199
   9.5024547   4.0506500  29.9320709  10.2535874   4.3658177  30.2460264
   9.6947124   3.8485671  29.1054631   9.6415961   4.0673882  29.8564105
  16.3509837   0.1780066  17.1744505  16.3504064   0.0228723  18.0328781
  16.1466017   1.0243053  17.1185890  16.3209615   0.2800687  17.2932444
  14.0750689   4.8577568  20.8280712  14.5704355   4.1400563  20.7884732
  13.2650465   4.5548366  20.7135199  14.0294583   4.7075214  20.8054438
   9.5209301   8.7075381  12.9777716   8.7120623   8.3842055  12.9311026
  10.0284210   8.0008603  12.9105965   9.4758968   8.5556698  12.9608011
  16.1402508   7.6081255  23.5157840  16.5657580   7.0855677  22.9628265
  15.7759428   8.2062093  22.9946463  16.1489111   7.6191483  23.3566850
   5.7756588  15.9045473  22.2755186   6.0903147  16.7181861  22.2832968
   6.1850001  15.5195692  22.9437345   5.8824686  15.9674175  22.3759278
  12.7281108  11.3215520  19.8458998  13.1992286  12.0355782  20.0148983
  13.0641286  10.7214270  20.3818867  12.8476223  11.3386984  19.9491374
  14.8158092  12.9316833  32.0251070  14.9255058  12.1425394  32.3807817
  15.1448989  12.8422769  31.2225408  14.8810498  12.8022686  31.9593461
  13.3655054  11.1133454  26.6086691  12.8176000  10.4891338  26.3406756
  13.8268083  11.3027726  25.8930770  13.3522263  11.0492504  26.4637122
  16.1748918  -0.8181192  23.9937883  15.5911907  -0.3171985  23.5815450
  16.4953212  -1.3251635  23.3602206  16.1362094  -0.8189357  23.8396390
   3.1169608   9.8518581  21.9233794   3.7214465   9.8114416  21.2947615
   2.9096921  10.6989733  21.9537850   3.1758505   9.9706584  21.8349911
  12.9313380  12.1184527  23.1396032  13.7511754  11.9747493  23.4012327
  12.6507458  12.7430725  23.6812470  13.0110124  12.1894879  23.2583971
  29.4027031  19.7749378  16.1038908  29.3721035  20.6294015  16.2757177
  30.0008379  19.4744671  16.6625052  29.4864188  19.8565875  16.2113710
  16.9867855  28.3987747  16.6229070  16.2350755  28.0203286  16.3945115
  17.4353867  28.4306181  15.8747880  16.9417522  28.3473354  16.4786572
  25.9120432  25.1311555  30.4652295  26.6187199  24.6363586  30.5939229
  26.1008367  25.5720636  29.7354953  26.0448338  25.1229905  30.3761340
  22.4392815  28.8213117  12.0514617  22.1044183  29.4990038  11.6158839
  22.9519685  28.4318428  11.4631489  22.4658396  28.8637695  11.9001409
  21.9797106  30.7727385  17.9925729  22.3636486  31.3414284  17.4530504
  21.9156248  30.0476896  17.5131545  22.0270534  30.7502849  17.8419591
  25.4478536  20.9217073  23.5023490  25.9934496  21.6002160  23.5617460
  25.3895413  20.7804534  22.6425072  25.5194451  21.0009075  23.3835551
  18.5652611  28.4106139  18.8891843  18.6662974  27.6006493  19.1988970
  17.9694357  28.3163086  18.2591521  18.4925150  28.2771167  18.8418081
  27.2243605  22.3501680  14.3757218  27.1083131  23.1009366  14.8049356
  28.0199492  22.0925634  14.6253305  27.3248195  22.4236527  14.4761310
  18.4053351  33.3283729  20.2906699  19.0490806  33.7696893  20.6802857
  18.7309606  32.5237155  20.2036957  18.5485180  33.2748923  20.3352176
  11.7617656  24.4326426  18.5144176  11.5267840  23.5994078  18.4076445
  11.9003296  24.7131092  17.7005377  11.7473318  24.3509929  18.3786531
  14.0607743  16.6012157  21.4128484  13.4412775  16.0104804  21.2438499
  13.9591607  17.1923592  20.7792807  13.9545419  16.6016239  21.2933473
  19.1073931  26.3395703  15.6626560  19.4289772  26.8800911  15.0587868
  19.7546027  25.7692475  15.7948850  19.2499986  26.3354879  15.5933596
  13.7876876  20.1464438  23.6572053  13.6635573  20.7326884  24.2921872
  14.4395161  19.6524634  23.9584328  13.8650525  20.1603243  23.7957982
  21.3463574  24.7282143  15.7340739  21.7857210  24.1199244  16.1795511
  21.1968237  24.3489517  14.9626204  21.3885040  24.5820614  15.6859906
  21.3521308  26.1681061  22.5866457  21.6344551  25.3732467  22.3653212
  22.0807469  26.6461648  22.6071518  21.5010872  26.1215658  22.5569472
  19.3302502  13.7104095  19.8282222  19.0005832  14.1615239  19.1585920
  18.6547504  13.6320258  20.3755228  19.1812939  13.7655230  19.8105445
  24.9472911  23.0809325  12.6871508  24.8624206  23.9370291  12.8321077
  25.4357294  22.8053649  13.3553667  25.0061808  23.1666646  12.8073589
  26.5378910   9.6989618  18.0731832  26.2232351  10.3893096  18.5052255
  26.0205852   9.6434400  17.3717333  26.4143380   9.7924506  18.0328781
  31.3339397  25.2740423  19.5602287  30.5037100  25.4851067  19.7235704
  31.2848649  24.4477478  19.2844571  31.2046132  25.1830030  19.5439653
  17.7690952  23.5957336  12.9876711  17.1848167  24.1007367  13.3942575
  17.3661047  23.3699722  12.2473303  17.6230255  23.6365584  12.9381736
  13.3234980  29.3112097  19.7900382  12.8402559  30.0362586  19.7659966
  14.1358299  29.6088227  19.9010540  13.3725728  29.4614450  19.8027662
  19.3949134  28.1044277  22.3950197  18.8776076  27.7451692  21.7911505
  20.0923526  27.5806452  22.4056263  19.4214715  27.9741965  22.3080456
  23.0512726  28.5539091  28.3566370  23.1396072  28.3665232  29.2044580
  23.4802439  27.9076521  27.9571217  23.1274829  28.4302099  28.4238121
  20.6183186  27.8370251  27.3384032  20.0554021  27.4242861  27.8623693
  21.3804210  27.7623157  27.7577175  20.6477635  27.7647652  27.4777032
  22.2268166  19.8422988  11.4645631  22.4664170  20.0500971  10.6520975
  22.5484007  19.0380496  11.5734576  22.3105324  19.7537089  11.3606185
  17.5358456  11.7716383  15.3105169  18.2904424  12.1394700  15.0722220
  17.3585991  12.1455938  16.0784349  17.6212935  11.8814571  15.3890058
  16.1779178  29.8268273  19.9420662  16.8799757  29.3120262  19.9993419
  16.0976661  30.1542424  20.7467537  16.2702938  29.7982499  20.0693454
  30.8293355  17.9210824  23.3552709  29.9921776  17.9913011  23.5900303
  30.7981586  17.9235319  22.4827011  30.7011637  17.9321051  23.2612257
  17.2258084  20.0643860  29.0701077  17.3978588  19.9549754  29.9186359
  17.7627442  20.7098265  28.8332270  17.3303088  20.1435861  29.1606174
  15.8915521  14.1786702  12.0083282  15.7091094  14.3958583  11.1824275
  16.7541134  14.2925715  12.0641897  15.9920110  14.2276600  11.8937769
  15.5029953  26.0174625  19.4506270  16.3418852  26.2497557  19.4980032
  15.5341722  25.1478936  19.3813306  15.6311671  25.9231571  19.4470915
  21.5715240  11.1813113  15.0432306  22.3001401  11.0029068  14.5970462
  21.6610133  12.0231193  15.2539484  21.6921902  11.2796991  15.0085824
  28.5903712  25.9439778  19.6967003  28.1538944  25.9476520  20.4525975
  28.2566627  26.6245277  19.2646581  28.4766332  26.0452233  19.7447836
  23.1632786  27.9848110  31.0210153  23.9473202  28.0978958  31.3865896
  22.9629380  27.1589248  31.2168839  23.2498811  27.8794830  31.1044540
  11.5319801  22.6575791  23.9053997  11.2658216  21.8414907  24.0644988
  11.5458365  22.7028946  23.0349513  11.4944523  22.5432695  23.8007479
  28.5101195  12.9853605  21.9396431  29.1527103  13.0551710  22.5258346
  28.7624216  12.3182828  21.4375973  28.6423327  12.8979954  21.9523710
  15.4377548  17.4560875  10.5205755  14.7235725  17.1699055  10.9328188
  15.9221517  17.7957501  11.1612143  15.4036911  17.4642525  10.6761390
  16.2818407  16.1954169  26.5521005  15.5890204  15.7251149  26.7981737
  16.8978735  15.9692473  27.1262712  16.2702937  16.0921301  26.6730158
  23.3203179  29.8958213  24.6676609  22.5218425  29.6557713  24.9250478
  23.7689190  29.9472605  25.4143657  23.2677790  29.8680604  24.8161533
  31.7248058  22.6620698  18.5886640  32.3864492  22.1011366  18.4882549
  31.0839470  22.1672728  18.9139332  31.7276926  22.5057107  18.6218981
  22.6124866  25.9590829  10.8967564  23.0276014  25.6275853  10.2052059
  21.7816796  25.7259731  10.7687700  22.5512875  25.8762085  10.7758411
  11.9413215  23.4434570  21.1865742  11.7588788  23.4181456  20.3338034
  12.6762884  23.9133508  21.2254650  12.0227279  23.5095932  21.0663660
  28.0112889  23.6786080  18.3298629  28.2468478  23.8231279  17.5025480
  28.1602453  24.4428488  18.7230143  28.0678692  23.8125134  18.2662233
  15.0058966  20.1619573  27.6947850  15.7298939  20.1472603  28.1812745
  15.1075103  20.8714928  27.1969818  15.1277175  20.2644276  27.6926637
  29.8403346  22.5187746  16.1668233  30.1711563  23.0515386  15.5608328
  30.4136434  22.5726634  16.8230184  29.9737025  22.6057315  16.1746015
  22.3803916  23.6418657  32.5596797  21.5876897  23.9562169  32.7449417
  22.4952843  23.8570126  31.7217582  22.2799326  23.7202494  32.4635132
  23.3087709  23.5438861  27.4982094  23.8826570  22.9066105  27.6530658
  23.2302512  23.5442944  26.6291752  23.3820943  23.4503973  27.3928505
  11.9084125  20.3228071  21.3364808  12.4857628  20.1864521  21.9757054
  11.2098187  19.8663855  21.5910393  11.8905146  20.2350337  21.4687098
  25.3058256  22.2101388  10.0828765  25.2238419  22.2803576  10.9483752
  25.9437977  22.7731132   9.8912506  25.3878093  22.3040359  10.1818715
  23.7452477  14.0790577  19.6507384  23.0408804  13.5899763  19.8091303
  23.7937452  14.0913051  18.7795829  23.6482529  14.0080225  19.5446724
  30.9482697  17.7598243  17.6708395  30.6919262  16.9478184  17.4806277
  31.7912011  17.7675810  17.4438582  31.0348723  17.6410240  17.6093212
   7.3842958  19.1739964  18.0512627   7.4703210  18.7971832  18.8326157
   8.0118756  18.8000409  17.5732585   7.4899509  19.0625446  18.0958104
  25.1285790  11.6997867  22.4084549  25.5096301  11.0176038  22.7952423
  24.3249074  11.4107469  22.2260213  25.0662251  11.5564915  22.4388605
  22.4098366  22.2321843  13.0937372  23.2239005  22.5236735  12.9820143
  22.3457508  21.5781705  12.5195665  22.5201105  22.1787037  12.9926209
  28.6307856  24.9147839  27.5066947  28.3946494  24.0835904  27.3879008
  29.2751085  24.8633446  28.0921791  28.6902527  24.7845527  27.5752841
  18.2806275  25.7043360  18.2209684  18.9180221  25.4655108  18.7661477
  18.7061346  25.9080519  17.4862844  18.4382441  25.6994370  18.1926841
  12.9718917  27.9431697  22.1043987  13.0123062  28.2146548  21.2763767
  13.5313441  28.4673605  22.5201775  13.0602263  28.0607452  22.0435876
  18.9209090  20.9245650  12.5584573  19.3054242  20.7053357  13.3101118
  18.6720710  21.7508595  12.6885649  18.9411162  21.0143796  12.6885649
  19.0877630  14.2052065  32.2747157  18.7731071  14.9751628  32.0116720
  18.7667563  13.6422321  31.6899384  18.9936549  14.2362334  32.1488507
  29.6544277  24.6992288  23.5695242  29.3490094  25.4320344  23.9308557
  28.9350493  24.2930217  23.2888028  29.5031619  24.7474021  23.5808379
  20.6627746  26.1815783  19.9003470  20.7366755  26.0190955  20.7545320
  21.4797253  26.3705972  19.6563952  20.7944105  26.1852525  19.9901496
  35.3546069  21.3385288  22.8963586  35.2870569  21.3581247  22.0266173
  35.3401732  22.1815615  23.1219257  35.3424826  21.4659023  22.8016063
  14.4233503  26.5273646  16.9297913  13.5971621  26.7735383  16.8032192
  14.4845494  26.4485726  17.7959971  14.3107670  26.5518595  17.0386858
  16.6409527  12.5942587  17.8893354  15.7731952  12.6665186  17.9550963
  16.9284731  13.3964666  18.0781329  16.5549275  12.7236734  17.9268120
  25.7642416  12.7420446  26.2204675  26.5096008  12.5530256  25.8068101
  25.3479720  13.2678684  25.6618532  25.8127390  12.7922591  26.0769249
  19.2032332  29.1450526  14.6316943  19.4930631  28.7539507  13.9076170
  19.9335813  29.3267231  15.0722219  19.3539216  29.1144340  14.5899750
  33.1404687  20.1129674  21.1710180  33.6912608  19.4797743  21.4107272
  33.1248802  20.6445067  21.8625685  33.2189883  20.0978623  21.3089039
  17.1438248  31.1217908  17.6977093  16.9238543  30.8315263  18.4903760
  16.9232770  30.4632863  17.1695005  17.0785842  30.9817617  17.7366002
  19.3106203  32.4947298  16.4807785  19.9630262  31.9623740  16.7098811
  18.6131812  32.1415950  16.8675659  19.3036921  32.3636821  16.5719953
  16.2587468  24.8486476  15.8875160  17.0133436  25.2299515  16.1010622
  15.6658081  25.2997619  16.3421856  16.2824182  24.9715303  15.9858038
  27.3046122  24.8151712  15.8238765  27.8704154  25.4744922  15.7397308
  26.6574025  25.1601410  16.2955167  27.2924878  24.9633654  15.8811521
  18.7194135  16.8049316  31.0132372  17.9093911  17.1107096  30.9022214
  19.1968822  17.5254898  31.1284956  18.6697614  16.9563917  31.0139443
  14.5676879  16.0700846  15.3310230  14.2801675  15.7002116  14.5942177
  15.2547347  16.5395701  15.0693935  14.6265776  16.0847815  15.1825306
  23.7752700  27.7590496  15.2475844  23.5339376  27.0258357  14.8402909
  23.9554033  28.3077353  14.5942177  23.7660324  27.7312888  15.0906067
  17.4030551  19.9353794  16.7777635  18.1253202  20.0994952  16.3181441
  16.9238543  20.6563459  16.6716974  17.4394281  20.0652024  16.6943249
  23.8093336  13.1702970  16.8901935  24.5119689  12.9710718  16.4121894
  23.5437525  12.3978912  17.1970779  23.8739969  13.0265936  16.8647377
  29.2381582  21.4785580  19.4435561  29.1515557  21.6341006  20.2970340
  28.7832062  22.1223655  19.0694966  29.1584839  21.5961335  19.5142668
  12.1405074  16.8482058  16.1795511  12.2421210  17.6508220  16.5076486
  12.9360960  16.6469394  15.8818591  12.2732979  16.9367957  16.1830866
  18.5721893  14.4338255  25.9432816  18.3805090  14.4493390  26.7932240
  19.4220489  14.6301929  25.9199471  18.6697615  14.4652606  26.0656111
  12.9568806  16.9629237  23.9216632  12.8154297  16.1113177  24.0461140
  13.2409369  17.0057897  23.0978838  12.9776652  16.8428987  23.8184257
  27.0055447  25.5079686  21.8547902  26.8669806  26.2060732  22.3596644
  26.2255445  25.3528343  21.4984084  26.8698674  25.5879853  21.8774176
  25.3433532  21.8076061  28.1070284  25.3381570  20.9355878  28.1112710
  26.0494526  22.0064231  27.6339739  25.4478536  21.7079936  28.0377319
  18.1432180  29.7255817  24.3445131  18.2921744  29.1658733  23.6918535
  18.9232182  29.8047819  24.7277649  18.2806274  29.6541383  24.3042080
  28.5008820  24.8657940  12.6164401  28.1215628  24.0795078  12.6093691
  27.8375065  25.4144797  12.4736045  28.3467294  24.8302764  12.5945198
  20.6685481  29.8970460  25.6229621  20.5929152  29.2279271  26.1780410
  20.5975340  30.5988248  26.1370288  20.6466088  29.9015367  25.7806470
  21.4826120  14.6293764  26.1504639  21.9398734  15.3617739  26.2777431
  21.5582448  14.2060230  26.9091895  21.5617090  14.6751003  26.2805716
  13.7259111  14.8759584  27.2394083  13.1901300  14.2639942  27.5554850
  13.7876876  15.4507720  27.8927749  13.6554744  14.8706512  27.3829510
  25.9553446   7.8083640  20.0198482  26.0737014   8.2660103  19.2865785
  25.7815621   7.0028901  19.7334700  25.9472617   7.7577412  19.8699416
  21.3255728  28.4171459  16.4553227  22.0905619  28.1481103  16.1335892
  21.2233818  27.9321469  17.1723290  21.4237223  28.3061024  16.5133055
  19.3608498  16.6195868  22.9946463  18.5704572  16.4387328  23.3163799
  19.7569120  15.8422821  22.9776758  19.3025374  16.4783329  23.0399012
  23.8474388  25.4483643   8.4353177  24.6147374  25.5083768   8.0259029
  23.4005697  24.8764084   7.9509495  23.8947816  25.3720218   8.3030887
  24.7452184  24.2538299  20.7205909  24.0697186  24.0223531  21.2219296
  24.7544560  23.6459481  20.0948014  24.6470688  24.1297224  20.7022061
  21.8746328  19.0956127  27.4769962  21.8105469  19.9566084  27.3490099
  22.0143516  18.7788121  26.6765513  21.8861798  19.1756294  27.3398175
  26.7468918  27.1103431  12.9516087  26.8288756  27.9170417  12.6277538
  27.2318661  27.1299390  13.6756861  26.8306076  27.2324093  13.0102986
  20.0577115  33.3038780  24.0807622  20.5473046  32.6049569  23.8983287
  19.4861348  33.0062650  24.6683680  20.0461645  33.1565003  24.1408663
  15.8447867  22.2840318  17.0514137  16.0012486  22.2187121  17.9070130
  16.1848460  23.0588871  16.8392817  15.9181102  22.3889516  17.1468732
  26.2544119  25.8700849  33.0334413  27.0678984  25.5985998  33.1939545
  26.0939085  25.5708389  32.2294609  26.3514067  25.7855775  32.9379819
  20.5513461  27.0515553  13.2047529  20.6206281  26.1930092  13.3440529
  21.3301916  27.2687434  12.8766553  20.6766311  26.9568417  13.1764686
  23.5316281  16.5534506  25.9729801  23.7458250  15.9145421  25.4193155
  22.9150180  16.9980330  25.5437663  23.4721610  16.5244650  25.8280232
  24.9420949  29.4753255  17.4184022  24.5500740  29.1719970  16.7006888
  25.0974021  30.3122345  17.2288976  24.9074539  29.5537091  17.2840519
  12.4182128  19.4675269  17.3674905  12.7981093  19.8859814  16.7035172
  11.8437493  20.0488724  17.6743748  12.3893453  19.6153128  17.3151646
  25.6955369  18.1623572  26.9113108  24.8832050  17.8549462  26.9926281
  26.1545303  17.6822572  27.4755820  25.6435754  18.0460064  27.0067702
  25.1060623  26.0403244  17.3590053  24.7475278  26.2117886  18.1354085
  24.6199334  26.5016449  16.8018051  24.9819320  26.1342215  17.3915322
  22.9231009   9.6634442  20.9617144  22.0524567   9.6373163  20.9150453
  23.1771351   9.4911634  20.1442990  22.8324569   9.6344586  20.8337281
  19.8948989  21.7202409   9.8990287  20.1841514  22.4967291  10.1733861
  19.9820788  21.2091140  10.6004786  19.9503245  21.7594327  10.0432785
  22.7908876  19.5683643  31.6941811  23.2608507  20.1925759  32.0809685
  22.8370756  18.9000618  32.2535025  22.8676752  19.5618323  31.8341882
  19.9480150  11.6740670  22.4190614  19.4318638  10.9820862  22.5442193
  19.3874079  12.3411447  22.3653213  19.7886663  11.6703928  22.4296680
  22.0172383  12.2133630  24.2483467  21.6304136  12.2382662  25.0296997
  21.5305321  11.6475309  23.7957984  21.8884892  12.1329381  24.2971371
  26.2665363  26.9307139  28.3057253  26.9045083  26.4367335  27.9719710
  25.6239454  26.8584540  27.7209480  26.2659589  26.8466148  28.1699608
  27.9922363  18.7796285  22.8723169  27.5649971  18.6922634  22.1171269
  27.3548416  18.8874061  23.4578013  27.8351970  18.7828945  22.8468611
  21.6829525   9.1000616  26.5393727  22.3122643   9.6360916  26.2614797
  21.8515388   9.0077975  27.3907292  21.8007320   9.1661978  26.6242255
  21.4843440  13.8871811  28.8120138  22.3116869  13.6156960  28.8678753
  21.5051286  14.6832652  29.1683957  21.6096290  13.9651565  28.8735321
  26.3219619  27.6226948  24.9462610  27.1111998  27.2716012  25.0664692
  26.4963217  28.4363336  24.6839244  26.4639901  27.6912805  24.9250478
  16.0612930  21.0335673  21.9990399  15.2200936  20.9339548  22.2069293
  16.2702938  21.8031154  22.3504720  15.9677622  21.1327717  22.0817714
  13.5388497  18.6555210  19.8275150  13.1445194  18.7298222  19.0525259
  12.9828614  19.0413157  20.3783511  13.3991309  18.7236985  19.7942810
  25.1753444  11.6336504  19.5079029  25.3803037  11.5658812  20.3536026
  24.8479868  12.4395326  19.4400206  25.1568691  11.7422445  19.6238684
  18.9295692  16.2717592  15.8132698  19.2055426  15.5536505  15.4010266
  19.5294361  16.8702512  15.6053805  19.0588956  16.2537963  15.7213460
  28.4287131  12.1868269  18.9881794  27.8161445  12.6738671  19.3735526
  28.5251306  11.5111760  19.5319445  28.3525029  12.1586577  19.1260652
  22.4306212  13.9431110  14.0879293  22.8849959  14.1141670  14.8127138
  22.9046258  13.3299221  13.6877069  22.5674532  13.8781995  14.1353055
  16.3482360  14.5881434  24.0850050  16.8083842  14.6620363  24.8225173
  16.3938467  15.3862688  23.7349871  16.4232916  14.7175581  24.1422806
  17.9965710  15.2548128  28.6522077  17.6051275  14.6081476  29.0877854
  18.1651573  15.8459564  29.2716332  17.9636621  15.2462396  28.8084783
  32.0712159  23.2585205  24.4159310  32.1295283  23.7071854  25.1619287
  31.4378627  23.6684018  23.9789390  31.9863454  23.3858940  24.4611859
  25.7111254  28.8788747  20.8514056  25.5130943  29.3679562  20.1570268
  25.0898965  29.0829989  21.4298190  25.5898818  28.9805286  20.8337280
  19.7719232  20.6473644  15.1924301  20.5161277  21.0347920  15.4307251
  19.9179928  19.8031070  15.3564788  19.9029817  20.5804117  15.2518270
  21.6898808  12.4423903  20.2256162  20.8434853  12.6146711  20.0997512
  21.6869940  11.6373247  20.5621990  21.5645958  12.3484932  20.2567289
  13.1370138  18.2170624  26.4601766  13.9995751  18.1166333  26.3739096
  12.8061921  17.6365333  25.8987338  13.2155335  18.1162251  26.3647172
  29.0233839  21.2801493  22.5025001  28.7832062  20.4407908  22.5067427
  29.5025846  21.3601660  23.2265774  29.0586022  21.1682893  22.6099803
  31.0239026  18.0602950  20.4554260  30.7848796  18.0198785  19.6175044
  31.1872927  18.9074102  20.5819981  31.0129329  18.1795035  20.3507742
  27.6285056  22.4452900  26.3859305  28.3519255  21.9925426  26.2070325
  27.3635018  22.7257565  25.6031633  27.6966329  22.4203868  26.2438020
  16.4971924  17.0413073  23.1212184  15.8724994  17.0531465  22.5138137
  16.1617519  17.5173248  23.7703424  16.3557416  17.1131590  23.1268753
  16.6813673  15.3838192   9.1784869  16.3326477  16.0357917   9.6416418
  16.2010119  15.3695305   8.4508740  16.5583917  15.4781245   9.1395960
  13.2097600  25.1013533  24.5615948  12.6797524  24.4105972  24.6110923
  13.4822693  25.0923719  23.7328657  13.1722322  24.9980665  24.4463364
  24.2417690  25.6839236  13.2853631  24.9651889  26.1497349  13.1418204
  23.8018281  25.7512845  12.5351228  24.2833382  25.7623072  13.1538412
  15.7662670  18.6506221  25.3387052  15.9256156  17.8949545  25.7438774
  15.5855563  19.1997161  25.9927790  15.7628029  18.6200035  25.4949758
  23.7082973  10.8167457  25.8937842  23.2123534  11.0131131  25.2029409
  24.4652035  11.2160125  25.7226644  23.7469797  10.9045190  25.7657979
  20.9785852  14.4909802  22.4841152  21.0028339  13.9569915  21.7953932
  21.2297326  13.9827111  23.1466743  21.0195771  14.3370706  22.4805797
   8.4893442  21.7741297  21.9184297   8.3836891  21.7288142  21.0536381
   7.7393662  22.1195078  22.1998581   8.3629045  21.8182206  21.8321626
  17.2587174  13.2180621  21.8646897  17.2985546  13.7189827  22.5781604
  16.4336839  13.3091014  21.5952820  17.1426700  13.3062437  21.9297435
  19.4416787  22.7841361  29.9667191  18.5912418  22.9213075  30.1024836
  19.6044915  22.0505139  30.4114893  19.3400651  22.6955462  30.0522791
  16.4885321  13.2250023  29.7977207  17.1138024  12.6812156  30.0706639
  16.0335801  12.7444941  29.2284997  16.5133582  13.0739505  29.7538800
  17.0537582  18.0096722  14.6910914  17.1940543  18.5069186  15.3939555
  17.5520114  17.3083016  14.8325127  17.1478663  17.9798701  14.8162493
  17.0837804  18.8763833  12.0203490  17.7182883  19.4724258  11.9552952
  17.1663415  18.5767291  12.8349361  17.1894355  18.9204741  12.1306577
  30.0620370  21.4079310  24.8889855  30.6538210  22.0476561  24.9208053
  30.4979364  20.7102347  25.1781921  30.2138801  21.3997661  24.9370687
  18.6616787  14.8077809  11.9948932  18.9832628  14.3280891  11.3408195
  18.9243731  15.6177455  11.8039744  18.7482812  14.8567706  11.8704424
  24.0575942  14.1950002  24.3572411  24.4831013  13.7422529  23.7455938
  23.4432935  13.6410073  24.6337199  24.0304587  14.0463979  24.3077437
  13.5890792  21.0731674  15.2893036  14.0983021  21.6696181  15.6704342
  14.0625064  20.8057648  14.6069456  13.7334168  21.1217489  15.2447559
  24.5021540  29.7459941  13.4451692  23.7850850  29.5720803  12.9798929
  25.1528278  29.5112513  12.9127178  24.4923390  29.6855733  13.2980910
  22.4970165  10.6665102  17.7662988  21.8538483  10.5162749  18.3348127
  22.1569572  10.4207448  17.0012093  22.3515242  10.6077225  17.7366004
  21.1356245  30.7621241  22.4204755  20.9121899  30.0040070  22.7888782
  20.6466088  30.7919262  21.6985195  21.0299694  30.6543466  22.3681496
  27.2497639  15.0780413  20.0983370  27.6025249  14.6510136  20.7729169
  26.3912440  14.9931256  20.2284447  27.1747083  15.0025153  20.2178381
  15.9481324  17.7087932  18.1566217  15.2293313  18.1252065  18.4239080
  16.3193686  18.2742171  17.6057855  15.8973255  17.8537214  18.1149024
  25.2480904  18.3415781  24.0468213  25.2278832  18.1599077  24.9002991
  25.2960105  19.2127800  24.0227796  25.2515545  18.4432320  24.1691507
  23.1927234  24.9302973  29.9716689  23.1523089  24.2852650  29.3861845
  24.0050553  24.8739591  30.2842101  23.3070388  24.8261940  29.9313638
  19.7834702  30.9821699  19.8741840  19.3695100  30.3195829  19.4845682
  20.4682076  31.1299558  19.3537534  19.8233074  30.9062357  19.7398337
  23.1499996  30.1411784  20.6265457  22.7516279  30.2514055  19.8586277
  22.5351216  30.3493851  21.2092016  22.9998885  30.1885353  20.5996756
  21.7227898  16.7485932  13.4939596  21.1292737  17.0702929  12.9424163
  21.7603176  15.9027028  13.2860702  21.6402287  16.6710261  13.3822368
  28.6821699  10.1998825  21.0267683  28.1752563   9.4927964  20.9588860
  29.4789132   9.8692013  21.1568759  28.7248938  10.0471976  21.0366678
  18.8804943  18.5599910  26.5266447  18.3683846  17.9521093  26.8851478
  18.7084439  19.2756502  26.9940422  18.7794580  18.5763209  26.6482670
  13.7270658  17.0037485  29.1768808  13.5573248  17.6638860  28.6317015
  13.2836608  17.2144046  29.8981298  13.6369991  17.1323467  29.2030438
  17.6530477  15.2441983  18.2195542  18.1287843  15.6059063  17.5845723
  17.1519077  15.8998451  18.4995685  17.6495836  15.3936172  18.1672283
  30.8841839  24.7163751  14.0108547  31.2675444  25.4655107  14.2406644
  30.0885952  24.9629571  13.7520536  30.8235621  24.8633445  14.0066121
  22.7574013  16.4824155  28.9668702  23.3145444  16.2537964  28.3347168
  22.4335078  17.2429820  28.6903915  22.7920424  16.5607991  28.8325199
  10.6272722  19.9084351  24.4357298  10.0799442  19.2384996  24.5538167
  11.4165100  19.5414199  24.5000766  10.6624906  19.7549337  24.4625999
  20.4757131  19.5691808  29.9320709  21.2268458  19.8843485  30.2460264
  20.6679707  19.3670979  29.1054631  20.6148545  19.5859190  29.8564105
  19.6957130  17.3883183  11.5868926  20.0756095  17.4062812  10.8020041
  18.9549726  17.8337172  11.4659773  19.6425968  17.4564958  11.4532494
   9.3859692  19.1205159  21.5903321   9.2081453  18.6681768  22.3158237
   9.0978714  19.9231320  21.7741799   9.3172645  19.1727716  21.7246824
  20.4941884  24.2260689  12.9777716  19.6853207  23.9027363  12.9311026
  21.0016793  23.5193911  12.9105965  20.4491551  24.0742006  12.9608011
  11.1232162  21.6532882  18.7025080  10.2577681  21.6418573  18.5907852
  11.2230977  21.4663105  19.5496220  11.0106329  21.6238944  18.8114025
  27.1135092  23.1266563  23.5157840  27.5390163  22.6040985  22.9628265
  26.7492012  23.7247401  22.9946463  27.1221694  23.1376790  23.3566850
  16.7489171  31.4230781  22.2755186  17.0635730  32.2367169  22.2832968
  17.1582585  31.0381000  22.9437345  16.8557269  31.4859483  22.3759278
  23.7013691  26.8400828  19.8458998  24.1724869  27.5541090  20.0148983
  24.0373870  26.2399578  20.3818867  23.8208806  26.8572292  19.9491374
  25.7890676  28.4502141  32.0251070  25.8987641  27.6610702  32.3807817
  26.1181572  28.3608077  31.2225408  25.8543082  28.3207994  31.9593461
  20.6183186  11.6128298  26.8017093  20.7511092  10.8159292  27.1298068
  21.0028339  12.1394701  27.3815368  20.6939515  11.5728215  26.9360596
  24.3387637  26.6318762  26.6086691  23.7908583  26.0076645  26.3406756
  24.8000666  26.8213034  25.8930770  24.3254847  26.5677812  26.4637122
  23.6915541   8.5358624  23.3998186  22.8861505   8.4256354  23.7166024
  23.5622277   8.6371080  22.5428052  23.5535674   8.5342294  23.3206226
  27.1481502  14.7004116  23.9937883  26.5644491  15.2013323  23.5815450
  27.4685796  14.1933672  23.3602206  27.1094677  14.6995951  23.8396390
  19.6876301  13.6144711  14.2696558  20.5091995  13.7843024  14.0278253
  19.2245952  13.7691972  13.5462855  19.7407463  13.6626444  14.1268202
  18.2771633  11.6087473  25.0494986  18.8216046  11.2678600  25.6399328
  18.3308569  12.4672935  25.1916271  18.3660752  11.6842733  25.1576860
  14.0902192  25.3703889  21.9233794  14.6947049  25.3299724  21.2947615
  13.8829504  26.2175041  21.9537850  14.1491089  25.4891892  21.8349911
  23.9045964  27.6369835  23.1396032  24.7244338  27.4932801  23.4012327
  23.6240041  28.2616033  23.6812470  23.9842707  27.7080187  23.2583971
   9.3253474  24.3538507  21.7932717   9.2277752  23.5434778  22.1022774
  10.1082344  24.3330300  21.4078986   9.4269610  24.2305597  21.7819580
  40.3759614  35.2934686  16.1038908  40.3453618  36.1479323  16.2757177
  40.9740963  34.9929979  16.6625052  40.4596772  35.3751183  16.2113710
  33.5759299  34.3810337  20.8591839  32.7197194  34.5418836  20.9100955
  33.6226953  33.5102401  20.8796900  33.4558410  34.2761139  20.8697905
  27.9600439  43.9173055  16.6229070  27.2083338  43.5388593  16.3945115
  28.4086450  43.9491489  15.8747880  27.9150106  43.8658662  16.4786572
  36.4211120  36.4402381  23.5023490  36.9667080  37.1187468  23.5617460
  36.3627996  36.2989842  22.6425072  36.4927034  36.5194383  23.3835551
  22.7350239  39.9511734  18.5144176  22.5000424  39.1179386  18.4076445
  22.8735880  40.2316400  17.7005377  22.7205902  39.8695237  18.3786531
  25.0340327  32.1197464  21.4128484  24.4145358  31.5290112  21.2438499
  24.9324190  32.7108900  20.7792807  24.9278002  32.1201547  21.2933473
  30.0806514  41.8581011  15.6626560  30.4022355  42.3986219  15.0587868
  30.7278611  41.2877783  15.7948850  30.2232569  41.8540186  15.5933596
  32.1308222  33.8597006  15.7460947  32.8288387  34.0385134  16.2382410
  32.4460555  33.3367346  15.1231336  32.2803559  33.8090778  15.7262957
  24.7609460  35.6649746  23.6572053  24.6368156  36.2512192  24.2921872
  25.4127744  35.1709942  23.9584328  24.8383109  35.6788551  23.7957982
  32.3196158  40.2467451  15.7340739  32.7589793  39.6384552  16.1795511
  32.1700820  39.8674825  14.9626204  32.3617623  40.1005922  15.6859906
  29.7867801  38.8411463  22.9359564  30.4316803  38.3483906  22.6170513
  30.0269578  38.9836250  23.7625642  29.9178386  38.7888905  23.0109097
  30.3035086  29.2289403  19.8282222  29.9738416  29.6800546  19.1585920
  29.6280088  29.1505566  20.3755228  30.1545522  29.2840538  19.8105445
  37.5111494  25.2174926  18.0731832  37.1964935  25.9078404  18.5052255
  36.9938435  25.1619708  17.3717333  37.3875964  25.3109814  18.0328781
  36.8523927  35.2179427  14.1869243  36.3235399  35.4339060  14.8466549
  37.3748947  35.9115565  14.1070212  36.8512380  35.3522564  14.2724842
  28.7423535  39.1142644  12.9876711  28.1580750  39.6192675  13.3942575
  28.3393630  38.8885030  12.2473303  28.5962839  39.1550892  12.9381736
  33.2000750  35.3608296  11.4645631  33.4396753  35.5686279  10.6520975
  33.5216591  34.5565804  11.5734576  33.2837908  35.2722397  11.3606185
  28.5091040  27.2901691  15.3105169  29.2637008  27.6580008  15.0722220
  28.3318574  27.6641246  16.0784349  28.5945518  27.3999879  15.3890058
  28.1990668  35.5829167  29.0701077  28.3711171  35.4735062  29.9186359
  28.7360025  36.2283573  28.8332270  28.3035672  35.6621169  29.1606174
  26.8648105  29.6972010  12.0083282  26.6823678  29.9143891  11.1824275
  27.7273718  29.8111023  12.0641897  26.9652694  29.7461908  11.8937769
  26.4762537  41.5359933  19.4506270  27.3151436  41.7682865  19.4980032
  26.5074306  40.6664244  19.3813306  26.6044254  41.4416879  19.4470915
  27.1015240  41.9560808  23.7519576  27.6413464  41.8131939  24.4222948
  26.4185186  42.3557559  24.1203602  27.0807393  41.9940479  23.9053998
  32.5447824  26.6998421  15.0432306  33.2733984  26.5214376  14.5970462
  32.6342717  27.5416501  15.2539484  32.6654486  26.7982299  15.0085824
  36.5256124  37.6351808  18.9464600  37.2813639  38.0683323  18.9853509
  36.6318449  36.9856578  19.5199236  36.6526295  37.6029292  19.0362626
  22.5052385  38.1761099  23.9053997  22.2390800  37.3600215  24.0644988
  22.5190949  38.2214254  23.0349513  22.4677107  38.0618003  23.8007479
  39.4833778  28.5038913  21.9396431  40.1259687  28.5737018  22.5258346
  39.7356799  27.8368136  21.4375973  39.6155911  28.4165262  21.9523710
  26.4110132  32.9746183  10.5205755  25.6968309  32.6884362  10.9328188
  26.8954100  33.3142809  11.1612143  26.3769495  32.9827833  10.6761390
  27.2550991  31.7139477  26.5521005  26.5622788  31.2436457  26.7981737
  27.8711318  31.4877781  27.1262712  27.2435521  31.6106609  26.6730158
  22.9145798  38.9619878  21.1865742  22.7321371  38.9366764  20.3338034
  23.6495467  39.4318816  21.2254650  22.9959862  39.0281240  21.0663660
  25.9791550  35.6804881  27.6947850  26.7031522  35.6657911  28.1812745
  26.0807686  36.3900236  27.1969818  26.1009759  35.7829584  27.6926637
  36.0267818  35.8837957  16.8491813  36.1214673  36.6227251  17.3031439
  35.4026662  35.4555432  17.2826378  35.9476848  35.9299277  16.9799961
  34.2820292  39.0624169  27.4982094  34.8559154  38.4251413  27.6530658
  34.2035096  39.0628252  26.6291752  34.3553527  38.9689281  27.3928505
  22.8816709  35.8413379  21.3364808  23.4590211  35.7049829  21.9757054
  22.1830770  35.3849163  21.5910393  22.8637730  35.7535645  21.4687098
  29.6384011  37.4947434  19.5503291  29.3803255  36.6619169  19.5234591
  29.6932494  37.7205047  18.7095792  29.6083789  37.4045206  19.4223428
  34.7185061  29.5975885  19.6507384  34.0141388  29.1085070  19.8091303
  34.7670035  29.6098359  18.7795829  34.6215112  29.5265533  19.5446724
  28.6118723  35.0485197  20.0368186  28.0368314  35.2077365  20.6732147
  28.2354399  34.4120606  19.5736637  28.4721535  34.9783010  20.0622745
  32.2792012  33.5208546  24.8960565  31.8906444  33.0962764  24.2412756
  31.6146710  33.7690696  25.4037591  32.1238939  33.4947267  24.8748433
  18.3575542  34.6925272  18.0512627  18.4435794  34.3157140  18.8326157
  18.9851339  34.3185717  17.5732585  18.4632093  34.5810754  18.0958104
  36.1018373  27.2183175  22.4084549  36.4828885  26.5361346  22.7952423
  35.2981657  26.9292777  22.2260213  36.0394835  27.0750223  22.4388605
  33.3830950  37.7507151  13.0937372  34.1971589  38.0422043  12.9820143
  33.3190091  37.0967013  12.5195665  33.4933689  37.6972345  12.9926209
  29.2538858  41.2228668  18.2209684  29.8912805  40.9840416  18.7661477
  29.6793930  41.4265827  17.4862844  29.4115024  41.2179678  18.1926841
  29.8941673  36.4430958  12.5584573  30.2786826  36.2238665  13.3101118
  29.6453293  37.2693903  12.6885649  29.9143746  36.5329104  12.6885649
  30.0610214  29.7237373  32.2747157  29.7463655  30.4936936  32.0116720
  29.7400146  29.1607629  31.6899384  29.9669133  29.7547642  32.1488507
  25.3966087  42.0458954  16.9297913  24.5704204  42.2920691  16.8032192
  25.4578078  41.9671034  17.7959971  25.2840254  42.0703902  17.0386858
  27.6142110  28.1127895  17.8893354  26.7464536  28.1850494  17.9550963
  27.9017315  28.9149973  18.0781329  27.5281859  28.2422042  17.9268120
  36.7374999  28.2605754  26.2204675  37.4828591  28.0715564  25.8068101
  36.3212304  28.7863992  25.6618532  36.7859973  28.3107899  26.0769249
  30.7659661  39.4653580  25.7170074  30.2671355  40.1769347  25.7954962
  31.5759885  39.7854246  25.6788236  30.8115768  39.6180428  25.7226642
  27.0287779  38.7276533  19.9632795  26.7401027  38.1014004  20.4978522
  27.8971127  38.6696820  20.0297475  27.1148030  38.6264077  20.0523749
  37.8165676  33.8711316  20.2814777  37.4730442  33.1501651  20.6322026
  37.9158719  33.6625167  19.4393135  37.7807719  33.7335519  20.2086457
  27.2320052  40.3671784  15.8875160  27.9866020  40.7484823  16.1010622
  26.6390665  40.8182927  16.3421856  27.2556765  40.4900611  15.9858038
  29.6926719  32.3234624  31.0132372  28.8826495  32.6292404  30.9022214
  30.1701406  33.0440206  31.1284956  29.6430198  32.4749225  31.0139443
  28.5518279  41.5380345  21.2615275  28.0299032  41.6780637  21.9467140
  28.9392299  40.7791009  21.4517392  28.5321979  41.4465869  21.3916352
  25.5409463  31.5886154  15.3310230  25.2534258  31.2187424  14.5942177
  26.2279931  32.0581009  15.0693935  25.5998360  31.6033123  15.1825306
  29.9784604  38.5684364  16.6596766  29.7827387  39.1759099  16.0657069
  30.2018950  37.8752308  16.1788440  29.9819245  38.5561890  16.5012847
  28.3763134  35.4539102  16.7777635  29.0985786  35.6180260  16.3181441
  27.8971127  36.1748767  16.6716974  28.4126865  35.5837332  16.6943249
  36.3356642  31.7902901  22.1574319  35.4967742  31.8164180  21.9212583
  36.4061009  32.4373636  22.7379666  36.2225035  31.8899027  22.2083436
  26.0270751  37.8597174  25.8831774  26.5391848  38.1381428  25.2340534
  25.7407093  38.5986468  26.2494587  26.0605614  38.0099528  25.8421652
  34.7825920  28.6888278  16.8901935  35.4852273  28.4896026  16.4121894
  34.5170109  27.9164220  17.1970779  34.8472552  28.5451244  16.8647377
  23.1137657  32.3667366  16.1795511  23.2153794  33.1693528  16.5076486
  23.9093544  32.1654702  15.8818591  23.2465563  32.4553265  16.1830866
  29.5454476  29.9523563  25.9432816  29.3537673  29.9678697  26.7932240
  30.3953072  30.1487237  25.9199471  29.6430198  29.9837914  26.0656111
  23.9301389  32.4814544  23.9216632  23.7886881  31.6298485  24.0461140
  24.2141953  32.5243205  23.0978838  23.9509235  32.3614295  23.8184257
  34.0839982  34.3181635  18.0661121  33.8374696  34.2377386  18.8997910
  34.4125105  33.5335103  17.8723648  34.0961225  34.1907900  18.1608644
  36.3166116  37.3261369  28.1070284  36.3114154  36.4541186  28.1112710
  37.0227109  37.5249539  27.6339739  36.4211120  37.2265244  28.0377319
  30.0437009  37.0538353  27.4784104  30.1880385  37.6339561  26.8427214
  30.3912657  37.4314650  28.1833958  30.1164470  37.1959057  27.4883099
  32.2156926  36.2528522  25.2609235  31.4680240  36.4459536  24.8557513
  32.3698451  35.4273741  25.0233357  32.1279354  36.1593633  25.1654641
  32.4558703  30.1479072  26.1504639  32.9131317  30.8803047  26.2777431
  32.5315032  29.7245538  26.9091895  32.5349673  30.1936310  26.2805716
  24.6991695  30.3944892  27.2394083  24.1633884  29.7825250  27.5554850
  24.7609459  30.9693028  27.8927749  24.6287327  30.3891820  27.3829510
  36.9286029  23.3268948  20.0198482  37.0469597  23.7845411  19.2865785
  36.7548205  22.5214209  19.7334700  36.9205200  23.2762720  19.8699416
  30.3341081  32.1381176  22.9946463  29.5437156  31.9572636  23.3163799
  30.7301704  31.3608129  22.9776758  30.2757957  31.9968637  23.0399012
  32.8478911  34.6141435  27.4769962  32.7838053  35.4751392  27.3490099
  32.9876099  34.2973429  26.6765513  32.8594382  34.6941602  27.3398175
  31.5298005  37.3073575  21.6186165  31.1060254  37.5078074  20.8825183
  31.3542861  36.4602423  21.7310465  31.4408886  37.2122356  21.5259855
  26.8180450  37.8025626  17.0514137  26.9745069  37.7372429  17.9070130
  27.1581043  38.5774179  16.8392817  26.8913685  37.9074824  17.1468732
  33.3559595  37.1783510  15.9207501  33.8975140  36.6753891  16.3846121
  33.6706154  37.1248704  15.1096986  33.4823992  37.0962931  15.8691313
  34.5048864  32.0719814  25.9729801  34.7190834  31.4330728  25.4193155
  33.8882764  32.5165638  25.5437663  34.4454194  32.0429958  25.8280232
  23.3914712  34.9860577  17.3674905  23.7713677  35.4045122  16.7035172
  22.8170077  35.5674032  17.6743748  23.3626037  35.1338435  17.3151646
  36.6687952  33.6808879  26.9113108  35.8564634  33.3734770  26.9926281
  37.1277887  33.2007880  27.4755820  36.6168337  33.5645372  27.0067702
  33.8963593  25.1819750  20.9617144  33.0257151  25.1558471  20.9150453
  34.1503934  25.0096942  20.1442990  33.8057153  25.1529894  20.8337281
  30.8681572  37.2387717   9.8990287  31.1574097  38.0152599  10.1733861
  30.9553371  36.7276448  10.6004786  30.9235829  37.2779635  10.0432785
  30.9212733  27.1925978  22.4190614  30.4051222  26.5006170  22.5442193
  30.3606662  27.8596755  22.3653213  30.7619247  27.1889236  22.4296680
  32.9904967  27.7318938  24.2483467  32.6036720  27.7567970  25.0296997
  32.5037904  27.1660617  23.7957984  32.8617476  27.6514689  24.2971371
  38.9654946  34.2981593  22.8723169  38.5382555  34.2107942  22.1171269
  38.3280999  34.4059369  23.4578013  38.8084554  34.3014253  22.8468611
  32.6562109  24.6185924  26.5393727  33.2855227  25.1546224  26.2614797
  32.8247971  24.5263283  27.3907292  32.7739903  24.6847286  26.6242255
  32.4576024  29.4057119  28.8120138  33.2849453  29.1342267  28.8678753
  32.4783870  30.2017960  29.1683957  32.5828874  29.4836873  28.8735321
  27.0345513  36.5520981  21.9990399  26.1933520  36.4524856  22.2069293
  27.2435521  37.3216462  22.3504720  26.9410206  36.6513025  22.0817714
  24.5121080  34.1740518  19.8275150  24.1177778  34.2483530  19.0525259
  23.9561197  34.5598465  20.3783511  24.3723893  34.2422293  19.7942810
  36.1486027  27.1521812  19.5079029  36.3535620  27.0844120  20.3536026
  35.8212451  27.9580634  19.4400206  36.1301275  27.2607753  19.6238684
  30.8462178  34.4802381  21.2487997  30.5425316  33.9258369  21.8498404
  30.1441599  34.6594591  20.7616031  30.6978388  34.4247163  21.2657702
  29.9028275  31.7902900  15.8132698  30.1788010  31.0721813  15.4010266
  30.5026945  32.3887820  15.6053805  30.0321540  31.7723271  15.7213460
  28.9080529  41.6952101  25.9560094  28.8000884  41.7054163  26.8222152
  29.1176311  42.5206882  25.7665048  28.9230640  41.8193176  26.0564186
  39.4019715  27.7053577  18.9881794  38.7894028  28.1923979  19.3735526
  39.4983890  27.0297067  19.5319445  39.3257612  27.6771885  19.1260652
  33.4038796  29.4616418  14.0879293  33.8582542  29.6326978  14.8127138
  33.8778842  28.8484528  13.6877069  33.5407116  29.3967303  14.1353055
  26.9254321  38.9464744  23.4182032  26.3342254  39.5874242  23.3885047
  27.6875345  39.3702361  23.3913331  26.9502582  39.1040582  23.4097179
  27.3214944  30.1066741  24.0850050  27.7816426  30.1805671  24.8225173
  27.3671051  30.9047995  23.7349871  27.3965499  30.2360889  24.1422806
  28.9698294  30.7733436  28.6522077  28.5783859  30.1266783  29.0877854
  29.1384157  31.3644872  29.2716332  28.9369204  30.7647704  28.8084783
  30.7451816  36.1658952  15.1924301  31.4893861  36.5533228  15.4307251
  30.8912512  35.3216377  15.3564788  30.8762401  36.0989425  15.2518270
  32.6631391  27.9609211  20.2256162  31.8167436  28.1332019  20.0997512
  32.6602524  27.1558555  20.5621990  32.5378541  27.8670240  20.2567289
  33.7329692  31.7384425  21.0918220  33.2589646  31.2126187  21.6023531
  34.1047827  31.1913898  20.5233082  33.7179581  31.5800422  21.0833367
  24.1102722  33.7355932  26.4601766  24.9728335  33.6351641  26.3739096
  23.7794505  33.1550641  25.8987338  24.1887918  33.6347559  26.3647172
  35.6613191  32.6320980  14.1543974  35.1336210  32.7149724  13.4649683
  36.1208899  33.3738851  14.1508619  35.6515042  32.7541642  14.0518669
  27.4704508  32.5598381  23.1212184  26.8457578  32.5716773  22.5138137
  27.1350103  33.0358556  23.7703424  27.3290000  32.6316898  23.1268753
  27.6546256  30.9023500   9.1784869  27.3059061  31.5543225   9.6416418
  27.1742702  30.8880613   8.4508740  27.5316500  30.9966553   9.1395960
  24.1830183  40.6198841  24.5615948  23.6530108  39.9291280  24.6110923
  24.4555277  40.6109027  23.7328657  24.1454906  40.5165973  24.4463364
  34.3836429  38.0622086  24.5354320  33.7693422  37.5180136  24.8302955
  34.9003714  37.5486322  24.0560136  34.3692091  37.9058495  24.5078548
  33.6232726  39.1326356  22.2698619  33.1960334  38.5076075  21.8364054
  33.6157670  38.8501278  23.0957626  33.5591867  38.9979137  22.3278446
  26.7395253  34.1691529  25.3387052  26.8988740  33.4134853  25.7438774
  26.5588147  34.7182468  25.9927790  26.7360612  34.1385343  25.4949758
  34.6815556  26.3352764  25.8937842  34.1856117  26.5316439  25.2029409
  35.4384618  26.7345433  25.7226644  34.7202381  26.4230498  25.7657979
  31.9518436  30.0095110  22.4841152  31.9760923  29.4755223  21.7953932
  32.2029909  29.5012419  23.1466743  31.9928354  29.8556014  22.4805797
  19.4626026  37.2926605  21.9184297  19.3569475  37.2473450  21.0536381
  18.7126246  37.6380386  22.1998581  19.3361629  37.3367514  21.8321626
  28.2319758  28.7365929  21.8646897  28.2718130  29.2375135  22.5781604
  27.4069423  28.8276322  21.5952820  28.1159284  28.8247745  21.9297435
  30.4149371  38.3026669  29.9667191  29.5645001  38.4398383  30.1024836
  30.5777499  37.5690447  30.4114893  30.3133234  38.2140770  30.0522791
  29.6534121  35.2526438  24.1620796  28.8226051  35.4200256  23.9556044
  29.5985639  34.8762389  24.9469681  29.5223536  35.2216170  24.2469324
  27.4617905  28.7435331  29.7977207  28.0870608  28.1997464  30.0706639
  27.0068385  28.2630249  29.2284997  27.4866165  28.5924813  29.7538800
  28.0270165  33.5282030  14.6910914  28.1673126  34.0254494  15.3939555
  28.5252698  32.8268324  14.8325127  28.1211246  33.4984009  14.8162493
  28.0570388  34.3949141  12.0203490  28.6915467  34.9909566  11.9552952
  28.1395998  34.0952599  12.8349361  28.1626939  34.4390049  12.1306577
  29.6349370  30.3263116  11.9948932  29.9565212  29.8466199  11.3408195
  29.8976314  31.1362763  11.8039744  29.7215396  30.3753014  11.8704424
  35.0308525  29.7135310  24.3572411  35.4563597  29.2607837  23.7455938
  34.4165519  29.1595381  24.6337199  35.0037171  29.5649287  24.3077437
  24.5623375  36.5916982  15.2893036  25.0715605  37.1881489  15.6704342
  25.0357648  36.3242955  14.6069456  24.7066751  36.6402797  15.2447559
  33.4702748  26.1850410  17.7662988  32.8271066  26.0348057  18.3348127
  33.1302155  25.9392755  17.0012093  33.3247826  26.1262533  17.7366004
  38.0602095  34.1409837  17.1892997  37.3893285  34.6839539  17.0606063
  38.7541845  34.6104692  16.9474692  38.0630962  34.2908108  17.1348525
  38.2230222  30.5965721  20.0983370  38.5757832  30.1695444  20.7729169
  37.3645024  30.5116564  20.2284447  38.1479667  30.5210461  20.2178381
  26.9213907  33.2273240  18.1566217  26.2025896  33.6437373  18.4239080
  27.2926270  33.7927479  17.6057855  26.8705839  33.3722522  18.1149024
  36.2213488  33.8601089  24.0468213  36.2011415  33.6784384  24.9002991
  36.2692689  34.7313108  24.0227796  36.2248129  33.9617628  24.1691507
  32.6960482  32.2671240  13.4939596  32.1025321  32.5888237  12.9424163
  32.7335759  31.4212336  13.2860702  32.6134871  32.1895569  13.3822368
  39.6554282  25.7184132  21.0267683  39.1485147  25.0113272  20.9588860
  40.4521716  25.3877321  21.1568759  39.6981522  25.5657284  21.0366678
  35.5718298  32.2250745  16.9241346  35.3431991  32.2483446  16.0819705
  35.8316374  31.4008212  17.0436357  35.5764486  32.1066825  16.8166544
  29.8537527  34.0785218  26.5266447  29.3416430  33.4706401  26.8851478
  29.6817023  34.7941810  26.9940422  29.7527164  34.0948517  26.6482670
  24.7003241  32.5222793  29.1768808  24.5305832  33.1824168  28.6317015
  24.2569191  32.7329354  29.8981298  24.6102575  32.6508775  29.2030438
  28.6263061  30.7627291  18.2195542  29.1020427  31.1244371  17.5845723
  28.1251660  31.4183759  18.4995685  28.6228420  30.9121480  18.1672283
  33.7306597  32.0009462  28.9668702  34.2878027  31.7723272  28.3347168
  33.4067662  32.7615128  28.6903915  33.7653007  32.0793299  28.8325199
  21.6005306  35.4269659  24.4357298  21.0532025  34.7570304  24.5538167
  22.3897684  35.0599507  24.5000766  21.6357489  35.2734645  24.4625999
  31.4489714  35.0877116  29.9320709  32.2001041  35.4028793  30.2460264
  31.6412291  34.8856287  29.1054631  31.5881128  35.1044498  29.8564105
  30.6689714  32.9068491  11.5868926  31.0488679  32.9248120  10.8020041
  29.9282310  33.3522480  11.4659773  30.6158552  32.9750265  11.4532494
  38.2975004  31.2150682  17.1744505  38.2969231  31.0599339  18.0328781
  38.0931184  32.0613669  17.1185890  38.2674782  31.3171303  17.2932444
  20.3592275  34.6390466  21.5903321  20.1814036  34.1867075  22.3158237
  20.0711297  35.4416628  21.7741799  20.2905228  34.6913024  21.7246824
  36.0215856  35.8948184  20.8280712  36.5169522  35.1771179  20.7884732
  35.2115632  35.5918982  20.7135199  35.9759750  35.7445830  20.8054438
  31.4674468  39.7445997  12.9777716  30.6585791  39.4212671  12.9311026
  31.9749377  39.0379219  12.9105965  31.4224135  39.5927313  12.9608011
  22.0964745  37.1718190  18.7025080  21.2310265  37.1603881  18.5907852
  22.1963561  36.9848413  19.5496220  21.9838912  37.1424251  18.8114025
  31.5915770  27.1313606  26.8017093  31.7243675  26.3344600  27.1298068
  31.9760922  27.6580009  27.3815368  31.6672099  27.0913523  26.9360596
  34.6648125  24.0543932  23.3998186  33.8594089  23.9441662  23.7166024
  34.5354860  24.1556388  22.5428052  34.5268258  24.0527602  23.3206226
  38.1214085  30.2189424  23.9937883  37.5377074  30.7198631  23.5815450
  38.4418379  29.7118980  23.3602206  38.0827261  30.2181259  23.8396390
  30.6608885  29.1330019  14.2696558  31.4824579  29.3028332  14.0278253
  30.1978535  29.2877280  13.5462855  30.7140047  29.1811752  14.1268202
  29.2504216  27.1272781  25.0494986  29.7948629  26.7863908  25.6399328
  29.3041152  27.9858243  25.1916271  29.3393336  27.2028041  25.1576860
  25.0634775  40.8889197  21.9233794  25.6679633  40.8485031  21.2947615
  24.8562088  41.7360349  21.9537850  25.1223672  41.0077200  21.8349911
  20.2986057  39.8723815  21.7932717  20.2010336  39.0620086  22.1022774
  21.0814927  39.8515608  21.4078986  20.4002194  39.7490905  21.7819580
  25.6071256   2.0689686  17.3992341  26.3138023   1.5741717  17.5279276
  25.7959191   2.5098768  16.6694999  25.7399162   2.0608036  17.3101387
  21.6747930   7.7105517   4.9265776  22.0587310   8.2792415   4.3870551
  21.6107071   6.9855027   4.4471592  21.7221357   7.6880980   4.7759638
  18.1004175  10.2661860   7.2246745  18.7441630  10.7075024   7.6142904
  18.4260430   9.4615286   7.1377004  18.2436004  10.2127054   7.2692223
  18.5086041   0.2604286   9.8699611  19.1535044  -0.2323271   9.5510559
  18.7487818   0.4029073  10.6965689  18.6396626   0.2081729   9.9449144
  21.0472132   3.1059192   9.5206503  21.3295375   2.3110598   9.2993259
  21.7758293   3.5839780   9.5411564  21.1961696   3.0593789   9.4909519
  19.0899958   5.0422409   9.3290244  18.5726900   4.6829824   8.7251552
  19.7874350   4.5184583   9.3396310  19.1165539   4.9120097   9.2420502
  22.7463550   5.4917223  15.2906417  22.8346896   5.3043363  16.1384627
  23.1753263   4.8454652  14.8911264  22.8225653   5.3680230  15.3578168
  20.3134010   4.7748383  14.2724079  19.7504845   4.3620992  14.7963740
  21.0755034   4.7001288  14.6917222  20.3428459   4.7025783  14.4117079
  15.8730001   6.7646404   6.8760709  16.5750581   6.2498393   6.9333466
  15.7927485   7.0920555   7.6807584  15.9653762   6.7360630   7.0033501
  15.8233480   3.3753631  10.6859623  16.3631705   3.2324762  11.3562995
  15.1403426   3.7750382  11.0543649  15.8025634   3.4133302  10.8394044
  28.2854536   2.8817909   6.6307050  27.8489768   2.8854651   7.3866021
  27.9517451   3.5623408   6.1986627  28.1717156   2.9830365   6.6787883
  22.8583610   4.9226242  17.9550200  23.6424026   5.0357089  18.3205942
  22.6580204   4.0967379  18.1508886  22.9449635   4.8172961  18.0384586
  23.0154003   6.8336344  11.6016656  22.2169249   6.5935844  11.8590525
  23.4640014   6.8850737  12.3483704  22.9628614   6.8058735  11.7501580
  22.0754740   0.5796789  19.4936844  21.2827720   0.8940300  19.6789464
  22.1903667   0.7948257  18.6557629  21.9750150   0.6580625  19.3975179
  20.3578570   3.1193914   6.8343517  20.4317579   2.9569086   7.6885367
  21.1748077   3.3084104   6.5903998  20.4894929   3.1230656   6.9241542
  19.4877901   0.8846403  12.6510121  18.9889595   1.5962171  12.7295009
  20.2978126   1.2047069  12.6128283  19.5334008   1.0373252  12.6566689
  17.2736519   2.9573168   8.1955322  16.7517272   3.0973460   8.8807187
  17.6610539   2.1983833   8.3857439  17.2540220   2.8658692   8.3256398
  14.7488991  -0.7210002  12.8171821  15.2610088  -0.4425749  12.1680581
  14.4625334   0.0179292  13.1834634  14.7823854  -0.5707649  12.7761699
  26.7006271   2.4457817   8.7887949  26.5620630   3.1438863   9.2936691
  25.9206269   2.2906474   8.4324131  26.5649498   2.5257984   8.8114223
  18.7655249  -1.5268823  14.4124151  18.9098625  -0.9467615  13.7767261
  19.1130898  -1.1492527  15.1174005  18.8382711  -1.3848119  14.4223146
  17.8383004   6.6633948  11.2785177  17.9872568   6.1036864  10.6258582
  18.6183006   6.7425950  11.6617696  17.9757098   6.5919514  11.2382127
  20.3636305   6.8348591  12.5569668  20.2879976   6.1657402  13.1120457
  20.2926164   7.5366379  13.0710335  20.3416912   6.8393499  12.7146516
  24.4403008   1.1916430   7.6545956  23.7648010   0.9601662   8.1559343
  24.4495384   0.5837613   7.0288061  24.3421512   1.0675355   7.6362108
  19.7527939  10.2416911  11.0147669  20.2423869   9.5427700  10.8323334
  19.1812171   9.9440781  11.6023726  19.7412469  10.0943135  11.0748710
  25.9494943   2.8078980  19.9674460  26.7629808   2.5364129  20.1279592
  25.7889909   2.5086520  19.1634656  26.0464891   2.7233906  19.8719866
  24.6371773   6.4131386   4.3524069  24.2451564   6.1098101   3.6346935
  24.7924845   7.2500476   4.1629023  24.6025362   6.4915223   4.2180566
  25.9616187   3.8685271  15.2397300  26.5995907   3.3745466  14.9059756
  25.3190278   3.7962671  14.6549527  25.9610413   3.7844279  15.1039655
  26.0170443   4.5605079  11.8802657  26.8062821   4.2094144  12.0004739
  26.1914041   5.3741467  11.6179291  26.1590725   4.6290936  11.8590525
  17.6298770   3.1144925  12.8900141  17.5219125   3.1246987  13.7562199
  17.8394551   3.9399705  12.7005095  17.6448881   3.2385999  12.9904233
  15.6472562   0.3657567  10.3522079  15.0560495   1.0067065  10.3225094
  16.4093585   0.7895184  10.3253378  15.6720822   0.5233405  10.3437226
  25.4062078   5.8166879   7.7854103  25.2081766   6.3057693   7.0910315
  24.7849789   6.0208120   8.3638237  25.2849642   5.9183417   7.7677327
  12.9048424   2.0391664  11.4955995  12.3748348   1.3484103  11.5450970
  13.1773517   2.0301850  10.6668704  12.8673146   1.9358796  11.3803411
  22.3450966   0.5519179   9.2038665  21.9178574  -0.0731102   8.7704101
  22.3375911   0.2694101  10.0297673  22.2810108   0.4171960   9.2618493
  19.1367611  -0.2780508  16.9007238  18.2863242  -0.1408794  17.0364883
  19.2995739  -1.0116730  17.3454940  19.0351475  -0.3666407  16.9862837
  21.5864584   2.7674814  12.4487795  21.0789675   3.3210661  12.8928426
  21.2891230   2.8283104  11.6306570  21.4669469   2.8581125  12.3936252
  20.8307069   7.6999372   9.3544802  20.6072723   6.9418202   9.7228828
  20.3416912   7.7297393   8.6325242  20.7250518   7.5921597   9.3021543
  22.8878058   1.8681105  16.9056736  22.8473913   1.2230781  16.3201892
  23.7001377   1.8117722  17.2182148  23.0021212   1.7640071  16.8653685
  19.4785526   7.9199830   6.8081887  19.0645924   7.2573961   6.4185728
  20.1632900   8.0677689   6.2877581  19.5183898   7.8440489   6.6738384
  22.8450820   7.0789916   7.5605503  22.4467103   7.1892186   6.7926324
  22.2302040   7.2871982   8.1432063  22.6949709   7.1263484   7.5336803
  16.4439995   8.3608912   9.2095233  16.7586554   9.1745301   9.2173014
  16.8533409   7.9759131   9.8777392  16.5508093   8.4237614   9.3099324
  23.3964515   3.7778959   6.7799045  23.8675693   4.4919221   6.9489030
  23.7324694   3.1777709   7.3158914  23.5159630   3.7950423   6.8831421
  25.4841500   5.3880272  18.9591117  25.5938465   4.5988833  19.3147864
  25.8132396   5.2986208  18.1565455  25.5493905   5.2586125  18.8933508
  24.0338461   3.5696893  13.5426737  23.4859407   2.9454777  13.2746803
  24.4951490   3.7591165  12.8270817  24.0205671   3.5055943  13.3977168
  23.5996788   4.5747966  10.0736079  24.4195162   4.4310932  10.3352374
  23.3190865   5.1994165  10.6152516  23.6793531   4.6458318  10.1924018
  33.2710123  11.3188468   7.7931885  32.4148018  11.4796967   7.8441002
  33.3177777  10.4480532   7.8136946  33.1509234  11.2139270   7.8037951
  27.6551263  20.8551186   3.5569117  26.9034162  20.4766725   3.3285162
  28.1037274  20.8869620   2.8087927  27.6100929  20.8036793   3.4126619
  36.5803839  17.5874994  17.3992341  37.2870607  17.0927025  17.5279276
  36.7691775  18.0284076  16.6694999  36.7131745  17.5793344  17.3101387
  32.6480514  23.2290824   4.9265776  33.0319893  23.7977723   4.3870551
  32.5839655  22.5040335   4.4471592  32.6953941  23.2066288   4.7759638
  36.1161944  13.3780512  10.4363537  36.6617904  14.0565599  10.4957507
  36.0578820  13.2367973   9.5765118  36.1877858  13.4572514  10.3175598
  29.2336019  20.8669578   5.8231889  29.3346382  20.0569932   6.1329017
  28.6377764  20.7726525   5.1931568  29.1608557  20.7334607   5.7758128
  29.0736758  25.7847168   7.2246745  29.7174214  26.2260332   7.6142904
  29.3993014  24.9800594   7.1377004  29.2168587  25.7312362   7.2692223
  22.4301063  16.8889865   5.4484223  22.1951248  16.0557517   5.3416492
  22.5686704  17.1694531   4.6345424  22.4156726  16.8073368   5.3126578
  24.7291151   9.0575596   8.3468531  24.1096182   8.4668243   8.1778546
  24.6275014   9.6487031   7.7132854  24.6228826   9.0579678   8.2273520
  29.7757338  18.7959142   2.5966607  30.0973179  19.3364350   1.9927915
  30.4229435  18.2255914   2.7288897  29.9183393  18.7918318   2.5273643
  24.4560284  12.6027877  10.5912100  24.3318980  13.1890323  11.2261919
  25.1078568  12.1088073  10.8924375  24.5333933  12.6166682  10.7298029
  32.0146982  17.1845582   2.6680785  32.4540617  16.5762683   3.1135558
  31.8651644  16.8052956   1.8966250  32.0568447  17.0384054   2.6199953
  29.4818625  15.7789594   9.8699611  30.1267627  15.2862037   9.5510559
  29.7220402  15.9214381  10.6965689  29.6129210  15.7267036   9.9449144
  32.0204716  18.6244500   9.5206503  32.3027959  17.8295906   9.2993259
  32.7490876  19.1025088   9.5411564  32.1694280  18.5779097   9.4909519
  29.9985910   6.1667534   6.7622269  29.6689240   6.6178678   6.0925967
  29.3230912   6.0883697   7.3095275  29.8496346   6.2218669   6.7445492
  28.4374359  16.0520775  -0.0783242  27.8531574  16.5570806   0.3282622
  28.0344454  15.8263162  -0.8186650  28.2913663  16.0929023  -0.1278217
  23.9918388  21.7675536   6.7240429  23.5085966  22.4926025   6.7000013
  24.8041706  22.0651666   6.8350587  24.0409135  21.9177890   6.7367708
  30.0632542  20.5607717   9.3290244  29.5459483  20.2015132   8.7251552
  30.7606933  20.0369891   9.3396310  30.0898123  20.4305404   9.2420502
  33.7196134  21.0102531  15.2906417  33.8079480  20.8228671  16.1384627
  34.1485846  20.3639960  14.8911264  33.7958236  20.8865538  15.3578168
  31.2866594  20.2933691  14.2724079  30.7237428  19.8806300  14.7963740
  32.0487617  20.2186596  14.6917222  31.3161042  20.2211091  14.4117079
  26.8462585  22.2831712   6.8760709  27.5483164  21.7683701   6.9333466
  26.7660068  22.6105863   7.6807584  26.9386345  22.2545938   7.0033501
  27.8941492  12.5207299  16.0041124  28.0661995  12.4113193  16.8526406
  28.4310849  13.1661704  15.7672316  27.9986496  12.5999300  16.0946221
  26.1713360  18.4738064   6.3846317  27.0102260  18.7060996   6.4320079
  26.2025130  17.6042375   6.3153353  26.2995078  18.3795010   6.3810962
  26.7966063  18.8938939  10.6859623  27.3364288  18.7510070  11.3562995
  26.1136010  19.2935690  11.0543649  26.7758217  18.9318610  10.8394044
  36.2206948  14.5729940   5.8804647  36.9764463  15.0061454   5.9193556
  36.3269273  13.9234709   6.4539283  36.3477119  14.5407423   5.9702673
  39.2587119  18.4003217   6.6307050  38.8222351  18.4039959   7.3866021
  38.9250035  19.0808716   6.1986627  39.1449739  18.5015673   6.6787883
  33.8316193  20.4411550  17.9550200  34.6156610  20.5542397  18.3205942
  33.6312788  19.6152687  18.1508886  33.9182218  20.3358269  18.0384586
  22.2003209  15.1139230  10.8394044  21.9341624  14.2978346  10.9985034
  22.2141773  15.1592385   9.9689560  22.1627931  14.9996134  10.7347526
  26.9501815   8.6517608  13.4861052  26.2573612   8.1814588  13.7321783
  27.5662142   8.4255912  14.0602759  26.9386345   8.5484740  13.6070204
  33.9886586  22.3521652  11.6016656  33.1901832  22.1121152  11.8590525
  34.4372598  22.4036045  12.3483704  33.9361198  22.3244043  11.7501580
  22.6096622  15.8998009   8.1205788  22.4272195  15.8744895   7.2678081
  23.3446291  16.3696947   8.1594697  22.6910686  15.9659371   8.0003707
  25.6742374  12.6183012  14.6287897  26.3982346  12.6036043  15.1152792
  25.7758510  13.3278367  14.1309865  25.7960583  12.7207715  14.6266684
  33.0487323  16.0982097  19.4936844  32.2560304  16.4125608  19.6789464
  33.1636250  16.3133565  18.6557629  32.9482734  16.1765933  19.3975179
  33.9771116  16.0002300  14.4322141  34.5509978  15.3629545  14.5870705
  33.8985920  16.0006383  13.5631798  34.0504351  15.9067412  14.3268552
  22.5767533  12.7791510   8.2704855  23.1541035  12.6427961   8.9097100
  21.8781594  12.3227294   8.5250439  22.5588554  12.6913776   8.4027145
  29.3334835  14.4325565   6.4843338  29.0754079  13.5997300   6.4574638
  29.3883318  14.6583178   5.6435839  29.3034613  14.3423337   6.3563475
  28.3069547  11.9863328   6.9708233  27.7319138  12.1455496   7.6072194
  27.9305223  11.3498737   6.5076684  28.1672359  11.9161141   6.9962791
  31.9742836  10.4586677  11.8300611  31.5857268  10.0340895  11.1752803
  31.3097534  10.7068827  12.3377638  31.8189763  10.4325398  11.8088479
  18.0526366  11.6303403   4.9852674  18.1386618  11.2535271   5.7666204
  18.6802163  11.2563848   4.5072632  18.1582917  11.5188885   5.0298151
  39.2991264  17.3711278  14.4406994  39.0629901  16.5399343  14.3219055
  39.9434493  17.3196885  15.0261838  39.3585935  17.2408966  14.5092888
  28.9489682  18.1606799   5.1549730  29.5863629  17.9218547   5.7001524
  29.3744754  18.3643958   4.4202891  29.1065848  18.1557809   5.1266888
  23.6402324  20.3995136   9.0384034  23.6806470  20.6709987   8.2103814
  24.1996848  20.9237044   9.4541822  23.7285670  20.5170891   8.9775922
  29.5892497  13.3809089  -0.5075380  29.9737650  13.1616796   0.2441165
  29.3404117  14.2072034  -0.3774304  29.6094570  13.4707235  -0.3774304
  29.7561037   6.6615504  19.2087204  29.4414479   7.4315067  18.9456767
  29.4350970   6.0985760  18.6239431  29.6619957   6.6925773  19.0828554
  40.3227685  17.1555727  10.5035289  40.0173502  17.8883784  10.8648604
  39.6033900  16.7493656  10.2228075  40.1715027  17.2037460  10.5148426
  31.3311154  18.6379222   6.8343517  31.4050162  18.4754394   7.6885367
  32.1480660  18.8269411   6.5903998  31.4627513  18.6415964   6.9241542
  25.0916911  18.9837085   3.8637960  24.2655028  19.2298822   3.7372239
  25.1528902  18.9049166   4.7300018  24.9791078  19.0082034   3.9726905
  27.3092934   5.0506026   4.8233400  26.4415360   5.1228625   4.8891010
  27.5968139   5.8528105   5.0121375  27.2232683   5.1800173   4.8608167
  36.4325823   5.1983885  13.1544722  37.1779415   5.0093695  12.7408148
  36.0163128   5.7242123  12.5958579  36.4810797   5.2486030  13.0109295
  29.8715740  21.6013965   1.5656990  30.1614038  21.2102946   0.8416217
  30.6019221  21.7830670   2.0062265  30.0222624  21.5707779   1.5239797
  30.4610485  16.4031711  12.6510121  29.9622179  17.1147479  12.7295009
  31.2710709  16.7232377  12.6128283  30.5066592  16.5558559  12.6566689
  27.8121655  23.5781347   4.6317140  27.5921951  23.2878702   5.4243807
  27.5916177  22.9196302   4.1035052  27.7469249  23.4381056   4.6706049
  26.7238602  15.6654664   6.8972842  26.4351851  15.0392135   7.4318569
  27.5921951  15.6074951   6.9637522  26.8098854  15.5642208   6.9863796
  29.9789611  24.9510737   3.4147832  30.6313669  24.4187180   3.6438858
  29.2815220  24.5979390   3.8015706  29.9720329  24.8200260   3.5060000
  26.9270876  17.3049915   2.8215207  27.6816844  17.6862954   3.0350669
  26.3341489  17.7561059   3.2761903  26.9507589  17.4278742   2.9198085
  29.3877543   9.2612755  17.9472419  28.5777319   9.5670535  17.8362261
  29.8652230   9.9818338  18.0625003  29.3381022   9.4127356  17.9479490
  28.2469102  18.4758476   8.1955322  27.7249856  18.6158768   8.8807187
  28.6343123  17.7169141   8.3857439  28.2272803  18.3844000   8.3256398
  34.4436107  20.2153935   2.1815891  34.2022783  19.4821796   1.7742956
  34.6237440  20.7640792   1.5282224  34.4343731  20.1876327   2.0246114
  29.6735428  15.5062495   3.5936813  29.4778211  16.1137230   2.9997116
  29.8969774  14.8130439   3.1128487  29.6770069  15.4940021   3.4352894
  28.0713958  12.3917233   3.7117681  28.7936610  12.5558391   3.2521487
  27.5921951  13.1126898   3.6057021  28.1077689  12.5215463   3.6283295
  36.0307466   8.7281032   9.0914366  35.1918566   8.7542311   8.8552630
  36.1011833   9.3751767   9.6719713  35.9175859   8.8277158   9.1423483
  25.7221575  14.7975306  12.8171821  26.2342672  15.0759559  12.1680581
  25.4357917  15.5364600  13.1834634  25.7556438  14.9477659  12.7761699
  22.8088481   9.3045497   3.1135558  22.9104618  10.1071659   3.4416533
  23.6044368   9.1032833   2.8158638  22.9416387   9.3931396   3.1170913
  29.2405300   6.8901694  12.8772863  29.0488497   6.9056829  13.7272286
  30.0903896   7.0865368  12.8539518  29.3381022   6.9216045  12.9996158
  23.6252213   9.4192676  10.8556679  23.4837705   8.5676616  10.9801187
  23.9092777   9.4621336  10.0318885  23.6460059   9.2992426  10.7524303
  33.7790806  11.2559766   5.0001168  33.5325520  11.1755517   5.8337956
  34.1075929  10.4713234   4.8063695  33.7912049  11.1286031   5.0948691
  37.6738854  17.9643125   8.7887949  37.5353214  18.6624171   9.2936691
  36.8938852  17.8091782   8.4324131  37.5382081  18.0443292   8.8114223
  36.0116940  14.2639501  15.0410330  36.0064978  13.3919317  15.0452757
  36.7177933  14.4627670  14.5679786  36.1161944  14.1643375  14.9717366
  29.7387833  13.9916484  14.4124151  29.8831209  14.5717693  13.7767261
  30.0863481  14.3692781  15.1174005  29.8115294  14.1337188  14.4223146
  31.9107750  13.1906653  12.1949282  31.1631064  13.3837667  11.7897560
  32.0649275  12.3651872  11.9573404  31.8230178  13.0971764  12.0994688
  28.8115588  22.1819256  11.2785177  28.9605152  21.6222172  10.6258582
  29.5915590  22.2611258  11.6617696  28.9489681  22.1104822  11.2382127
  31.3368888  22.3533899  12.5569668  31.2612560  21.6842710  13.1120457
  31.2658748  23.0551687  13.0710335  31.3149495  22.3578806  12.7146516
  32.1509527   7.0857204  13.0844686  32.6082141   7.8181178  13.2117478
  32.2265856   6.6623669  13.8431942  32.2300497   7.1314442  13.2145762
  24.3942518   7.3323023  14.1734130  23.8584708   6.7203381  14.4894897
  24.4560283   7.9071159  14.8267796  24.3238151   7.3269951  14.3169556
  31.9939135  20.8734898   3.3893274  32.7589026  20.6044542   3.0675938
  31.8917225  20.3884908   4.1063337  32.0920631  20.7624463   3.4473102
  30.0291905   9.0759307   9.9286510  29.2387980   8.8950768  10.2503846
  30.4252528   8.2986260   9.9116804  29.9708781   8.9346768   9.9739058
  35.4135591  16.7101738   7.6545956  34.7380593  16.4786970   8.1559343
  35.4227968  16.1022921   7.0288061  35.3154096  16.5860663   7.6362108
  32.5429735  11.5519567  14.4110009  32.4788877  12.4129523  14.2830146
  32.6826923  11.2351560  13.6105560  32.5545205  11.6319733  14.2738222
  31.2248829  14.2451706   8.5526212  30.8011078  14.4456205   7.8165230
  31.0493684  13.3980554   8.6650512  31.1359710  14.1500487   8.4599902
  30.7260523  25.7602219  11.0147669  31.2156453  25.0613008  10.8323334
  30.1544755  25.4626089  11.6023726  30.7145053  25.6128443  11.0748710
  26.5131274  14.7403757   3.9854184  26.6695893  14.6750560   4.8410176
  26.8531867  15.5152310   3.7732864  26.5864509  14.8452955   4.0808778
  33.0510419  14.1161641   2.8547548  33.5925964  13.6132022   3.3186168
  33.3656978  14.0626836   2.0437033  33.1774816  14.0341062   2.8031360
  36.9227526  18.3264288  19.9674460  37.7362392  18.0549437  20.1279592
  36.7622493  18.0271828  19.1634656  37.0197475  18.2419214  19.8719866
  31.2196869  19.5078992   0.1387576  31.2889689  18.6493531   0.2780576
  31.9985324  19.7250873  -0.1893400  31.3449719  19.4131856   0.1104733
  34.1999688   9.0097945  12.9069848  34.4141658   8.3708860  12.3533202
  33.5833587   9.4543769  12.4777710  34.1405018   8.9808089  12.7620279
  35.6104356  21.9316694   4.3524069  35.2184148  21.6283409   3.6346935
  35.7657428  22.7685784   4.1629023  35.5757946  22.0100530   4.2180566
  23.0865536  11.9238708   4.3014951  23.4664501  12.3423253   3.6375219
  22.5120901  12.5052164   4.6083795  23.0576861  12.0716567   4.2491692
  36.3638776  10.6187011  13.8453155  35.5515458  10.3112901  13.9266328
  36.8228711  10.1386011  14.4095867  36.3119161  10.5023503  13.9407749
  35.7744031  18.4966683   4.2930099  35.4158686  18.6681325   5.0694132
  35.2882742  18.9579888   3.7358098  35.6502728  18.5905654   4.3255369
  33.4592284  12.0247082  18.6281857  33.9291915  12.6489198  19.0149731
  33.5054164  11.3564058  19.1875072  33.5360160  12.0181762  18.7681929
  30.6163557   4.1304110   9.3530661  30.1002046   3.4384301   9.4782240
  30.0557486   4.7974887   9.2993260  30.4570071   4.1267367   9.3636727
  32.6855791   4.6697070  11.1823514  32.2987544   4.6946101  11.9637044
  32.1988728   4.1038748  10.7298030  32.5568300   4.5892820  11.2311417
  36.9348770  19.3870579  15.2397300  37.5728491  18.8930774  14.9059756
  36.2922862  19.3147979  14.6549527  36.9342997  19.3029587  15.1039655
  38.6605770  11.2359725   9.8063216  38.2333378  11.1486073   9.0511315
  38.0231823  11.3437500  10.3918060  38.5035378  11.2392384   9.7808657
  32.1526847   6.3435250  15.7460185  32.9800277   6.0720399  15.8018800
  32.1734694   7.1396091  16.1024003  32.2779698   6.4215004  15.8075368
  36.9903027  20.0790387  11.8802657  37.7795405  19.7279452  12.0004739
  37.1646625  20.8926775  11.6179291  37.1323309  20.1476244  11.8590525
  26.7296337  13.4899113   8.9330446  25.8884344  13.3902987   9.1409340
  26.9386345  14.2594593   9.2844767  26.6361030  13.5891156   9.0157761
  24.2071904  11.1118650   6.7615197  23.8128602  11.1861661   5.9865306
  23.6512021  11.4976596   7.3123558  24.0674717  11.1800424   6.7282856
  30.5413002  11.4180512   8.1828043  30.2376140  10.8636500   8.7838451
  29.8392423  11.5972722   7.6956078  30.3929212  11.3625294   8.1997749
  29.5979099   8.7281032   2.7472745  29.8738834   8.0099944   2.3350313
  30.1977769   9.3265951   2.5393851  29.7272364   8.7101402   2.6553506
  28.6031353  18.6330232  12.8900141  28.4951708  18.6432295  13.7562199
  28.8127135  19.4585013  12.7005095  28.6181464  18.7571307  12.9904233
  26.6205145  15.8842875  10.3522079  26.0293078  16.5252373  10.3225094
  27.3826169  16.3080492  10.3253378  26.6453406  16.0418713  10.3437226
  27.0165768   7.0444873  11.0190096  27.4767250   7.1183802  11.7565220
  27.0621875   7.8426127  10.6689918  27.0916323   7.1739020  11.0762853
  28.6649118   7.7111568  15.5862124  28.2734683   7.0644915  16.0217901
  28.8334980   8.3023003  16.2056379  28.6320028   7.7025835  15.7424829
  36.3794661  21.3352186   7.7854103  36.1814350  21.8243001   7.0910315
  35.7582372  21.5393428   8.3638237  36.2582226  21.4368725   7.7677327
  30.4402640  13.1037083   2.1264348  31.1844685  13.4911360   2.3647297
  30.5863336  12.2594509   2.2904835  30.5713225  13.0367556   2.1858317
  32.3582215   4.8987342   7.1596209  31.5118260   5.0710150   7.0337559
  32.3553348   4.0936686   7.4962037  32.2329365   4.8048371   7.1907336
  33.4280516   8.6762557   8.0258267  32.9540470   8.1504319   8.5363578
  33.7998651   8.1292029   7.4573128  33.4130405   8.5178553   8.0173414
  23.8053546  10.6734063  13.3941813  24.6679159  10.5729773  13.3079142
  23.4745329  10.0928773  12.8327385  23.8838742  10.5725690  13.2987218
  39.6917246  13.7364932   9.4365047  39.4515469  12.8971347   9.4407474
  40.1709253  13.8165099  10.1605821  39.7269430  13.6246332   9.5439850
  38.2968463  14.9016339  13.3199352  39.0202662  14.4488865  13.1410372
  38.0318426  15.1821004  12.5371679  38.3649737  14.8767307  13.1778067
  27.1655332   9.4976512  10.0552231  26.5408402   9.5094904   9.4478184
  26.8300927   9.9736687  10.7043471  27.0240824   9.5695029  10.0608799
  23.8781007  17.5576972  11.4955995  23.3480932  16.8669411  11.5450970
  24.1506101  17.5487158  10.6668704  23.8405730  17.4544104  11.3803411
  34.0787253  15.0000217  11.4694367  33.4644246  14.4558267  11.7643002
  34.5954538  14.4864453  10.9900183  34.0642915  14.8436626  11.4418595
  33.3183550  16.0704487   9.2038665  32.8911158  15.4454206   8.7704101
  33.3108494  15.7879409  10.0297673  33.2542691  15.9357268   9.2618493
  26.4346077  11.1069660  12.2727099  26.5939564  10.3512984  12.6778821
  26.2538971  11.6560600  12.9267837  26.4311436  11.0763474  12.4289805
  31.6469260   6.9473242   9.4181199  31.6711747   6.4133354   8.7293979
  31.8980733   6.4390550  10.0806790  31.6879178   6.7934146   9.4145844
  19.1576850  14.2304737   8.8524343  19.0520299  14.1851581   7.9876427
  18.4077070  14.5758517   9.1338628  19.0312452  14.2745645   8.7661673
  27.9270582   5.6744060   8.7986944  27.9668954   6.1753266   9.5121651
  27.1020247   5.7654454   8.5292867  27.8110108   5.7625876   8.8637482
  30.1100195  15.2404800  16.9007238  29.2595825  15.3776514  17.0364883
  30.2728323  14.5068578  17.3454940  30.0084058  15.1518901  16.9862837
  29.3484945  12.1904570  11.0960843  28.5176875  12.3578388  10.8896091
  29.2936463  11.8140520  11.8809728  29.2174360  12.1594301  11.1809371
  27.1568729   5.6813463  16.7317253  27.7821432   5.1375595  17.0046686
  26.7019209   5.2008380  16.1625044  27.1816989   5.5302944  16.6878847
  27.7220989  10.4660161   1.6250960  27.8623950  10.9632625   2.3279602
  28.2203522   9.7646456   1.7665174  27.8162070  10.4362140   1.7502539
  27.7521212  11.3327272  -1.0456463  28.3866291  11.9287697  -1.1107001
  27.8346822  11.0330730  -0.2310593  27.8577763  11.3768180  -0.9353376
  40.7303777  13.8642750  11.8229901  41.3221618  14.5040000  11.8548099
  41.1662772  13.1665786  12.1121968  40.8822209  13.8561100  11.8710734
  32.5597167  18.2860122  12.4487795  32.0522258  18.8395969  12.8928426
  32.2623813  18.3468412  11.6306570  32.4402052  18.3766433  12.3936252
  34.7259349   6.6513442  11.2912458  35.1514421   6.1985968  10.6795985
  34.1116342   6.0973512  11.5677246  34.6987995   6.5027418  11.2417484
  24.2574199  13.5295113   2.2233083  24.7666429  14.1259621   2.6044389
  24.7308472  13.2621087   1.5409503  24.4017575  13.5780928   2.1787606
  31.8039652  23.2184680   9.3544802  31.5805307  22.4603509   9.7228828
  31.3149496  23.2482701   8.6325242  31.6983101  23.1106905   9.3021543
  26.6164731  10.1651372   5.0906264  25.8976720  10.5815504   5.3579127
  26.9877093  10.7305610   4.5397902  26.5656663  10.3100653   5.0489071
  35.9164312  10.7979220  10.9808259  35.8962239  10.6162516  11.8343038
  35.9643513  11.6691239  10.9567843  35.9198953  10.8995759  11.1031554
  33.8610642  17.3866412  16.9056736  33.8206497  16.7416089  16.3201892
  34.6733960  17.3303030  17.2182148  33.9753795  17.2825379  16.8653685
  30.4518109  23.4385138   6.8081887  30.0378508  22.7759269   6.4185728
  31.1365484  23.5862997   6.2877581  30.4916481  23.3625797   6.6738384
  33.8183404  22.5975224   7.5605503  33.4199687  22.7077494   6.7926324
  33.2034623  22.8057290   8.1432063  33.6682293  22.6448792   7.5336803
  29.5488351  11.0163349  13.4606494  29.0367254  10.4084532  13.8191525
  29.3767847  11.7319942  13.9280469  29.4477988  11.0326648  13.5822717
  24.3954065   9.4600924  16.1108855  24.2256656  10.1202299  15.5657062
  23.9520015   9.6707486  16.8321344  24.3053399   9.5886906  16.1370485
  28.3213885   7.7005422   5.1535589  28.7971251   8.0622502   4.5185770
  27.8202484   8.3561890   5.4335732  28.3179244   7.8499611   5.1012330
  33.4257421   8.9387594  15.9008749  33.9828851   8.7101403  15.2687214
  33.1018486   9.6993259  15.6243961  33.4603831   9.0171430  15.7665246
  21.2956130  12.3647790  11.3697345  20.7482849  11.6948435  11.4878213
  22.0848508  11.9977638  11.4340812  21.3308313  12.2112776  11.3966046
  31.1440538  12.0255247  16.8660756  31.8951865  12.3406924  17.1800310
  31.3363115  11.8234418  16.0394678  31.2831952  12.0422629  16.7904152
  20.0543099  11.5768598   8.5243368  19.8764860  11.1245207   9.2498284
  19.7662121  12.3794759   8.7081846  19.9856052  11.6291155   8.6586871
  35.7166680  12.8326315   7.7620758  36.2120346  12.1149310   7.7224779
  34.9066456  12.5297113   7.6475245  35.6710574  12.6823961   7.7394484
  31.1625292  16.6824128  -0.0882237  30.3536615  16.3590802  -0.1348928
  31.6700201  15.9757350  -0.1553988  31.1174959  16.5305445  -0.1051943
  21.7915569  14.1096321   5.6365127  20.9261089  14.0982012   5.5247898
  21.8914385  13.9226544   6.4836267  21.6789736  14.0802383   5.7454072
  37.7818499  15.5830003  10.4497887  38.2073571  15.0604424   9.8968312
  37.4175419  16.1810840   9.9286510  37.7905102  15.5940230  10.2906897
  27.4172579  23.8794220   9.2095233  27.7319138  24.6930608   9.2173014
  27.8265992  23.4944439   9.8777392  27.5240677  23.9422922   9.3099324
  34.3697099  19.2964267   6.7799045  34.8408277  20.0104529   6.9489030
  34.7057277  18.6963017   7.3158914  34.4892214  19.3135731   6.8831421
  36.4574083  20.9065580  18.9591117  36.5671049  20.1174141  19.3147864
  36.7864980  20.8171516  18.1565455  36.5226489  20.7771433  18.8933508
  31.2866594   4.0691737  13.7357140  31.4194499   3.2722731  14.0638115
  31.6711746   4.5958140  14.3155415  31.3622922   4.0291654  13.8700642
  35.0071045  19.0882201  13.5426737  34.4591991  18.4640085  13.2746803
  35.4684074  19.2776473  12.8270817  34.9938254  19.0241251  13.3977168
  37.8164909   7.1567555  10.9277930  37.2327898   7.6576762  10.5155497
  38.1369203   6.6497112  10.2942253  37.7778085   7.1559390  10.7736437
  28.9455040   4.0650912  11.9835033  29.4899453   3.7242039  12.5739375
  28.9991976   4.9236374  12.1256318  29.0344160   4.1406172  12.0916907
  24.7585599  17.8267328   8.8573841  25.3630457  17.7863163   8.2287662
  24.5512912  18.6738480   8.8877897  24.8174496  17.9455331   8.7689958
  34.5729371  20.0933274  10.0736079  35.3927745  19.9496240  10.3352374
  34.2923449  20.7179473  10.6152516  34.6526115  20.1643626  10.1924018
  19.9936881  16.8101946   8.7272764  19.8961159  15.9998217   9.0362821
  20.7765751  16.7893739   8.3419032  20.0953018  16.6869036   8.7159627
  35.7023734  24.5760904   8.3468531  35.0828766  23.9853551   8.1778546
  35.6007598  25.1672339   7.7132854  35.5961410  24.5764986   8.2273520
  35.4292867  28.1213185  10.5912100  35.3051564  28.7075631  11.2261919
  36.0811152  27.6273381  10.8924375  35.5066516  28.1351990  10.7298029
  40.9718493  21.6852842   6.7622269  40.6421823  22.1363986   6.0925967
  40.2963495  21.6069005   7.3095275  40.8228930  21.7403977   6.7445492
  38.8674075  28.0392607  16.0041124  39.0394579  27.9298501  16.8526406
  39.4043433  28.6847012  15.7672316  38.9719079  28.1184608  16.0946221
  37.7698647  34.4124247  10.6859623  38.3096872  34.2695378  11.3562995
  37.0868593  34.8120998  11.0543649  37.7490801  34.4503918  10.8394044
  33.1735792  30.6324538  10.8394044  32.9074207  29.8163654  10.9985034
  33.1874356  30.6777693   9.9689560  33.1360514  30.5181442  10.7347526
  37.9234398  24.1702916  13.4861052  37.2306195  23.6999896  13.7321783
  38.5394726  23.9441220  14.0602759  37.9118928  24.0670048  13.6070204
  33.5829206  31.4183317   8.1205788  33.4004779  31.3930203   7.2678081
  34.3178875  31.8882255   8.1594697  33.6643270  31.4844679   8.0003707
  36.6474957  28.1368320  14.6287897  37.3714930  28.1221351  15.1152792
  36.7491094  28.8463675  14.1309865  36.7693167  28.2393023  14.6266684
  33.5500116  28.2976818   8.2704855  34.1273619  28.1613268   8.9097100
  32.8514178  27.8412602   8.5250439  33.5321138  28.2099084   8.4027145
  29.0258949  27.1488711   4.9852674  29.1119201  26.7720579   5.7666204
  29.6534747  26.7749156   4.5072632  29.1315500  27.0374193   5.0298151
  40.7293621  22.1800812  19.2087204  40.4147062  22.9500375  18.9456767
  40.4083554  21.6171068  18.6239431  40.6352540  22.2111081  19.0828554
  38.2825518  20.5691334   4.8233400  37.4147943  20.6413933   4.8891010
  38.5700722  21.3713413   5.0121375  38.1965266  20.6985481   4.8608167
  40.3610126  24.7798063  17.9472419  39.5509902  25.0855843  17.8362261
  40.8384813  25.5003646  18.0625003  40.3113605  24.9312664  17.9479490
  36.6954158  30.3160614  12.8171821  37.2075255  30.5944867  12.1680581
  36.4090501  31.0549908  13.1834634  36.7289021  30.4662967  12.7761699
  40.2137884  22.4087002  12.8772863  40.0221081  22.4242137  13.7272286
  41.0636480  22.6050676  12.8539518  40.3113606  22.4401353  12.9996158
  34.5984797  24.9377984  10.8556679  34.4570289  24.0861924  10.9801187
  34.8825360  24.9806644  10.0318885  34.6192643  24.8177734  10.7524303
  40.7120416  29.5101792  14.4124151  40.8563792  30.0903001  13.7767261
  41.0596065  29.8878089  15.1174005  40.7847878  29.6522496  14.4223146
  35.3675102  22.8508331  14.1734130  34.8317291  22.2388689  14.4894897
  35.4292867  23.4256467  14.8267796  35.2970735  22.8455259  14.3169556
  41.0024489  24.5944615   9.9286510  40.2120563  24.4136076  10.2503846
  41.3985112  23.8171568   9.9116804  40.9441365  24.4532076   9.9739058
  41.5896141  19.6489417   9.3530661  41.0734630  18.9569609   9.4782240
  41.0290070  20.3160195   9.2993260  41.4302654  19.6452675   9.3636727
  37.7028921  29.0084421   8.9330446  36.8616927  28.9088295   9.1409340
  37.9118929  29.7779901   9.2844767  37.6093613  29.1076464   9.0157761
  35.1804488  26.6303957   6.7615197  34.7861186  26.7046969   5.9865306
  34.6244605  27.0161904   7.3123558  35.0407300  26.6985732   6.7282856
  41.5145586  26.9365820   8.1828043  41.2108723  26.3821808   8.7838451
  40.8125007  27.1158030   7.6956078  41.3661796  26.8810602   8.1997749
  39.5763937  34.1515540  12.8900141  39.4684292  34.1617603  13.7562199
  39.7859718  34.9770321  12.7005095  39.5914048  34.2756615  12.9904233
  37.5937729  31.4028183  10.3522079  37.0025662  32.0437681  10.3225094
  38.3558752  31.8265800  10.3253378  37.6185989  31.5604021  10.3437226
  37.9898352  22.5630181  11.0190096  38.4499833  22.6369110  11.7565220
  38.0354458  23.3611435  10.6689918  38.0648907  22.6924328  11.0762853
  39.6381701  23.2296875  15.5862124  39.2467266  22.5830223  16.0217901
  39.8067564  23.8208311  16.2056379  39.6052612  23.2211143  15.7424829
  34.7786129  26.1919371  13.3941813  35.6411742  26.0915080  13.3079142
  34.4477912  25.6114081  12.8327385  34.8571326  26.0910998  13.2987218
  38.1387915  25.0161820  10.0552231  37.5140985  25.0280212   9.4478184
  37.8033510  25.4921995  10.7043471  37.9973407  25.0880337  10.0608799
  34.8513591  33.0762280  11.4955995  34.3213515  32.3854719  11.5450970
  35.1238684  33.0672466  10.6668704  34.8138313  32.9729412  11.3803411
  37.4078661  26.6254968  12.2727099  37.5672147  25.8698292  12.6778821
  37.2271554  27.1745908  12.9267837  37.4044020  26.5948782  12.4289805
  30.1309433  29.7490044   8.8524343  30.0252882  29.7036889   7.9876427
  29.3809653  30.0943825   9.1338628  30.0045036  29.7930953   8.7661673
  38.9003165  21.1929368   8.7986944  38.9401537  21.6938574   9.5121651
  38.0752830  21.2839761   8.5292867  38.7842691  21.2811184   8.8637482
  41.0832778  30.7590108  16.9007238  40.2328409  30.8961822  17.0364883
  41.2460906  30.0253886  17.3454940  40.9816642  30.6704209  16.9862837
  40.3217529  27.7089878  11.0960843  39.4909459  27.8763696  10.8896091
  40.2669046  27.3325828  11.8809728  40.1906944  27.6779609  11.1809371
  38.1301312  21.1998771  16.7317253  38.7554016  20.6560903  17.0046686
  37.6751792  20.7193688  16.1625044  38.1549573  21.0488252  16.6878847
  40.5220934  26.5348657  13.4606494  40.0099837  25.9269840  13.8191525
  40.3500430  27.2505249  13.9280469  40.4210571  26.5511956  13.5822717
  35.3686649  24.9786232  16.1108855  35.1989239  25.6387607  15.5657062
  34.9252599  25.1892793  16.8321344  35.2785982  25.1072214  16.1370485
  32.2688713  27.8833098  11.3697345  31.7215433  27.2133743  11.4878213
  33.0581092  27.5162946  11.4340812  32.3040897  27.7298084  11.3966046
  31.0275683  27.0953906   8.5243368  30.8497444  26.6430515   9.2498284
  30.7394705  27.8980067   8.7081846  30.9588636  27.1476463   8.6586871
  32.7648153  29.6281629   5.6365127  31.8993672  29.6167320   5.5247898
  32.8646969  29.4411852   6.4836267  32.6522320  29.5987691   5.7454072
  39.9187624  19.5836220  11.9835033  40.4632037  19.2427347  12.5739375
  39.9724560  20.4421682  12.1256318  40.0076743  19.6591480  12.0916907
  30.9669465  32.3287254   8.7272764  30.8693743  31.5183525   9.0362821
  31.7498335  32.3079047   8.3419032  31.0685601  32.2054344   8.7159627
   2.8213852  21.0651943  22.6228946   2.7538352  21.0847903  21.7531533
   2.8069514  21.9082271  22.8484617   2.8092608  21.1925678  22.5281423
   7.8427397  35.0201341  15.8304269   7.8121401  35.8745978  16.0022538
   8.4408745  34.7196634  16.3890412   7.9264555  35.1017838  15.9379071
   4.9779276  24.9441581  17.7997193   4.6632717  25.6345060  18.2317615
   4.4606218  24.8886363  17.0982693   4.8543747  25.0376470  17.7594142
   4.3191710  34.9446082  13.9134603   3.7903181  35.1605715  14.5731910
   4.8416730  35.6382220  13.8335573   4.3180163  35.0789219  13.9990203
   9.2693721  33.1662787  23.0818069   8.4322142  33.2364974  23.3165664
   9.2381952  33.1687282  22.2092372   9.1412004  33.1773014  22.9877617
   6.9501561  28.2305569  21.6661792   7.5927469  28.3003673  22.2523707
   7.2024582  27.5634792  21.1641333   7.0823693  28.1431917  21.6789071
  10.1648424  37.9072661  18.3152001  10.8264858  37.3463329  18.2147909
   9.5239836  37.4124691  18.6404692  10.1677292  37.7509070  18.3484341
   3.4935601  35.6104612  16.5757174   3.5882455  36.3493906  17.0296799
   2.8694444  35.1822087  17.0091738   3.4144631  35.6565932  16.7065321
   2.1852843  29.3242540  19.3772745   1.4809170  28.8351726  19.5356664
   2.2337818  29.3365015  18.5061189   2.0882895  29.2532188  19.2712084
   9.3883063  33.0050206  17.3973755   9.1319628  32.1930147  17.2071638
  10.2312377  33.0127773  17.1703942   9.4749089  32.8862203  17.3358572
   3.5686156  26.9449830  22.1349909   3.9496667  26.2628001  22.5217783
   2.7649440  26.6559432  21.9525574   3.5062617  26.8016878  22.1653965
  13.7946435  36.5837251  22.6228946  13.7270936  36.6033211  21.7531533
  13.7802098  37.4267579  22.8484617  13.7825192  36.7110986  22.5281423
   4.2042782  27.9872409  25.9470036   4.9496374  27.7982219  25.5333461
   3.7880086  28.5130647  25.3883892   4.2527756  28.0374554  25.8034609
  11.5805053  35.3581638  20.8975541  12.1312974  34.7249707  21.1372633
  11.5649168  35.8897030  21.5891045  11.6590249  35.3430586  21.0354399
   5.2833459  33.5977971  20.0080137   4.9398225  32.8768306  20.3587387
   5.3826501  33.3891822  19.1658495   5.2475502  33.4602175  19.9351817
   3.8024424  31.5169556  21.8839680   2.9635525  31.5430835  21.6477943
   3.8728792  32.1640291  22.4645027   3.6892818  31.6165682  21.9348797
   2.2493703  28.4154933  16.6167296   2.9520055  28.2162681  16.1387254
   1.9837891  27.6430875  16.9236139   2.3140335  28.2717899  16.5912737
   7.6781948  36.7237543  19.1700922   7.5915923  36.8792969  20.0235701
   7.2232428  37.3675618  18.7960327   7.5985205  36.8413298  19.2408028
   1.5507764  34.0448290  17.7926481   1.3042478  33.9644041  18.6263270
   1.8792887  33.2601758  17.5989009   1.5629008  33.9174555  17.8874004
   4.3953812  23.0535603  19.7463843   4.5137380  23.5112066  19.0131145
   4.2215987  22.2480864  19.4600060   4.3872983  23.0029375  19.5964776
   1.9716647  31.7986469  25.6995162   2.1858616  31.1597384  25.1458516
   1.3550546  32.2432293  25.2703023   1.9121976  31.7696613  25.5545593
   4.1355735  33.4075535  26.6378469   3.3232417  33.1001425  26.7191641
   4.5945669  32.9274535  27.2021181   4.0836120  33.2912027  26.7333063
   6.4322729  34.0248249  22.5988530   6.0050337  33.9374597  21.8436629
   5.7948782  34.1326024  23.1843374   6.2752336  34.0280908  22.5733971
   3.6153810  26.8788468  19.2344389   3.8203403  26.8110775  20.0801386
   3.2880234  27.6847289  19.1665567   3.5969058  26.9874408  19.3504044
   6.8687497  27.4320232  18.7147155   6.2561811  27.9190634  19.1000886
   6.9651672  26.7563723  19.2584806   6.7925395  27.4038541  18.8526013
   0.8706578  29.1883073  13.8144654   1.3250325  29.3593633  14.5392498
   1.3446624  28.5751184  13.4142430   1.0074899  29.1233958  13.8618415
   7.4634205  36.5253456  22.2290361   7.2232428  35.6859871  22.2332787
   7.9426212  36.6053623  22.9531135   7.4986388  36.4134856  22.3365163
   3.1280974  32.3587635  13.8809334   2.6003993  32.4416379  13.1915043
   3.5876682  33.1005507  13.8773979   3.1182824  32.4808298  13.7784029
   9.4639392  33.3054914  20.1819620   9.2249162  33.2650748  19.3440405
   9.6273293  34.1526066  20.3085341   9.4529695  33.4246999  20.0773102
   2.1483339  26.0619420  25.6203202   1.6523900  26.2583094  24.9294769
   2.9052401  26.4612088  25.4492004   2.1870163  26.1497154  25.4923339
   8.5020736  36.6531274  24.6155215   9.0938576  37.2928524  24.6473413
   8.9379730  35.9554310  24.9047282   8.6539167  36.6449624  24.6636048
   2.4976308  29.4401966  24.0837772   2.9231380  28.9874492  23.4721298
   1.8833301  28.8862036  24.3602559   2.4704953  29.2915942  24.0342797
   5.5269877  33.8676492  16.9158357   4.8561067  34.4106194  16.7871423
   6.2209628  34.3371348  16.6740052   5.5298745  34.0174763  16.8613885
   5.6898005  30.3232376  19.8248731   6.0425615  29.8962099  20.4994529
   4.8312806  30.2383219  19.9549807   5.6147449  30.2477117  19.9443741
   3.6881271  33.5867744  23.7733573   3.6679198  33.4051040  24.6268352
   3.7360471  34.4579763  23.7493157   3.6915912  33.6884283  23.8956868
   7.1222065  25.4450788  20.7533043   6.6152930  24.7379927  20.6854221
   7.9189499  25.1143977  20.8834120   7.1649304  25.2923939  20.7632038
   3.0386081  31.9517400  16.6506707   2.8099774  31.9750101  15.8085065
   3.2984157  31.1274867  16.7701717   3.0432269  31.8333480  16.5431905
   1.1974380  31.7276118  28.6934063   1.7545810  31.4989927  28.0612528
   0.8735445  32.4881783  28.4169275   1.2320790  31.8059954  28.5590560
   5.7642787  30.9417337  16.9009865   5.7637013  30.7865994  17.7594142
   5.5598967  31.7880324  16.8451251   5.7342565  31.0437958  17.0197805
   3.4883639  35.6214839  20.5546072   3.9837304  34.9037834  20.5150092
   2.6783415  35.3185637  20.4400559   3.4427532  35.4712485  20.5319798
   2.1315907  23.7810588  23.1263546   1.3261871  23.6708317  23.4431385
   2.0022643  23.8823043  22.2693412   1.9936040  23.7794258  23.0471587
   5.5881868  29.9456079  23.7203243   5.0044857  30.4465286  23.3080811
   5.9086162  29.4385636  23.0867567   5.5495043  29.9447914  23.5661751
  15.3686395  38.5720911  19.7463843  15.4869963  39.0297374  19.0131145
  15.1948571  37.7666172  19.4600060  15.3605566  38.5214683  19.5964776
  18.0954648  40.9636096  20.7533043  17.5885513  40.2565235  20.6854221
  18.8922082  40.6329284  20.8834120  18.1381888  40.8109247  20.7632038
  13.1048491  39.2995895  23.1263546  12.2994455  39.1893625  23.4431385
  12.9755226  39.4008351  22.2693412  12.9668624  39.2979566  23.0471587
   4.0471622  17.3141649  17.1257702   4.7538389  16.8193680  17.2544636
   4.2359557  17.7550731  16.3960360   4.1799528  17.3060000  17.0366747
   3.5829727  13.1047168  10.1628897   4.1285687  13.7832254  10.2222867
   3.5246603  12.9634628   9.3030479   3.6545641  13.1839169  10.0440958
   9.4690587  17.4570518   6.2207695   8.6388290  17.6681161   6.3841111
   9.4199839  16.6307572   5.9449978   9.3397322  17.3660124   6.2045060
   1.1863916  20.7369186  15.0171777   1.2747262  20.5495326  15.8649988
   1.6153629  20.0906615  14.6176624   1.2626019  20.6132193  15.0843529
   8.9644545  10.1040918  10.0158116   8.1272966  10.1743105  10.2505710
   8.9332776  10.1065413   9.1432418   8.8362828  10.1151145   9.9217664
   6.7254902  18.1269872   6.3572410   6.2890134  18.1306614   7.1131382
   6.3917818  18.8075371   5.9251988   6.6117522  18.2282328   6.4053243
   1.2983976  20.1678205  17.6815561   2.0824392  20.2809053  18.0471303
   1.0980570  19.3419342  17.8774247   1.3850001  20.0624924  17.7649947
   9.8599248  14.8450792   5.2492048  10.5215682  14.2841460   5.1487956
   9.2190660  14.3502823   5.5744739   9.8628116  14.6887201   5.2824388
   1.4438899  15.7268956  14.1587501   2.0177760  15.0896200  14.3136065
   1.3653702  15.7273038  13.2897159   1.5172134  15.6334067  14.0533912
   6.7659046  17.0977933  14.1672354   6.5297684  16.2665998  14.0484415
   7.4102275  17.0463540  14.7527199   6.8253717  16.9675621  14.2358248
   7.7895467  16.8822382  10.2300649   7.4841284  17.6150439  10.5913965
   7.0701683  16.4760311   9.9493435   7.6382809  16.9304115  10.2413786
  13.4897259  13.5215383   9.5568993  13.4221760  13.5411342   8.6871580
  13.4752922  14.3645710   9.7824664  13.4776016  13.6489117   9.4621470
   3.8993606   4.9250540  12.8810083   4.6447198   4.7360351  12.4673508
   3.4830910   5.4508778  12.3223939   3.9478580   4.9752686  12.7374656
  11.2755877  12.2959769   7.8315588  11.8263798  11.6627838   8.0712680
  11.2599992  12.8275162   8.5231092  11.3541073  12.2808717   7.9694446
   7.3732772  13.6615674   6.1040968   7.2866747  13.8171100   6.9575747
   6.9183252  14.3053749   5.7300374   7.2936029  13.7791429   6.1748075
   5.1406637  17.6909780   8.5153309   5.0020996  18.3890826   9.0202052
   4.3606635  17.5358437   8.1589491   5.0049864  17.7709947   8.5379583
   3.4784722  13.9906156  14.7675691   3.4732761  13.1185972  14.7718117
   4.1845716  14.1894325  14.2945147   3.5829726  13.8910030  14.6982726
   2.8803374  16.4368393   7.3811316   2.2048376  16.2053625   7.8824703
   2.8895750  15.8289576   6.7553421   2.7821879  16.3127318   7.3627469
   4.3895309  18.0530943  19.6939820   5.2030174  17.7816092  19.8544953
   4.2290275  17.7538483  18.8900016   4.4865257  17.9685870  19.5985226
   1.6667471   8.7364601  12.6335208   1.8809440   8.0975515  12.0798562
   1.0501370   9.1810425  12.2043070   1.6072800   8.7074744  12.4885640
   3.0772139  21.6583349   4.0789429   2.6851930  21.3550064   3.3612295
   3.2325211  22.4952439   3.8894383   3.0425729  21.7367186   3.9445926
   3.8306559  10.3453666  13.5718516   3.0183241  10.0379556  13.6531688
   4.2896493   9.8652666  14.1361228   3.7786944  10.2290158  13.6673110
   0.9260066  11.7513737  18.3547218   1.3959697  12.3755854  18.7415092
   0.9721947  11.0830713  18.9140433   1.0027942  11.7448418  18.4947289
   4.4016553  19.1137234  14.9662661   5.0396273  18.6197429  14.6325117
   3.7590644  19.0414634  14.3814888   4.4010779  19.0296242  14.8305016
   6.1273553  10.9626380   9.5328576   5.7001161  10.8752728   8.7776676
   5.4899606  11.0704155  10.1183420   5.9703160  10.9659040   9.5074018
   4.4570809  19.8057042  11.6068018   5.2463188  19.4546107  11.7270099
   4.6314407  20.6193430  11.3444651   4.5991091  19.8742899  11.5855885
  10.2063349  15.4415300  11.0764717  10.2646473  15.8901949  11.8224694
   9.5729817  15.8514113  10.6394797  10.1214644  15.5689034  11.1217266
   3.8462444  21.0618842   7.5119464   3.6482133  21.5509656   6.8175675
   3.2250155  21.2660083   8.0903597   3.7250008  21.1635380   7.4942687
   7.1585029  13.4631587   9.1630408   6.9183252  12.6238003   9.1672834
   7.6377036  13.5431754   9.8871181   7.1937212  13.3512987   9.2705210
   5.7636246  14.6282994  13.0464712   6.4870445  14.1755520  12.8675732
   5.4986208  14.9087660  12.2637040   5.8317519  14.6033962  12.9043427
   1.5455035  14.7266872  11.1959727   0.9312029  14.1824923  11.4908362
   2.0622320  14.2131109  10.7165543   1.5310698  14.5703281  11.1683956
   8.1971560  13.5909405  11.5495262   8.7889400  14.2306656  11.5813460
   8.6330554  12.8932442  11.8387329   8.3489991  13.5827755  11.5976094
   3.3832095  10.5245876  10.7073620   3.3630022  10.3429171  11.5608399
   3.4311295  11.3957894  10.6833203   3.3866736  10.6262414  10.8296915
   1.3278424  17.1133068  16.6322096   1.2874279  16.4682745  16.0467252
   2.1401743  17.0569685  16.9447508   1.4421578  17.0092034  16.5919045
   5.2486282  15.3096658  10.1763248   5.6741353  14.7871080   9.6233673
   4.8843202  15.9077495   9.6551871   5.2572884  15.3206885  10.0172257
   1.8364881  19.0230922   6.5064405   2.3076059  19.7371185   6.6754390
   2.1725060  18.4229672   7.0424275   1.9559996  19.0402386   6.6096781
   3.9241866  20.6332235  18.6856477   4.0338831  19.8440796  19.0413224
   4.2532762  20.5438172  17.8830815   3.9894272  20.5038088  18.6198868
   2.4738828  18.8148856  13.2692098   1.9259774  18.1906740  13.0012163
   2.9351856  19.0043128  12.5536177   2.4606037  18.7507906  13.1242529
   2.0397154  19.8199929   9.8001439   2.8595528  19.6762895  10.0617734
   1.7591231  20.4446128  10.3417877   2.1193897  19.8910281   9.9189378
  18.5110804  27.4764781   2.7644315  18.4804809  28.3309417   2.9362585
  19.1092153  27.1760073   3.3230459  18.5947962  27.5581277   2.8719118
  11.7110489  26.5640432   7.5197246  10.8548385  26.7248930   7.5706363
  11.7578143  25.6932496   7.5402307  11.5909601  26.4591233   7.5303312
  15.0204206  32.8326957  17.1257702  15.7270973  32.3378988  17.2544636
  15.2092141  33.2736039  16.3960360  15.1532111  32.8245308  17.0366747
  14.5562310  28.6232475  10.1628897  15.1018270  29.3017562  10.2222867
  14.4979186  28.4819936   9.3030479  14.6278224  28.7024477  10.0440958
  16.3327379  30.0517083   1.0362625  16.2166905  30.8024769   1.4654763
  17.1283265  29.7941036   1.2858712  16.4331968  30.1251929   1.1366717
   3.1691517  24.3027559   8.0733891   2.5496548  23.7120206   7.9043906
   3.0675380  24.8938994   7.4398214   3.0629192  24.3031641   7.9538881
  10.2659412  26.0427101   2.4066354  10.9639577  26.2215228   2.8987818
  10.5811745  25.5197440   1.7836744  10.4154750  25.9920873   2.3868364
   2.8960650  27.8479840  10.3177460   2.7719347  28.4342286  10.9527279
   3.5478934  27.3540036  10.6189735   2.9734299  27.8618645  10.4563390
   7.9218991  31.0241557   9.5964971   8.5667993  30.5314001   9.2775920
   8.1620768  31.1666344  10.4231050   8.0529576  30.9719000   9.6714505
  10.4605082  33.8696463   9.2471864  10.7428325  33.0747869   9.0258620
  11.1891242  34.3477051   9.2676925  10.6094646  33.8231060   9.2174879
   8.4386276  21.4119497   6.4887629   8.1089606  21.8630641   5.8191328
   7.7631278  21.3335661   7.0360635   8.2896712  21.4670632   6.4710852
  15.6462684  17.4005020   4.7337240  15.3316125  18.0908499   5.1657662
  15.1289625  17.3449802   4.0322740  15.5227154  17.4939909   4.6934189
  14.9875117  27.4009521   0.8474650  14.4586589  27.6169155   1.5071956
  15.5100137  28.0945660   0.7675620  14.9863570  27.5352658   0.9330249
  20.4423170  32.9755825   6.2207695  19.6120874  33.1866469   6.3841111
  20.3932423  32.1492880   5.9449978  20.3129906  32.8845432   6.2045060
   8.5032908  35.8059680   9.0555604   7.9859850  35.4467095   8.4516912
   9.2007299  35.2821854   9.0661670   8.5298489  35.6757368   8.9685863
  12.1596500  36.2554494  15.0171777  12.2479846  36.0680634  15.8649988
  12.5886212  35.6091923  14.6176624  12.2358602  36.1317501  15.0843529
   9.7266960  35.5385654  13.9989439   9.1637795  35.1258263  14.5229101
  10.4887983  35.4638559  14.4182583   9.7561408  35.4663054  14.1382440
  19.9377129  25.6226226  10.0158116  19.1005550  25.6928413  10.2505710
  19.9065360  25.6250721   9.1432418  19.8095411  25.6336453   9.9217664
   6.3341858  27.7659262  15.7306485   6.5062361  27.6565156  16.5791766
   6.8711215  28.4113667  15.4937677   6.4386862  27.8451263  15.8211581
   5.2366430  34.1390902  10.4124983   5.7764655  33.9962033  11.0828355
   4.5536376  34.5387653  10.7809009   5.2158583  34.1770573  10.5659405
  10.6799014  18.8828515   1.7037713  11.4085174  18.7044470   1.2575870
  10.7693907  19.7246595   1.9144892  10.8005676  18.9812394   1.6691231
  14.6607314  29.8181903   5.6070007  15.4164830  30.2513417   5.6458916
  14.7669639  29.1686672   6.1804643  14.7877485  29.7859387   5.6968033
  17.6987486  33.6455180   6.3572410  17.2622717  33.6491922   7.1131382
  17.3650401  34.3260679   5.9251988  17.5850106  33.7467636   6.4053243
  12.2716559  35.6863513  17.6815561  13.0556976  35.7994361  18.0471303
  12.0713154  34.8604650  17.8774247  12.3582585  35.5810232  17.7649947
  17.6184969  20.6869008   8.6001838  18.2610877  20.7567112   9.1863754
  17.8707989  20.0198231   8.0981380  17.7507101  20.5995356   8.6129118
   5.3902181  23.8969571  13.2126412   4.6973978  23.4266551  13.4587144
   6.0062508  23.6707876  13.7868119   5.3786711  23.7936703  13.3335565
  12.4286953  37.5973615  11.3282016  11.6302198  37.3573115  11.5855885
  12.8772964  37.6488008  12.0749064  12.3761564  37.5696006  11.4766941
  20.8331832  30.3636100   5.2492048  21.4948266  29.8026768   5.1487956
  20.1923244  29.8688131   5.5744739  20.8360699  30.2072509   5.2824388
  17.1196663  31.3801482   4.9904036  17.3552252  31.5246681   4.1630887
  17.2686226  32.1443890   5.3835550  17.1762466  31.5140537   4.9267640
   4.1142740  27.8634975  14.3553258   4.8382712  27.8488006  14.8418152
   4.2158877  28.5730330  13.8575226   4.2360949  27.9659678  14.3532044
  18.9487119  30.2203148   2.8273640  19.2795336  30.7530788   2.2213735
  19.5220207  30.2742036   3.4835591  19.0820798  30.3072717   2.8351422
  11.4887689  31.3434060  19.2202205  10.6960670  31.6577572  19.4054824
  11.6036617  31.5585528  18.3822989  11.3883100  31.4217896  19.1240539
  14.1619008  28.0668051   3.5097220  14.2565863  28.8057345   3.9636846
  13.5377852  27.6385526   3.9431785  14.0828038  28.1129371   3.6405368
  12.4171482  31.2454263  14.1587501  12.9910344  30.6081508  14.3136065
  12.3386286  31.2458346  13.2897159  12.4904717  31.1519375  14.0533912
   7.7735201  29.6777529   6.2108699   7.5154445  28.8449263   6.1839998
   7.8283684  29.9035142   5.3701199   7.7434979  29.5875300   6.0828835
  12.8536251  21.7805979   6.3112791  12.1492578  21.2915165   6.4696710
  12.9021225  21.7928454   5.4401236  12.7566303  21.7095627   6.2052131
   6.7469913  27.2315291   6.6973593   6.1719504  27.3907459   7.3337554
   6.3705589  26.5950700   6.2342044   6.6072725  27.1613104   6.7228152
  10.4143202  25.7038640  11.5565972  10.0257634  25.2792858  10.9018163
   9.7497900  25.9520790  12.0642998  10.2590129  25.6777361  11.5353840
  20.0566471  25.4613645   4.3313802  19.8003036  24.6493586   4.1411685
  20.8995785  25.4691212   4.1043989  20.1432496  25.3425642   4.2698619
  14.2369563  19.4013269   9.0689956  14.6180075  18.7191440   9.4557830
  13.4332847  19.1122871   8.8865621  14.1746025  19.2580318   9.0994012
  17.7391630  32.6163241  14.1672354  17.5030267  31.7851306  14.0484415
  18.3834859  32.5648848  14.7527199  17.7986301  32.4860929  14.2358248
   8.1961404  21.9067467  18.9352565   7.8814845  22.6767030  18.6722127
   7.8751336  21.3437723  18.3504791   8.1020323  21.9377736  18.8093914
  18.7628051  32.4007690  10.2300649  18.4573868  33.1335747  10.5913965
  18.0434266  31.9945619   9.9493435  18.6115393  32.4489423  10.2413786
   9.7711520  33.8831185   6.5608877   9.8450528  33.7206357   7.4150727
  10.5881026  34.0721375   6.3169359   9.9027879  33.8867927   6.6506903
  24.4629843  29.0400690   9.5568993  24.3954343  29.0596650   8.6871580
  24.4485505  29.8831018   9.7824664  24.4508599  29.1674425   9.4621470
   5.7493301  20.2957989   4.5498761   4.8815726  20.3680588   4.6156370
   6.0368505  21.0980068   4.7386736   5.6633049  20.4252136   4.5873527
  14.8726189  20.4435848  12.8810083  15.6179781  20.2545659  12.4673508
  14.4563494  20.9694086  12.3223939  14.9211164  20.4937994  12.7374656
  22.2488460  27.8145077   7.8315588  22.7996382  27.1813146   8.0712680
  22.2332576  28.3460469   8.5231092  22.3273657  27.7994025   7.9694446
   8.9010851  31.6483674  12.3775481   8.4022545  32.3599442  12.4560369
   9.7111075  31.9684341  12.3393643   8.9466958  31.8010523  12.3832050
   5.1638969  30.9106627   6.6238202   4.8752217  30.2844098   7.1583929
   6.0322317  30.8526914   6.6902882   5.2499221  30.8094171   6.7129157
  15.9516866  26.0541410   6.9420184  15.6081632  25.3331746   7.2927433
  16.0509909  25.8455262   6.0998542  15.9158909  25.9165614   6.8691864
  16.4129895  32.5167114   2.4844172  16.9787928  33.1760324   2.4002715
  15.7657799  32.8616813   2.9560574  16.4008652  32.6649056   2.5416928
   7.8277909  24.5064718  17.6737779   7.0177685  24.8122498  17.5627622
   8.3052596  25.2270301  17.7890363   7.7781388  24.6579320  17.6744850
   6.6869469  33.7210439   7.9220682   6.1650222  33.8610731   8.6072547
   7.0743489  32.9621104   8.1122800   6.6673169  33.6295963   8.0521759
  14.4707832  23.9732995   8.8179727  13.6318932  23.9994274   8.5817990
  14.5412199  24.6203731   9.3985073  14.3576225  24.0729121   8.8688844
   4.1621941  30.0427269  12.5437182   4.6743038  30.3211522  11.8945941
   3.8758284  30.7816563  12.9099995   4.1956804  30.1929622  12.5027060
  12.9177110  20.8718372   3.5507343  13.6203463  20.6726120   3.0727301
  12.6521299  20.0994315   3.8576186  12.9823742  20.7281338   3.5252784
  18.3465356  29.1800982   6.1040968  18.2599330  29.3356408   6.9575747
  17.8915836  29.8239057   5.7300374  18.2668612  29.2976737   6.1748075
   7.6805666  22.1353657  12.6038223   7.4888863  22.1508792  13.4537647
   8.5304262  22.3317332  12.5804878   7.7781388  22.1668009  12.7261518
   2.0652579  24.6644639  10.5822040   1.9238071  23.8128579  10.7066548
   2.3493143  24.7073299   9.7584246   2.0860425  24.5444389  10.4789664
  12.2191172  26.5011729   4.7266528  11.9725886  26.4207480   5.5603317
  12.5476295  25.7165197   4.5329055  12.2312415  26.3737994   4.8214051
  16.1139220  33.2095088   8.5153309  15.9753580  33.9076134   9.0202052
  15.3339218  33.0543745   8.1589491  15.9782447  33.2895255   8.5379583
  14.4517306  29.5091464  14.7675691  14.4465344  28.6371280  14.7718117
  15.1578299  29.7079633  14.2945147  14.5562310  29.4095338  14.6982726
   8.1788199  29.2368448  14.1389511   8.3231575  29.8169656  13.5032621
   8.5263848  29.6144744  14.8439366   8.2515660  29.3789152  14.1488506
  10.3508116  28.4358616  11.9214643   9.6031430  28.6289630  11.5162921
  10.5049642  27.6103836  11.6838764  10.2630544  28.3423727  11.8260049
   7.2515954  37.4271219  11.0050538   7.4005518  36.8674135  10.3523942
   8.0315956  37.5063221  11.3883057   7.3890048  37.3556785  10.9647487
   9.7769255  37.5985862  12.2835029   9.7012926  36.9294673  12.8385817
   9.7059114  38.3003650  12.7975695   9.7549861  37.6030770  12.4411877
  10.5909893  22.3309167  12.8110046  11.0482507  23.0633141  12.9382839
  10.6666222  21.9075632  13.5697302  10.6700863  22.3766405  12.9411123
   2.8342885  22.5774986  13.8999490   2.2985074  21.9655345  14.2160257
   2.8960649  23.1523122  14.5533157   2.7638517  22.5721914  14.0434917
  15.0637219  15.5099042   6.6803889  15.1820787  15.9675505   5.9471192
  14.8899395  14.7044303   6.3940107  15.0556390  15.4592814   6.5304823
   8.4692271  24.3211271   9.6551870   7.6788346  24.1402731   9.9769206
   8.8652894  23.5438223   9.6382165   8.4109147  24.1798732   9.7004419
  13.8535958  31.9553701   7.3811316  13.1780959  31.7238933   7.8824703
  13.8628334  31.3474884   6.7553421  13.7554462  31.8312626   7.3627469
  10.9830102  26.7971530  14.1375369  10.9189243  27.6581486  14.0095506
  11.1227289  26.4803523  13.3370921  10.9945572  26.8771696  14.0003582
   9.6649195  29.4903669   8.2791572   9.2411445  29.6908168   7.5430591
   9.4894051  28.6432517   8.3915872   9.5760076  29.3952451   8.1865262
  11.4910785  29.3613604   2.5812908  12.0326330  28.8583985   3.0451529
  11.8057344  29.3078799   1.7702393  11.6175182  29.2793025   2.5296720
  15.3627892  33.5716251  19.6939820  16.1762758  33.3001400  19.8544953
  15.2022859  33.2723791  18.8900016  15.4597841  33.4871177  19.5985226
  12.6400054  24.2549909  12.6335208  12.8542024  23.6160823  12.0798562
  12.0233954  24.6995732  12.2043070  12.5805384  24.2260052  12.4885640
  14.0504722  37.1768657   4.0789429  13.6584514  36.8735372   3.3612295
  14.2057795  38.0137747   3.8894383  14.0158312  37.2552494   3.9445926
  14.8039142  25.8638974  13.5718516  13.9915824  25.5564864  13.6531688
  15.2629077  25.3837974  14.1361228  14.7519527  25.7475466  13.6673110
  14.2144397  33.7418646   4.0195460  13.8559052  33.9133289   4.7959492
  13.7283108  34.2031851   3.4623458  14.0903094  33.8357617   4.0520729
  12.0314783  17.3649844   7.6222551  11.1608341  17.3388565   7.5755861
  12.2855124  17.1927036   6.8048397  11.9408343  17.3359988   7.4942688
  11.8992650  27.2699045  18.3547218  12.3692281  27.8941162  18.7415092
  11.9454530  26.6016021  18.9140433  11.9760526  27.2633725  18.4947289
   9.0563924  19.3756073   9.0796022   8.5402412  18.6836264   9.2047601
   8.4957852  20.0426850   9.0258620   8.8970437  19.3719330   9.0902088
  11.1256157  19.9149033  10.9088874  10.7387910  19.9398064  11.6902404
  10.6389094  19.3490711  10.4563391  10.9968666  19.8344784  10.9576778
  15.3749136  34.6322542  14.9662661  16.0128857  34.1382737  14.6325117
  14.7323228  34.5599942  14.3814888  15.3743363  34.5481550  14.8305016
  17.1006137  26.4811688   9.5328576  16.6733745  26.3938036   8.7776676
  16.4632189  26.5889463  10.1183420  16.9435744  26.4844348   9.5074018
  10.7913299  16.8016018  13.1999134  11.4206417  17.3376318  12.9220204
  10.9599161  16.7093377  14.0512700  10.9091093  16.8677380  13.2847662
  10.5927214  21.5887213  15.4725546  11.4200643  21.3172362  15.5284160
  10.6135060  22.3848055  15.8289364  10.7180064  21.6666967  15.5340729
  15.4303393  35.3242350  11.6068018  16.2195771  34.9731415  11.7270099
  15.6046991  36.1378738  11.3444651  15.5723675  35.3928207  11.5855885
   5.1696703  28.7351076   8.6595806   4.3284710  28.6354950   8.8674700
   5.3786711  29.5046556   9.0110127   5.0761396  28.8343119   8.7423121
  14.2837217  19.3351907   6.1684436  14.4886811  19.2674215   7.0141433
  13.9563641  20.1410728   6.1005613  14.2652465  19.4437847   6.2844091
   8.9813368  26.6632475   7.9093404   8.6776506  26.1088463   8.5103812
   8.2792789  26.8424685   7.4221438   8.8329578  26.6077257   7.9263110
   8.0379465  23.9732995   2.4738106   8.3139200  23.2551907   2.0615673
   8.6378135  24.5717915   2.2659212   8.1672730  23.9553365   2.3818867
   7.0431719  33.8782196  12.6165502   6.9352074  33.8884258  13.4827560
   7.2527501  34.7036976  12.4270455   7.0581830  34.0023270  12.7169593
  17.5370905  19.8883671   5.6487201  16.9245219  20.3754073   6.0340933
  17.6335080  19.2127162   6.1924853  17.4608803  19.8601980   5.7866060
  11.5389986  21.6446512   0.7484701  11.9933732  21.8157072   1.4732545
  12.0130032  21.0314623   0.3482476  11.6758306  21.5797397   0.7958462
   5.0605511  31.1294838  10.0787439   4.4693445  31.7704336  10.0490454
   5.8226535  31.5532455  10.0518739   5.0853772  31.2870676  10.0702586
   5.4566134  22.2896836  10.7455457   5.9167616  22.3635765  11.4830581
   5.5022241  23.0878090  10.3955278   5.5316689  22.4190983  10.8028213
   7.1049484  22.9563531  15.3127484   6.7135049  22.3096878  15.7483262
   7.2735347  23.5474966  15.9321739   7.0720394  22.9477799  15.4690190
  21.1795933  30.9600608  11.0764717  21.2379057  31.4087256  11.8224694
  20.5462400  31.3699421  10.6394797  21.0947228  31.0874342  11.1217266
  14.8195028  36.5804150   7.5119464  14.6214716  37.0694964   6.8175675
  14.1982739  36.7845391   8.0903597  14.6982592  36.6820688   7.4942687
   8.8803006  28.3489046   1.8529708   9.6245051  28.7363323   2.0912658
   9.0263702  27.5046472   2.0170196   9.0113591  28.2819519   1.9123678
  10.7982581  20.1439305   6.8861569   9.9518626  20.3162113   6.7602919
  10.7953714  19.3388649   7.2227398  10.6729731  20.0500334   6.9172696
  11.8680882  23.9214520   7.7523627  11.3940836  23.3956282   8.2628938
  12.2399018  23.3743993   7.1838489  11.8530771  23.7630516   7.7438774
   2.2453912  25.9186026  13.1207173   3.1079525  25.8181736  13.0344503
   1.9145695  25.3380736  12.5592745   2.3239108  25.8177653  13.0252579
  18.1317612  28.9816895   9.1630408  17.8915835  28.1423311   9.1672834
  18.6109620  29.0617062   9.8871181  18.1669796  28.8698295   9.2705210
  13.7964381  24.8151074   0.8149381  13.2687400  24.8979818   0.1255090
  14.2560090  25.5568946   0.8114026  13.7866232  24.9371737   0.7124076
  20.1322799  25.7618353   7.1159667  19.8932569  25.7214187   6.2780452
  20.2956701  26.6089505   7.2425388  20.1213103  25.8810438   7.0113149
  16.7368829  30.1468302  13.0464712  17.4603028  29.6940828  12.8675732
  16.4718792  30.4272968  12.2637040  16.8050103  30.1219270  12.9043427
   5.6055698  24.7428475   9.7817591   4.9808768  24.7546867   9.1743544
   5.2701293  25.2188651  10.4308831   5.4641190  24.8146992   9.7874160
   2.3181373  32.8028936  11.2221356   1.7881298  32.1121374  11.2716330
   2.5906467  32.7939121  10.3934064   2.2806096  32.6996067  11.1068772
  12.5187619  30.2452180  11.1959727  11.9044612  29.7010230  11.4908362
  13.0354904  29.7316417  10.7165543  12.5043281  30.0888589  11.1683956
  11.7583916  31.3156450   8.9304026  11.3311524  30.6906169   8.4969461
  11.7508861  31.0331372   9.7563033  11.6943057  31.1809231   8.9883853
   4.8746443  26.3521623  11.9992460   5.0339930  25.5964947  12.4044182
   4.6939337  26.9012563  12.6533197   4.8711802  26.3215437  12.1555166
  12.8166746  18.5182859  12.5543249  12.3207307  18.7146533  11.8634816
  13.5735808  18.9175527  12.3832051  12.8553571  18.6060593  12.4263386
  10.0869626  22.1925205   9.1446560  10.1112113  21.6585317   8.4559340
  10.3381099  21.6842514   9.8072150  10.1279545  22.0386109   9.1411204
   6.3670948  20.9196023   8.5252304   6.4069320  21.4205230   9.2387011
   5.5420613  21.0106417   8.2558227   6.2510474  21.0077839   8.5902842
   8.5500561  30.4856763  16.6272599   7.6996191  30.6228477  16.7630244
   8.7128689  29.7520541  17.0720300   8.4484424  30.3970864  16.7128198
   7.7885311  27.4356533  10.8226203   6.9577241  27.6030351  10.6161451
   7.7336829  27.0592484  11.6075088   7.6574726  27.4046264  10.9074731
   5.5969095  20.9265426  16.4582614   6.2221798  20.3827559  16.7312046
   5.1419575  20.4460343  15.8890404   5.6217355  20.7754907  16.4144208
  19.1704143  29.1094713  11.5495262  19.7621984  29.7491963  11.5813460
  19.6063138  28.4117749  11.8387329  19.3222575  29.1013063  11.5976094
  10.9997533  33.5312085  12.1753156  10.4922624  34.0847932  12.6193786
  10.7024179  33.5920375  11.3571930  10.8802418  33.6218396  12.1201612
  13.1659716  21.8965405  11.0177819  13.5914787  21.4437931  10.4061345
  12.5516709  21.3425475  11.2942606  13.1388361  21.7479381  10.9682844
  11.6053938  18.3680505   4.4268396  10.9622256  18.2178151   4.9953534
  11.2653345  18.1222850   3.6617500  11.4599016  18.3092627   4.3971411
  16.1953285  26.3239931   3.8498404  15.5244475  26.8669634   3.7211470
  16.8893035  26.7934787   3.6080099  16.1982152  26.4738203   3.7953932
  10.2440019  38.4636643   9.0810163  10.0205673  37.7055473   9.4494189
   9.7549862  38.4934665   8.3590602  10.1383468  38.3558868   9.0286904
  16.3581412  22.7795815   6.7588778  16.7109022  22.3525538   7.4334576
  15.4996214  22.6946659   6.8889854  16.2830857  22.7040556   6.8783788
   5.0565097  25.4103335   4.8171624   4.3377086  25.8267467   5.0844488
   5.4277460  25.9757573   4.2663262   5.0057029  25.5552616   4.7754431
  14.3564678  26.0431184  10.7073620  14.3362605  25.8614479  11.5608399
  14.4043879  26.9143202  10.6833203  14.3599319  26.1447722  10.8296915
  12.3011008  32.6318376  16.6322096  12.2606863  31.9868053  16.0467252
  13.1134326  32.5754993  16.9447508  12.4154161  32.5277342  16.5919045
  12.2583770  37.8427187   7.2870864  11.8600053  37.9529457   6.5191684
  11.6434989  38.0509253   7.8697424  12.1082659  37.8900755   7.2602163
  10.8311672  24.4501335   0.1545004  10.2376511  24.7718331  -0.3970429
  10.8686949  23.6042430  -0.0533890  10.7486061  24.3725663   0.0427775
  17.7905472  17.9014227   7.6873090  17.2836337  17.1943366   7.6194268
  18.5872906  17.5707416   7.8174167  17.8332712  17.7487378   7.6972085
  13.7069488  24.4080839   3.5846754  13.4783181  24.4313541   2.7425112
  13.9667564  23.5838306   3.7041764  13.7115676  24.2896919   3.4771951
   7.9888717  26.2615312  13.1871854   7.4767620  25.6536495  13.5456885
   7.8168213  26.9771905  13.6545830   7.8878354  26.2778611  13.3088078
   2.8354431  24.7052887  15.8374216   2.6657022  25.3654262  15.2922422
   2.3920381  24.9159449  16.5586705   2.7453765  24.8338870  15.8635845
   6.7614251  22.9457385   4.8800949   7.2371617  23.3074465   4.2451131
   6.2602850  23.6013853   5.1601092   6.7579610  23.0951574   4.8277690
  11.8657787  24.1839557  15.6274110  12.4229217  23.9553366  14.9952575
  11.5418852  24.9445222  15.3509322  11.9004197  24.2623393  15.4930607
   9.5840904  27.2707210  16.5926117  10.3352231  27.5858887  16.9065671
   9.7763481  27.0686381  15.7660038   9.7232318  27.2874592  16.5169512
  16.4326194  23.3980776   3.8349912  16.4320421  23.2429433   4.6934188
  16.2282374  24.2443763   3.7791298  16.4025972  23.5001397   3.9537851
  14.1567046  28.0778278   7.4886119  14.6520712  27.3601273   7.4490139
  13.3466822  27.7749076   7.3740606  14.1110940  27.9275924   7.4659845
  16.2218865  30.8281966  10.1763248  16.6473937  30.3056388   9.6233673
  15.8575785  31.4262803   9.6551871  16.2305468  30.8392193  10.0172257
  12.8097465  34.5416230   6.5064405  13.2808643  35.2556493   6.6754390
  13.1457643  33.9414980   7.0424275  12.9292580  34.5587694   6.6096781
  14.8974449  36.1517543  18.6856477  15.0071415  35.3626104  19.0413224
  15.2265346  36.0623479  17.8830815  14.9626855  36.0223396  18.6198868
   9.7266960  19.3143701  13.4622500   9.8594865  18.5174694  13.7903476
  10.1112112  19.8410104  14.0420776   9.8023289  19.2743617  13.5966003
  13.4471411  34.3334164  13.2692098  12.8992357  33.7092048  13.0012163
  13.9084440  34.5228436  12.5536177  13.4338621  34.2693214  13.1242529
  12.7999315  16.2374027  10.0603593  11.9945279  16.1271756  10.3771432
  12.6706050  16.3386482   9.2033459  12.6619448  16.2357697   9.9811634
  16.2565275  22.4019519  10.6543290  15.6728264  22.9028725  10.2420857
  16.5769570  21.8949075  10.0207613  16.2178451  22.4011354  10.5001797
   7.3855406  19.3102876  11.7100394   7.9299819  18.9694002  12.3004735
   7.4392342  20.1688337  11.8521678   7.4744526  19.3858135  11.8182267
  13.0129737  35.3385237   9.8001439  13.8328111  35.1948203  10.0617734
  12.7323815  35.9631436  10.3417877  13.0926481  35.4095589   9.9189378
  19.4118859  36.9304805   6.4887629  19.0822190  37.3815949   5.8191328
  18.7363861  36.8520968   7.0360635  19.2629296  36.9855940   6.4710852
  28.5917552  36.2054316   8.6001838  29.2343461  36.2752420   9.1863754
  28.8440573  35.5383539   8.0981380  28.7239684  36.1180664   8.6129118
  16.3634765  39.4154879  13.2126412  15.6706561  38.9451859  13.4587144
  16.9795092  39.1893184  13.7868119  16.3519295  39.3122011  13.3335565
  21.3875785  41.2223948  11.5565972  20.9990218  40.7978166  10.9018163
  20.7230484  41.4706098  12.0642998  21.2322713  41.1962669  11.5353840
  25.2102147  34.9198577   9.0689956  25.5912659  34.2376748   9.4557830
  24.4065431  34.6308179   8.8865621  25.1478608  34.7765626   9.0994012
  19.1693987  37.4252775  18.9352565  18.8547428  38.1952338  18.6722127
  18.8483920  36.8623031  18.3504791  19.0752906  37.4563044  18.8093914
  16.7225884  35.8143297   4.5498761  15.8548310  35.8865896   4.6156370
  17.0101088  36.6165376   4.7386736  16.6365632  35.9437444   4.5873527
  25.8458773  35.9621156  12.8810083  26.5912365  35.7730967  12.4673508
  25.4296077  36.4879394  12.3223939  25.8943747  36.0123302  12.7374656
  18.8010493  40.0250026  17.6737779  17.9910268  40.3307806  17.5627622
  19.2785179  40.7455609  17.7890363  18.7513971  40.1764627  17.6744850
  25.4440415  39.4918303   8.8179727  24.6051516  39.5179582   8.5817990
  25.5144783  40.1389038   9.3985073  25.3308809  39.5914429   8.8688844
  18.6538250  37.6538965  12.6038223  18.4621447  37.6694100  13.4537647
  19.5036846  37.8502640  12.5804878  18.7513972  37.6853316  12.7261518
  21.5642477  37.8494475  12.8110046  22.0215091  38.5818449  12.9382839
  21.6398806  37.4260940  13.5697302  21.6433447  37.8951713  12.9411123
  13.8075468  38.0960294  13.8999490  13.2717658  37.4840652  14.2160257
  13.8693233  38.6708430  14.5533157  13.7371101  38.0907222  14.0434917
  26.0369803  31.0284350   6.6803889  26.1553371  31.4860813   5.9471192
  25.8631979  30.2229611   6.3940107  26.0288974  30.9778122   6.5304823
  19.4424855  39.8396579   9.6551870  18.6520930  39.6588039   9.9769206
  19.8385478  39.0623531   9.6382165  19.3841731  39.6984039   9.7004419
  23.6132638  39.7735217  12.6335208  23.8274608  39.1346131  12.0798562
  22.9966537  40.2181040  12.2043070  23.5537967  39.7445360  12.4885640
  25.7771726  41.3824282  13.5718516  24.9648408  41.0750172  13.6531688
  26.2361661  40.9023282  14.1361228  25.7252111  41.2660774  13.6673110
  23.0047367  32.8835152   7.6222551  22.1340925  32.8573873   7.5755861
  23.2587708  32.7112344   6.8048397  22.9140927  32.8545296   7.4942688
  20.0296507  34.8941381   9.0796022  19.5134996  34.2021572   9.2047601
  19.4690436  35.5612158   9.0258620  19.8703020  34.8904638   9.0902088
  22.0988741  35.4334341  10.9088874  21.7120494  35.4583372  11.6902404
  21.6121678  34.8676019  10.4563391  21.9701249  35.3530092  10.9576778
  21.7645882  32.3201326  13.1999134  22.3939000  32.8561626  12.9220204
  21.9331745  32.2278685  14.0512700  21.8823677  32.3862688  13.2847662
  21.5659797  37.1072521  15.4725546  22.3933227  36.8357670  15.5284160
  21.5867643  37.9033363  15.8289364  21.6912647  37.1852275  15.5340729
  25.2569801  34.8537215   6.1684436  25.4619394  34.7859522   7.0141433
  24.9296225  35.6596036   6.1005613  25.2385049  34.9623155   6.2844091
  16.4298718  37.8082144  10.7455457  16.8900199  37.8821073  11.4830581
  16.4754824  38.6063398  10.3955278  16.5049273  37.9376291  10.8028213
  18.0782067  38.4748839  15.3127484  17.6867633  37.8282186  15.7483262
  18.2467930  39.0660274  15.9321739  18.0452978  38.4663106  15.4690190
  21.7715165  35.6624613   6.8861569  20.9251210  35.8347421   6.7602919
  21.7686297  34.8573957   7.2227398  21.6462315  35.5685642   6.9172696
  22.8413465  39.4399828   7.7523627  22.3673420  38.9141590   8.2628938
  23.2131601  38.8929301   7.1838489  22.8263354  39.2815824   7.7438774
  16.5788281  40.2613783   9.7817591  15.9541352  40.2732175   9.1743544
  16.2433876  40.7373958  10.4308831  16.4373773  40.3332300   9.7874160
  23.7899330  34.0368167  12.5543249  23.2939891  34.2331841  11.8634816
  24.5468392  34.4360835  12.3832051  23.8286155  34.1245901  12.4263386
  21.0602209  37.7110513   9.1446560  21.0844697  37.1770625   8.4559340
  21.3113683  37.2027821   9.8072150  21.1012128  37.5571417   9.1411204
  17.3403532  36.4381331   8.5252304  17.3801903  36.9390537   9.2387011
  16.5153196  36.5291725   8.2558227  17.2243058  36.5263147   8.5902842
  16.5701678  36.4450734  16.4582614  17.1954382  35.9012866  16.7312046
  16.1152158  35.9645651  15.8890404  16.5949939  36.2940215  16.4144208
  24.1392299  37.4150713  11.0177819  24.5647371  36.9623239  10.4061345
  23.5249292  36.8610783  11.2942606  24.1120944  37.2664689  10.9682844
  22.5786522  33.8865812   4.4268396  21.9354840  33.7363459   4.9953534
  22.2385929  33.6408158   3.6617500  22.4331599  33.8277935   4.3971411
  25.3297262  41.5616491  10.7073620  25.3095189  41.3799787  11.5608399
  25.3776462  42.4328510  10.6833203  25.3331903  41.6633030  10.8296915
  28.7638056  33.4199535   7.6873090  28.2568921  32.7128674   7.6194268
  29.5605490  33.0892724   7.8174167  28.8065295  33.2672686   7.6972085
  22.8390371  39.7024865  15.6274110  23.3961801  39.4738674  14.9952575
  22.5151436  40.4630530  15.3509322  22.8736781  39.7808701  15.4930607
  20.6999543  34.8329008  13.4622500  20.8327449  34.0360002  13.7903476
  21.0844696  35.3595411  14.0420776  20.7755872  34.7928925  13.5966003
  23.7731898  31.7559335  10.0603593  22.9677862  31.6457064  10.3771432
  23.6438634  31.8571790   9.2033459  23.6352031  31.7543005   9.9811634
  27.2297859  37.9204826  10.6543290  26.6460848  38.4214033  10.2420857
  27.5502153  37.4134383  10.0207613  27.1911034  37.9196661  10.5001797
  18.3587990  34.8288184  11.7100394  18.9032403  34.4879310  12.3004735
  18.4124926  35.6873645  11.8521678  18.4477109  34.9043443  11.8182267
  15.0578716  10.5094383   6.6279867  15.8713582  10.2379531   6.7884999
  14.8973683  10.2101923   5.8240063  15.1548665  10.4249309   6.5325273
  14.5925273  13.0895674   5.6196524  14.7022239  12.3004235   5.9753271
  14.9216170  13.0001611   4.8170862  14.6577679  12.9601527   5.5538915
  25.6887613  25.2890396   4.0597749  26.3954380  24.7942427   4.1884683
  25.8775549  25.7299478   3.3300407  25.8215519  25.2808747   3.9706794
  22.8279907  28.7117933   1.9511824  22.9163253  28.5244073   2.7990034
  23.2569620  28.0655362   1.5516671  22.9042010  28.5880941   2.0183575
  20.3950367  27.9949093   0.9329486  19.8321202  27.5821703   1.4569147
  21.1571391  27.9201998   1.3522629  20.4244816  27.9226493   1.0722487
  17.0025265  20.2222701   2.6646531  17.1745769  20.1128596   3.5131813
  17.5394623  20.8677106   2.4277724  17.1070269  20.3014703   2.7551628
  15.9049837  26.5954341  -2.6534970  16.4448062  26.4525472  -1.9831598
  15.2219783  26.9951092  -2.2850944  15.8841991  26.6334012  -2.5000548
  22.9399967  28.1426952   4.6155608  23.7240383  28.2557800   4.9811350
  22.7396561  27.3168089   4.8114293  23.0265992  28.0373671   4.6989994
  14.7826148  20.3198414   1.2893304  15.5066120  20.3051445   1.7758199
  14.8842284  21.0293769   0.7915273  14.9044357  20.4223117   1.2872091
  22.1571097  23.7997499   6.1542251  21.3644078  24.1141011   6.3394871
  22.2720024  24.0148967   5.3163036  22.0566507  23.8781336   6.0580586
  23.0854890  23.7017703   1.0927548  23.6593751  23.0644947   1.2476112
  23.0069693  23.7021785   0.2237206  23.1588125  23.6082814   0.9873959
  18.8644811  14.3630906   5.8692611  18.5498252  15.1330469   5.6062174
  18.5434744  13.8001162   5.2844838  18.7703730  14.3941175   5.7433961
  25.5409597  12.8999287  -0.1849871  26.2863189  12.7109098  -0.5986445
  25.1246901  13.4257525  -0.7436014  25.5894571  12.9501433  -0.3285297
  19.5694259  24.1047113  -0.6884472  19.0705952  24.8162881  -0.6099584
  20.3794483  24.4247780  -0.7266310  19.6150365  24.2573962  -0.6827904
  18.4961317  16.9628157   4.6077826  17.6861092  17.2685937   4.4967668
  18.9736003  17.6833740   4.7230410  18.4464795  17.1142759   4.6084897
  14.8305348  22.4990708  -0.5222772  15.3426445  22.7774961  -1.1714012
  14.5441691  23.2380002  -0.1559958  14.8640212  22.6493062  -0.5632893
  25.1200713  21.9654903   1.7015738  25.1148752  21.0934719   1.7058164
  25.8261707  22.1643072   1.2285193  25.2245717  21.8658777   1.6322773
  18.8471606  21.6931887   1.0729558  18.9914982  22.2733095   0.4372668
  19.1947255  22.0708183   1.7779412  18.9199068  21.8352591   1.0828553
  21.0191524  20.8922055  -1.1445311  20.2714838  21.0853069  -1.5497032
  21.1733049  20.0667275  -1.3821189  20.9313951  20.7987166  -1.2399905
  21.2593301  14.7872606  -0.2549907  21.7165915  15.5196580  -0.1277115
  21.3349630  14.3639071   0.5037349  21.3384271  14.8329844  -0.1248830
  21.6513509  19.2534969   1.0715416  21.5872650  20.1144925   0.9435553
  21.7910697  18.9366962   0.2710967  21.6628979  19.3335135   0.9343629
  26.0311300  26.0279691   6.6279867  26.8446165  25.7564839   6.7884999
  25.8706266  25.7287230   5.8240063  26.1281248  25.9434617   6.5325273
  23.3083462  16.7113348  -0.4324745  23.5225431  16.0724262  -0.9861391
  22.6917361  17.1559172  -0.8616883  23.2488791  16.6823491  -0.5774314
  25.4722550  18.3202413   0.5058562  24.6599232  18.0128303   0.5871735
  25.9312485  17.8401413   1.0701275  25.4202935  18.2038905   0.6013157
  22.5676057  19.7262484   5.2887265  23.0375689  20.3504601   5.6755139
  22.6137938  19.0579460   5.8480479  22.6443933  19.7197165   5.4287336
  26.0432544  27.0885981   1.9002708  26.6812264  26.5946176   1.5665164
  25.4006636  27.0163381   1.3154934  26.0426770  27.0044989   1.7645063
  21.2610621  14.0450652   2.4065593  22.0884050  13.7735801   2.4624207
  21.2818467  14.8411494   2.7629411  21.3863471  14.1230406   2.4680775
  17.7115127  26.3345635  -0.4494452  17.6035482  26.3447697   0.4167607
  17.9210908  27.1600415  -0.6389498  17.7265238  26.4586710  -0.3490360
  15.7288919  23.5858277  -2.9872514  15.1376852  24.2267775  -3.0169499
  16.4909942  24.0095894  -3.0141214  15.7537179  23.7434116  -2.9957367
  17.7732891  15.4126970   2.2467531  17.3818457  14.7660317   2.6823309
  17.9418754  16.0038405   2.8661786  17.7403802  15.4041238   2.4030237
  12.9864781  25.2592375  -1.8438598  12.4564705  24.5684814  -1.7943623
  13.2589874  25.2502560  -2.6725889  12.9489503  25.1559506  -1.9591182
  23.1871026  22.7015619  -1.8700226  22.5728020  22.1573670  -1.5751591
  23.7038311  22.1879856  -2.3494410  23.1726689  22.5452028  -1.8975998
  19.2183968  22.9420202   3.5612645  18.3679599  23.0791916   3.6970290
  19.3812096  22.2083980   4.0060347  19.1167832  22.8534303   3.6468245
  16.2652502  13.3828865   3.3922661  16.8905206  12.8390998   3.6652093
  15.8102982  12.9023782   2.8230451  16.2900763  13.2318346   3.3484254
  25.0248086  18.4994623  -2.3586333  25.0046013  18.3177918  -1.5051555
  25.0727286  19.3706641  -2.3826750  25.0282727  18.6011161  -2.2363039
  22.9694415  25.0881815   3.5662143  22.9290270  24.4431492   2.9807299
  23.7817734  25.0318432   3.8787555  23.0837569  24.9840782   3.5259092
  18.6572124  18.7178751   0.1211901  18.1451027  18.1099934   0.4796932
  18.4851620  19.4335344   0.5885877  18.5561761  18.7342051   0.2428124
  13.5037839  17.1616327   2.7714263  13.3340429  17.8217701   2.2262469
  13.0603789  17.3722888   3.4926752  13.4137172  17.2902309   2.7975892
  22.5341195  16.6402996   2.5614156  23.0912625  16.4116805   1.9292622
  22.2102260  17.4008661   2.2849369  22.5687605  16.7186833   2.4270653
  20.2524312  19.7270649   3.5266163  21.0035639  20.0422326   3.8405718
  20.4446888  19.5249820   2.7000085  20.3915726  19.7438031   3.4509559
  25.5657857  28.6080982   5.6196524  25.6754822  27.8189543   5.9753271
  25.8948753  28.5186919   4.8170862  25.6310263  28.4786835   5.5538915
  29.8377395  29.8816214   5.8692611  29.5230836  30.6515777   5.6062174
  29.5167327  29.3186470   5.2844838  29.7436314  29.9126483   5.7433961
  27.2385086  28.9014173   3.3922661  27.8637789  28.3576306   3.6652093
  26.7835566  28.4209090   2.8230451  27.2633346  28.7503654   3.3484254
  41.7360453  41.7360453  41.7360453 109.4712190 109.4712190 109.4712190
