ACE
  6486
  23.2176835  18.8150035  13.5759187  22.4978198  18.9573545  14.3819166
  21.7543688  18.1608616  14.3506447  22.0025789  19.9208548  14.2614896
  23.1872464  18.9293008  15.7474949  24.4020515  18.7621380  15.8296239
  22.4040465  19.0938842  16.8160150  21.4100191  19.2280784  16.6976902
  22.9361632  19.0871107  18.1637569  23.4181188  18.1293174  18.3598433
  23.9638117  20.1977096  18.3538441  23.4937545  21.1637726  18.1698100
  24.3462671  20.1688031  19.3741346  24.7869737  20.0554883  17.6536466
  21.8315645  19.2948743  19.1900025  20.6654895  19.4411069  18.8303843
  22.2018915  19.3076135  20.4725471  23.5922420  19.1319104  20.8748128
  24.1243150  20.0771456  20.7674395  24.0613057  18.3777170  20.2429342
  23.4821613  18.6920294  22.3046332  24.2848657  19.1524863  22.8806055
  23.5661767  17.6071348  22.3682436  22.1261557  19.1563852  22.7797357
  22.2482054  20.0417592  23.4036875  21.6591203  18.3629274  23.3631757
  21.2436155  19.4971083  21.5454866  20.4916816  18.7080232  21.5516936
  20.5567379  20.8505581  21.4320970  20.7949314  21.5933206  20.4823560
  19.7011357  21.1701129  22.4057780  19.5382322  20.5259434  23.1664405
  18.9843123  22.4293673  22.4124582  19.6971353  23.2536987  22.4339147
  18.1123839  22.5713403  21.1693939  17.3873740  21.7580033  21.1386734
  17.5862120  23.5254056  21.2010617  18.7394639  22.5322311  20.2786973
  18.0785571  22.5377857  23.6307919  18.0256882  21.6249167  24.4519590
  17.3639781  23.6594892  23.7464769  17.4413679  24.3821499  23.0451412
  16.4651146  23.8832640  24.8607351  16.4904857  23.0213272  25.5274599
  16.7770513  24.7735957  25.4067255  15.4506809  24.0234390  24.4874051
  12.9593062   9.5388521  34.9318241  13.7266047   9.5988646  34.5224093
  12.5124371   8.9668962  34.4474560  13.0066489   9.4625096  34.7995952
  29.4878287  19.3839564  42.6003973  29.4572292  20.2384201  42.7722242
  30.0859636  19.0834857  43.1590116  29.5715445  19.4656061  42.7078775
  17.0719112  28.0077933  43.1194135  16.3202012  27.6293471  42.8910180
  17.5205124  28.0396367  42.3712945  17.0268779  27.9563540  42.9751637
  22.5244072  28.4303303  38.5479682  22.1895440  29.1080224  38.1123904
  23.0370942  28.0408614  37.9596553  22.5509653  28.4727881  38.3966473
  27.3094862  21.9591866  40.8722282  27.1934388  22.7099552  41.3014421
  28.1050749  21.7015819  41.1218370  27.4099451  22.0326713  40.9726374
  19.1925187  25.9485889  42.1591625  19.5141029  26.4891097  41.5552933
  19.8397284  25.3782661  42.2913915  19.3351243  25.9445064  42.0898660
  21.2426896  17.9501884  42.2426012  21.9407060  18.1290012  42.7347475
  21.5579228  17.4272223  41.6196401  21.3922233  17.8995656  42.2228022
  21.4314831  24.3372329  42.2305803  21.8708466  23.7289430  42.6760576
  21.2819494  23.9579703  41.4591268  21.4736297  24.1910800  42.1824970
  25.0324167  22.6899510  39.1836572  24.9475463  23.5460477  39.3286141
  25.5208551  22.4143835  39.8518731  25.0913065  22.7756832  39.3038654
  25.9642601  19.3084305  40.6834307  25.4354072  19.5243938  41.3431614
  26.4867621  20.0020443  40.6035277  25.9631054  19.4427442  40.7689907
  17.8542208  23.2047521  39.4841775  17.2699424  23.7097553  39.8907639
  17.4512304  22.9789908  38.7438367  17.7081512  23.2455770  39.4346801
  22.3119423  19.4513173  37.9610696  22.5515427  19.6591157  37.1486039
  22.6335264  18.6470682  38.0699641  22.3956581  19.3627275  37.8571249
  15.9766778  13.7876888  38.5048347  15.7942351  14.0048769  37.6789340
  16.8392391  13.9015901  38.5606961  16.0771367  13.8366786  38.3902834
  15.5228805  17.0651061  37.0170820  14.8086982  16.7789240  37.4293252
  16.0072774  17.4047687  37.6577207  15.4888168  17.0732711  37.1726455
  22.6976123  25.5681015  37.3932628  23.1127271  25.2366039  36.7017124
  21.8668052  25.3349917  37.2652765  22.6364132  25.4852271  37.2723476
  25.1386492  19.9742834  43.3456878  25.2333346  20.7132129  43.7996503
  24.5145335  19.5460310  43.7791442  25.0595522  20.0204155  43.4765025
  25.3909513  21.8191574  36.5793830  25.3089675  21.8893761  37.4448817
  26.0289233  22.3821318  36.3877570  25.4729350  21.9130545  36.6783779
  22.4949623  21.8412029  39.5902436  23.3090262  22.1326921  39.4785207
  22.4308764  21.1871891  39.0160729  22.6052362  21.7877223  39.4891273
  19.0060346  20.5335836  39.0549638  19.3905499  20.3143542  39.8066183
  18.7571967  21.3598781  39.1850714  19.0262419  20.6233982  39.1850714
  14.5084760  26.1363831  43.4262978  13.6822878  26.3825569  43.2997257
  14.5696751  26.0575912  44.2925036  14.3958927  26.1608780  43.5351922
  19.2883589  28.7540712  41.1282008  19.5781887  28.3629693  40.4041234
  20.0187070  28.9357417  41.5687283  19.4390473  28.7234525  41.0864815
  16.3438725  24.4576662  42.3840224  17.0984693  24.8389701  42.5975687
  15.7509338  24.9087805  42.8386921  16.3675439  24.5805489  42.4823103
  19.0903277  22.6589242  43.1561831  18.8946060  23.2663977  42.5622134
  19.3137623  21.9657186  42.6753505  19.0937918  22.6466768  42.9977912
  17.4881807  19.5443980  43.2742699  18.2104459  19.7085138  42.8146505
  17.0089800  20.2653645  43.1682039  17.5245538  19.6742210  43.1908313
  23.1958655  18.4086513  44.5626185  22.9493369  18.3282264  45.3962974
  23.5243778  17.6239980  44.3688713  23.2079898  18.2812778  44.6573708
  28.5860077  24.4748126  39.1129466  28.2066885  23.6885264  39.1058755
  27.9226322  25.0234983  38.9701110  28.4318551  24.4392950  39.0910263
  23.9325645  25.0573829  34.9318241  24.6998630  25.1173953  34.5224093
  23.4856954  24.4854270  34.4474560  23.9799073  24.9810404  34.7995952
  15.9299124  21.8930504  43.5479202  16.0863743  21.8277307  44.4035194
  16.2699717  22.6679057  43.3357882  16.0032358  21.9979702  43.6433796
  22.4678268  21.2688388  42.4172565  23.0093814  20.7658769  42.8811186
  22.7824827  21.2153582  41.6062050  22.5942665  21.1867809  42.3656377
  20.6364718  26.6605739  39.7012593  20.7057538  25.8020278  39.8405594
  21.4153173  26.8777620  39.3731618  20.7617568  26.5658603  39.6729751
  19.9800246  21.3292595  36.3955352  20.2692771  22.1057477  36.6698926
  20.0672045  20.8181326  37.0969851  20.0354502  21.3684513  36.5397849
  19.0146949  15.8807778  42.3097763  19.2906683  15.1626691  41.8975331
  19.6145618  16.4792698  42.1018869  19.1440213  15.8628149  42.2178524
  22.5157469  13.5521296  40.5844358  22.9701216  13.7231856  41.3092203
  22.9897515  12.9389406  40.1842134  22.6525789  13.4872181  40.6318120
  19.8570489  20.2563830  41.6889365  20.6012534  20.6438106  41.9272315
  20.0031185  19.4121255  41.8529853  19.9881074  20.1894303  41.7483335
  24.7731865  16.7225858  40.6509038  24.2454883  16.8054602  39.9614747
  25.2327573  17.4643729  40.6473683  24.7633715  16.8446520  40.5483734
  16.7664930  14.9928378  35.6749934  16.4177734  15.6448103  36.1381483
  16.2861376  14.9785491  34.9473805  16.6435174  15.0871431  35.6361025
  24.3268947  25.2929421  39.7818695  25.0503146  25.7587534  39.6383269
  23.8869538  25.3603031  39.0316292  24.3684639  25.3713258  39.6503477
  17.1388839  17.6186908  41.1875978  17.2791800  18.1159372  41.8904619
  17.6371371  16.9173202  41.3290192  17.2329919  17.5888887  41.3127557
  17.1689061  18.4854019  38.5168555  17.8034140  19.0814444  38.4518017
  17.2514672  18.1857477  39.3314425  17.2745612  18.5294927  38.6271641
  18.7468044  14.4167994  38.4913997  19.0683885  13.9371077  37.8373259
  19.0094987  15.2267640  38.3004809  18.8334069  14.4657892  38.3669489
  13.6742049  20.6821860  41.7858101  14.1834278  21.2786367  42.1669406
  14.1476321  20.4147833  41.1034521  13.8185424  20.7307675  41.7412624
  27.1720768  18.2314715  43.6858062  26.5011958  18.7744417  43.5571127
  27.8660518  18.7009570  43.4439756  27.1749636  18.3812986  43.6313589
  21.8079155  16.3576118  39.9904661  21.2143994  16.6793115  39.4389228
  21.8454433  15.5117214  39.7825767  21.7253544  16.2800446  39.8787432
  24.6836971  16.3155623  43.4206411  24.4550664  16.3388324  42.5784769
  24.9435048  15.4913090  43.5401422  24.6883159  16.1971703  43.3131609
  19.7808387  16.9973369  38.0833991  20.1607352  17.0152998  37.2985105
  19.0400983  17.4427358  37.9624838  19.7277225  17.0655143  37.9497559
  27.4093678  15.3055560  43.6709569  27.4087904  15.1504217  44.5293846
  27.2049858  16.1518547  43.6150955  27.3793456  15.4076181  43.7897509
  20.5793141  23.8350875  39.4742781  19.7704464  23.5117549  39.4276090
  21.0868050  23.1284097  39.4071029  20.5342808  23.6832191  39.4573075
  19.7727558  13.2234897  40.7661622  20.5943252  13.3933210  40.5243317
  19.3097209  13.3782158  40.0427920  19.8258720  13.2716630  40.6233266
  27.7397513  30.5113685  35.6749934  27.3910318  31.1633411  36.1381483
  27.2593959  30.4970799  34.9473805  27.6167757  30.6056739  35.6361025
  16.7669936   4.9456064  30.0534181  16.0152835   4.5671603  29.8250226
  17.2155948   4.9774498  29.3052992  16.7219603   4.8941671  29.9091684
  22.2194896   5.3681434  25.4819729  21.8846264   6.0458355  25.0463951
  22.7321766   4.9786745  24.8936600  22.2460477   5.4106012  25.3306520
  21.7599187   7.3195702  31.4230840  22.1438566   7.8882601  30.8835615
  21.6958328   6.5945213  30.9436656  21.8072614   7.2971166  31.2724703
  18.3454692   4.9574456  32.3196954  18.4465055   4.1474810  32.6294082
  17.7496437   4.8631403  31.6896632  18.2727231   4.8239484  32.2723192
  18.1855432   9.8752046  33.7211810  18.8292887  10.3165210  34.1107968
  18.5111687   9.0705472  33.6342069  18.3287260   9.8217240  33.7657287
  18.8876011   2.8864020  29.0931672  19.2091852   3.4269228  28.4892980
  19.5348108   2.3160792  29.2253961  19.0302067   2.8823196  29.0238707
  21.1265655   1.2750460  29.1645850  21.5659290   0.6667561  29.6100623
  20.9770318   0.8957834  28.3931315  21.1687121   1.1288931  29.1165017
  17.5493032   0.1425653  26.4181822  16.9650248   0.6475684  26.8247686
  17.1463128  -0.0831961  25.6778414  17.4032336   0.1833901  26.3686847
  13.1037061   5.8580414  33.2205494  12.6204639   6.5830903  33.1965077
  13.9160379   6.1556544  33.3315651  13.1527809   6.0082767  33.2332773
  19.1751215   4.6512594  35.8255308  18.6578157   4.2920009  35.2216616
  19.8725606   4.1274769  35.8361374  19.2016796   4.5210282  35.7385567
  15.9581258   6.3736590  33.3725774  16.6601838   5.8588579  33.4298530
  15.8778741   6.7010741  34.1772649  16.0505019   6.3450816  33.4998566
  28.3705793   2.4908095  33.1272114  27.9341025   2.4944837  33.8831086
  28.0368708   3.1713594  32.6951692  28.2568413   2.5920550  33.1752947
  22.3926947   2.5059146  24.3272675  22.8078095   2.1744170  23.6357171
  21.5618876   2.2728048  24.1992812  22.3314955   2.4230402  24.2063522
  18.0608355   2.2511677  31.6514795  18.6982302   2.0123425  32.1966588
  18.4863427   2.4548836  30.9167956  18.2184522   2.2462687  31.6231952
  20.4429827   2.7284100  33.3308581  20.5168836   2.5659272  34.1850431
  21.2599334   2.9174289  33.0869063  20.5746186   2.7320842  33.4206607
  14.2035584   3.0741963  30.3603025  13.3773702   3.3203700  30.2337304
  14.2647575   2.9954043  31.2265083  14.0909751   3.0986912  30.4691969
  18.9834413   5.6918843  28.0622055  19.2732711   5.3007824  27.3381281
  19.7137894   5.8735548  28.5027330  19.1341297   5.6612657  28.0204862
  16.9240329   7.6686225  31.1282204  16.7040624   7.3783580  31.9208871
  16.7034851   7.0101180  30.6000117  16.8587923   7.5285934  31.1671113
  19.0908284   9.0415615  29.9112897  19.7432342   8.5092057  30.1403923
  18.3933893   8.6884267  30.2980771  19.0839002   8.9105138  30.0025065
  16.0389549   1.3954793  29.3180271  16.7935517   1.7767832  29.5315734
  15.4460162   1.8465936  29.7726968  16.0626263   1.5183620  29.4163149
  27.0848203   1.3620029  29.2543876  27.6506235   2.0213239  29.1702419
  26.4376106   1.7069727  29.7260278  27.0726959   1.5101971  29.3116633
  23.5554781   4.3058813  28.6780955  23.3141457   3.5726674  28.2708020
  23.7356114   4.8545670  28.0247289  23.5462405   4.2781205  28.5211178
  18.7854101  -0.4032627  30.0901878  18.5896884   0.2042108  29.4962180
  19.0088447  -1.0964683  29.6093551  18.7888742  -0.4155101  29.9317958
  26.7857528   2.0548003  35.2853013  26.6471887   2.7529049  35.7901756
  26.0057526   1.8996660  34.9289195  26.6500755   2.1348170  35.3079287
  21.1057809   4.9639776  29.8858339  21.8707700   4.6949420  29.5641003
  21.0035899   4.4789786  30.6028402  21.2039304   4.8529341  29.9438166
  23.6276469   1.9951960  21.8658288  24.3949454   2.0552085  21.4564140
  23.1807778   1.4232401  21.3814607  23.6749896   1.9188535  21.7335998
  24.5254265   0.8006616  34.1511020  23.8499267   0.5691848  34.6524407
  24.5346641   0.1927798  33.5253125  24.4272769   0.6765541  34.1327173
  26.5270999   3.6571748  26.3821198  26.6090837   4.4638734  26.0582649
  27.0120741   3.6767707  27.1061972  26.6108157   3.7792410  26.4408097
  19.8379196   9.8507097  37.5112734  20.3275126   9.1517886  37.3288398
  19.2663428   9.5530967  38.0988791  19.8263726   9.7033320  37.5713774
  20.3315542   3.5983870  26.6352640  20.4008362   2.7398409  26.7745640
  21.1103997   3.8155751  26.3071665  20.4568392   3.5036734  26.6069797
  24.7223029   6.0221572  30.8489133  24.3302821   5.7188287  30.1312000
  24.8776102   6.8590662  30.6594087  24.6876619   6.1005408  30.7145631
  24.8862704   2.5871561  30.7895164  24.5277359   2.7586203  31.5659196
  24.4001415   3.0484766  30.2323162  24.7621401   2.6810532  30.8220433
  26.1021700   4.1695265  38.3767722  26.8914078   3.8184329  38.4969803
  26.2765298   4.9831653  38.1144355  26.2441982   4.2381122  38.3555590
  25.4913335   5.4257064  34.2819168  25.2933023   5.9147879  33.5875379
  24.8701046   5.6298306  34.8603301  25.3700899   5.5273603  34.2642391
  24.0219771   2.2307553  26.7158742  24.7453970   2.6965666  26.5723316
  23.5820362   2.2981162  25.9656339  24.0635463   2.3091389  26.5843524
  13.3692873  -2.3800009  28.7198148  13.8785102  -1.7835502  29.1009453
  13.8427145  -2.6474035  28.0374567  13.5136248  -2.3314194  28.6752670
  24.2823621   6.2928258  26.8756803  23.5652930   6.1189120  26.4104041
  24.9330358   6.0580830  26.3432289  24.2725471   6.2324050  26.7286021
  20.9158326   7.3089558  35.8509867  20.6923980   6.5508387  36.2193893
  20.4268169   7.3387579  35.1290306  20.8101775   7.2011783  35.7986608
  19.5636783   7.5290016  33.3046951  19.1497181   6.8664146  32.9150793
  20.2484157   7.6767875  32.7842645  19.6035154   7.4530674  33.1703448
  22.9302077   6.6880102  34.0570568  22.5318360   6.7982372  33.2891388
  22.3153296   6.8962168  34.6397128  22.7800966   6.7353670  34.0301867
  20.2743965   0.7729006  26.4082827  19.4655288   0.4495680  26.3616137
  20.7818874   0.0662228  26.3411076  20.2293632   0.6210323  26.3913122
  16.5291252   7.9699098  35.7060297  16.8437811   8.7835486  35.7138079
  16.9384666   7.5849317  36.3742456  16.6359350   8.0327800  35.8064389
  23.4815772   3.3869145  33.2764109  23.9526950   4.1009407  33.4454094
  23.8175950   2.7867895  33.8123979  23.6010887   3.4040609  33.3796485
  23.6848045   4.1838152  36.5701143  24.5046418   4.0401118  36.8317438
  23.4042122   4.8084350  37.1117581  23.7644788   4.2548504  36.6889082
  40.1561695  11.8403003  29.5344019  40.1255699  12.6947640  29.7062289
  40.7543044  11.5398296  30.0930163  40.2398853  11.9219500  29.6418822
  33.3561380  10.9278654  34.2896950  32.4999275  11.0887153  34.3406067
  33.4029034  10.0570718  34.3102011  33.2360491  10.8229456  34.3003016
  27.7402520  20.4641372  30.0534181  26.9885419  20.0856910  29.8250226
  28.1888531  20.4959806  29.3052992  27.6952186  20.4126979  29.9091684
  33.1927479  20.8866742  25.4819729  32.8578848  21.5643663  25.0463951
  33.7054350  20.4972053  24.8936600  33.2193061  20.9291320  25.3306520
  32.7331771  22.8381010  31.4230840  33.1171150  23.4067909  30.8835615
  32.6690912  22.1130521  30.9436656  32.7805198  22.8156474  31.2724703
  36.2013201  12.9870698  36.9328601  36.7469161  13.6655785  36.9922571
  36.1430077  12.8458159  36.0730183  36.2729115  13.0662700  36.8140662
  29.3187276  20.4759764  32.3196954  29.4197639  19.6660118  32.6294082
  28.7229021  20.3816711  31.6896632  29.2459814  20.3424792  32.2723192
  37.9778269  14.4155305  27.8062329  37.8617795  15.1662991  28.2354467
  38.7734156  14.1579259  28.0558416  38.0782859  14.4890152  27.9066421
  29.1588015  25.3937353  33.7211810  29.8025471  25.8350518  34.1107968
  29.4844271  24.5890780  33.6342069  29.3019844  25.3402548  33.7657287
  22.5152320  16.4980051  31.9449288  22.2802504  15.6647703  31.8381556
  22.6537961  16.7784717  31.1310489  22.5007982  16.4163554  31.8091643
  24.8142407   8.6665781  34.8433595  24.1947439   8.0758429  34.6743610
  24.7126271   9.2577217  34.2097918  24.7080083   8.6669864  34.7238585
  29.8608595  18.4049328  29.0931672  30.1824436  18.9454536  28.4892980
  30.5080692  17.8346100  29.2253961  30.0034650  18.4008503  29.0238707
  31.9110303  10.4065323  29.1766058  32.6090468  10.5853451  29.6687522
  32.2262636   9.8835663  28.5536448  32.0605640  10.3559095  29.1568069
  24.5411540  12.2118063  37.0877164  24.4170237  12.7980509  37.7226983
  25.1929825  11.7178259  37.3889439  24.6185190  12.2256868  37.2263094
  32.0998238  16.7935768  29.1645850  32.5391874  16.1852869  29.6100623
  31.9502901  16.4143142  28.3931315  32.1419704  16.6474239  29.1165017
  29.5669881  15.3879780  36.3664675  30.2118884  14.8952223  36.0475624
  29.8071658  15.5304567  37.1930754  29.6980467  15.3357222  36.4414209
  32.1055973  18.2334686  36.0171568  32.3879216  17.4386092  35.7958324
  32.8342133  18.7115273  36.0376629  32.2545537  18.1869283  35.9874583
  30.0837167   5.7757720  33.2587333  29.7540497   6.2268863  32.5891032
  29.4082168   5.6973883  33.8060339  29.9347603   5.8308855  33.2410556
  35.7007575  15.1462950  26.1176619  35.6158870  16.0023916  26.2626188
  36.1891958  14.8707274  26.7858778  35.7596472  15.2320271  26.2378701
  36.6326008  11.7647744  27.6174354  36.1037480  11.9807377  28.2771660
  37.1551028  12.4583882  27.5375324  36.6314461  11.8990881  27.7029953
  28.5225616  15.6610961  26.4181822  27.9382831  16.1660992  26.8247686
  28.1195711  15.4353347  25.6778414  28.3764920  15.7019209  26.3686847
  24.0769645  21.3765722  33.2205494  23.5937223  22.1016211  33.1965077
  24.8892963  21.6741852  33.3315651  24.1260392  21.5268075  33.2332773
  30.1483799  20.1697902  35.8255308  29.6310740  19.8105317  35.2216616
  30.8458190  19.6460077  35.8361374  30.1749380  20.0395590  35.7385567
  31.3717850  19.9023876  40.7689143  30.8088685  19.4896486  41.2928805
  32.1338874  19.8276782  41.1882287  31.4012299  19.8301277  40.9082144
  32.9802830  11.9076613  24.8950743  33.2198834  12.1154596  24.0826086
  33.3018671  11.1034121  25.0039687  33.0639988  11.8190714  24.7911296
  28.2893121   3.8370008  28.7410281  29.0439089   4.2048325  28.5027331
  28.1120655   4.2109563  29.5089460  28.3747599   3.9468196  28.8195169
  26.9313842  21.8921898  33.3725774  27.6334421  21.3773887  33.4298530
  26.8511325  22.2196049  34.1772649  27.0237602  21.8636124  33.4998566
  27.9792748  12.1297484  42.5006189  28.1513252  12.0203379  43.3491470
  28.5162106  12.7751890  42.2637381  28.0837752  12.2089486  42.5911285
  26.6450185   6.2440327  25.4388394  26.4625759   6.4612208  24.6129387
  27.5075798   6.3579340  25.4947008  26.7454775   6.2930225  25.3242881
  26.2564617  18.0828250  32.8811382  27.0953517  18.3151182  32.9285143
  26.2876386  17.2132561  32.8118417  26.3846335  17.9885196  32.8776026
  26.8817320  18.5029125  37.1824687  27.4215545  18.3600256  37.8528060
  26.1987267  18.9025876  37.5508713  26.8609474  18.5408796  37.3359109
  36.3058205  14.1820125  32.3769711  37.0615720  14.6151640  32.4158620
  36.4120530  13.5324895  32.9504348  36.4328376  14.1497609  32.4667737
  39.3438376  18.0093403  33.1272114  38.9073608  18.0130145  33.8831086
  39.0101292  18.6898902  32.6951692  39.2300996  18.1105858  33.1752947
  22.2854465  14.7229416  37.3359109  22.0192881  13.9068532  37.4950099
  22.2993030  14.7682571  36.4654624  22.2479188  14.6086320  37.2312591
  26.1912212   9.5214500  23.9510867  25.4770390   9.2352679  24.3633299
  26.6756181   9.8611126  24.5917254  26.1571576   9.5296150  24.1066502
  27.0353072   8.2607794  39.9826116  26.3424869   7.7904774  40.2286848
  27.6513399   8.0346098  40.5567824  27.0237602   8.1574926  40.1035269
  34.0737843  21.9611837  38.0981720  33.2753089  21.7211338  38.3555589
  34.5223855  22.0126230  38.8448768  34.0212455  21.9334229  38.2466645
  33.3659530  18.0244454  24.3272675  33.7810679  17.6929478  23.6357171
  32.5351460  17.7913356  24.1992812  33.3047539  17.9415710  24.2063522
  22.6947879  15.5088195  34.6170853  22.5123452  15.4835081  33.7643145
  23.4297548  15.9787133  34.6559762  22.7761943  15.5749557  34.4968771
  38.7647553  15.7439705  31.7603740  39.0003142  15.8884904  30.9330591
  38.9137117  16.5082113  32.1535254  38.8213357  15.8778759  31.6967344
  25.7593631  12.2273198  41.1252962  26.4833603  12.2126228  41.6117856
  25.8609767  12.9368553  40.6274930  25.8811840  12.3297901  41.1231748
  40.5938010  14.5841371  29.5973344  40.9246227  15.1169011  28.9913439
  41.1671098  14.6380259  30.2535295  40.7271689  14.6710940  29.6051126
  35.8069899  12.4306274  30.2796924  35.9016754  13.1695568  30.7336550
  35.1828743  12.0023749  30.7131489  35.7278929  12.4767594  30.4105072
  22.6618789  12.3881696  34.7669920  23.2392292  12.2518146  35.4062165
  21.9632851  11.9317480  35.0215504  22.6439811  12.3003962  34.8992209
  36.0592920  14.2755013  23.5133876  35.9773083  14.3457200  24.3788863
  36.6972641  14.8384757  23.3217617  36.1412758  14.3693984  23.6123826
  29.4186092  14.0415751  32.9808403  29.1605336  13.2087486  32.9539702
  29.4734574  14.2673364  32.1400903  29.3885869  13.9513523  32.8528539
  34.4987142   6.1444202  33.0812495  33.7943468   5.6553387  33.2396415
  34.5472116   6.1566676  32.2100940  34.4017193   6.0733850  32.9751835
  28.3920804  11.5953514  33.4673297  27.8170395  11.7545682  34.1037258
  28.0156480  10.9588923  33.0041748  28.2523616  11.5251327  33.4927856
  32.0594092  10.0676863  38.3265676  31.6708525   9.6431081  37.6717867
  31.3948791  10.3159013  38.8342703  31.9041020  10.0415584  38.3053544
  18.1377623  11.2393589  31.4817738  18.2237874  10.8625457  32.2631268
  18.7653420  10.8654034  31.0037696  18.2434174  11.1279071  31.5263215
  33.1633031  14.2975468  26.5242483  33.9773669  14.5890360  26.4125254
  33.0992172  13.6435330  25.9500776  33.2735770  14.2440662  26.4231320
  29.0340939  17.7696985  31.6514795  29.6714886  17.5308733  32.1966588
  29.4596010  17.9734144  30.9167956  29.1917105  17.7647995  31.6231952
  23.7253581  20.0085322  35.5349099  23.7657727  20.2800173  34.7068878
  24.2848105  20.5327230  35.9506887  23.8136927  20.1261077  35.4740987
  29.6743754  12.9899275  25.9889684  30.0588907  12.7706982  26.7406229
  29.4255374  13.8162220  26.1190761  29.6945827  13.0797421  26.1190761
  31.4162411  18.2469408  33.3308581  31.4901419  18.0844580  34.1850431
  32.2331917  18.4359597  33.0869063  31.5478769  18.2506150  33.4206607
  25.1768168  18.5927271  30.3603025  24.3506285  18.8389008  30.2337304
  25.2380159  18.5139351  31.2265083  25.0642335  18.6172220  30.4691969
  27.3944191   4.6596212  31.3198465  26.5266617   4.7318811  31.3856074
  27.6819396   5.4618290  31.5086440  27.3083939   4.7890359  31.3573231
  29.9566997  21.2104151  28.0622055  30.2465295  20.8193132  27.3381281
  30.6870477  21.3920856  28.5027330  30.1073881  21.1797965  28.0204862
  30.5461742  16.0121897  39.1475185  30.0473435  16.7237664  39.2260074
  31.3561966  16.3322563  39.1093348  30.5917848  16.1648745  39.1531754
  27.8972912  23.1871533  31.1282204  27.6773208  22.8968888  31.9208871
  27.6767434  22.5286488  30.6000117  27.8320506  23.0471242  31.1671113
  26.8089859  15.2744850  33.3937906  26.5203108  14.6482321  33.9283633
  27.6773207  15.2165137  33.4602586  26.8950111  15.1732394  33.4828861
  37.5967757  10.4179633  33.7119888  37.2532523   9.6969968  34.0627138
  37.6960800  10.2093484  32.8698246  37.5609800  10.2803836  33.6391568
  30.0640868  24.5600923  29.9112897  30.7164926  24.0277365  30.1403923
  29.3666477  24.2069575  30.2980771  30.0571586  24.4290446  30.0025065
  27.0122133  16.9140101  29.3180271  27.7668101  17.2953140  29.5315734
  26.4192745  17.3651244  29.7726968  27.0358846  17.0368928  29.4163149
  38.0580786  16.8805337  29.2543876  38.6238819  17.5398547  29.1702419
  37.4108690  17.2255035  29.7260278  38.0459543  17.0287278  29.3116633
  28.3320359  18.0848662  34.6920386  27.8101113  18.2248954  35.3772251
  28.7194380  17.3259326  34.8822504  28.3124060  17.9934186  34.8221463
  25.3211543   8.1354471  28.7615341  25.0336339   7.7655741  28.0247288
  26.0082012   8.6049326  28.4999046  25.3800441   8.1501440  28.6130417
  34.5287364  19.8244121  28.6780955  34.2874040  19.0911982  28.2708020
  34.7088697  20.3730978  28.0247289  34.5194988  19.7966512  28.5211178
  29.7586685  15.1152681  30.0901878  29.5629468  15.7227416  29.4962180
  29.9821031  14.4220625  29.6093551  29.7621326  15.1030207  29.9317958
  28.1565215  12.0007419  30.2082746  28.8787867  12.1648577  29.7486552
  27.6773208  12.7217084  30.1022086  28.1928946  12.1305649  30.1248360
  25.8072832  14.4065491  39.3136886  26.3193929  14.6849745  38.6645645
  25.5209174  15.1454786  39.6799699  25.8407695  14.5567845  39.2726764
  34.5628001   5.2356595  30.3207047  35.2654354   5.0364343  29.8427005
  34.2972190   4.4632537  30.6275890  34.6274633   5.0919561  30.2952488
  39.9916246  13.5439205  32.8740673  39.9050221  13.6994631  33.7275451
  39.5366726  14.1877280  32.5000078  39.9119503  13.6614960  32.9447779
  22.8939738   8.9135683  29.6100622  22.9955874   9.7161845  29.9381598
  23.6895625   8.7123019  29.3123703  23.0267644   9.0021582  29.6135978
  23.7103470   9.0282862  37.3521744  23.5688962   8.1766802  37.4766252
  23.9944033   9.0711522  36.5283950  23.7311316   8.9082612  37.2489368
  33.8642062  10.8649952  31.4966232  33.6176777  10.7845703  32.3303021
  34.1927185  10.0803420  31.3028760  33.8763306  10.7376217  31.5913755
  37.7590111  17.5733311  35.2853013  37.6204471  18.2714357  35.7901756
  36.9790109  17.4181968  34.9289195  37.6233338  17.6533478  35.3079287
  29.8239090  13.6006670  40.9089215  29.9682465  14.1807878  40.2732325
  30.1714738  13.9782967  41.6139070  29.8966551  13.7427374  40.9188210
  31.9959007  12.7996839  38.6914347  31.2482321  12.9927853  38.2862625
  32.1500532  11.9742058  38.4538468  31.9081435  12.7061950  38.5959753
  28.8966845  21.7909442  37.7750242  29.0456408  21.2312358  37.1223646
  29.6766847  21.8701444  38.1582761  29.0340938  21.7195008  37.7347191
  39.2543484  16.9311565  26.0469513  38.8750293  16.1448703  26.0398802
  38.5909730  17.4798422  25.9041157  39.1001959  16.8956389  26.0250309
  31.4220145  21.9624085  39.0534733  31.3463816  21.2932896  39.6085521
  31.3510004  22.6641873  39.5675399  31.4000752  21.9668992  39.2111581
  32.0790392  20.4825084  29.8858339  32.8440283  20.2134728  29.5641003
  31.9768482  19.9975094  30.6028402  32.1771888  20.3714649  29.9438166
  30.1143162   8.6849493  36.4251575  29.3239237   8.5040953  36.7468910
  30.5103785   7.9076446  36.4081869  30.0560038   8.5436954  36.4704123
  34.6009053  17.5137268  21.8658288  35.3682038  17.5737393  21.4564140
  34.1540362  16.9417709  21.3814607  34.6482480  17.4373843  21.7335998
  35.4986848  16.3191923  34.1511020  34.8231850  16.0877156  34.6524407
  35.5079224  15.7113106  33.5253125  35.4005353  16.1950849  34.1327173
  37.5003583  19.1757056  26.3821198  37.5823420  19.9824042  26.0582649
  37.9853325  19.1953015  27.1061972  37.5840741  19.2977718  26.4408097
  31.3100086  13.8541892  35.0491276  30.8862335  14.0546391  34.3130295
  31.1344941  13.0070740  35.1615576  31.2210967  13.7590673  34.9564966
  30.8111780  25.3692405  37.5112734  31.3007710  24.6703194  37.3288398
  30.2396012  25.0716275  38.0988791  30.7996310  25.2218628  37.5713774
  26.5982531  14.3493943  30.4819249  26.7547150  14.2840746  31.3375241
  26.9383124  15.1242496  30.2697928  26.6715766  14.4543141  30.5773843
  33.1361676  13.7251827  29.3512612  33.6777221  13.2222208  29.8151233
  33.4508235  13.6717021  28.5402097  33.2626073  13.6431248  29.2996424
  31.3048125  19.1169178  26.6352640  31.3740946  18.2583717  26.7745640
  32.0836581  19.3341059  26.3071665  31.4300976  19.0222042  26.6069797
  35.6955613  21.5406880  30.8489133  35.3035405  21.2373595  30.1312000
  35.8508685  22.3775970  30.6594087  35.6609203  21.6190716  30.7145631
  23.1716793  11.5328894  30.7980016  23.5515757  11.9513439  30.1340283
  22.5972157  12.1142349  31.1048859  23.1428118  11.6806752  30.7456757
  35.8595288  18.1056868  30.7895164  35.5009943  18.2771511  31.5659196
  35.3733999  18.5670074  30.2323162  35.7353985  18.1995840  30.8220433
  30.6483653  13.7856034  23.3295398  30.9376178  14.5620916  23.6038973
  30.7355452  13.2744765  24.0309898  30.7037909  13.8247952  23.4737896
  30.7014814   3.7394295  35.8495726  30.1853303   3.0474487  35.9747305
  30.1408743   4.4065072  35.7958324  30.5421328   3.7357553  35.8601792
  37.0754284  19.6880573  38.3767722  37.8646662  19.3369637  38.4969803
  37.2497882  20.5016961  38.1144355  37.2174565  19.7566430  38.3555590
  26.8147594  13.0989298  35.4295510  25.9735601  12.9993173  35.6374404
  27.0237602  13.8684779  35.7809831  26.7212287  13.1981342  35.5122825
  24.2923161  10.7208835  33.2580261  23.8979859  10.7951847  32.4830371
  23.7363278  11.1066782  33.8088623  24.1525973  10.7890610  33.2247921
  30.6264259  11.0270698  34.6793108  30.3227397  10.4726686  35.2803516
  29.9243680  11.2062908  34.1921142  30.4780469  10.9715480  34.6962814
  29.6830356   8.3371217  29.2437810  29.9590090   7.6190130  28.8315377
  30.2829025   8.9356137  29.0358916  29.8123621   8.3191588  29.1518571
  28.6882610  18.2420418  39.3865206  28.5802965  18.2522480  40.2527264
  28.8978392  19.0675199  39.1970160  28.7032721  18.3661493  39.4869297
  33.1840877   6.0084735  27.5184405  33.6384623   6.1795295  28.2432249
  33.6580922   5.3952845  27.1182181  33.3209197   5.9435620  27.5658166
  26.7056402  15.4933061  36.8487143  26.1144335  16.1342559  36.8190158
  27.4677426  15.9170678  36.8218443  26.7304663  15.6508899  36.8402291
  27.1017025   6.6535058  37.5155161  27.5618506   6.7273988  38.2530285
  27.1473132   7.4516313  37.1654982  27.1767580   6.7829206  37.5727917
  36.4645918  20.9442372  34.2819168  36.2665607  21.4333187  33.5875379
  35.8433629  21.1483614  34.8603301  36.3433483  21.0458911  34.2642391
  30.5253897  12.7127269  28.6229412  31.2695942  13.1001545  28.8612362
  30.6714593  11.8684694  28.7869900  30.6564482  12.6457742  28.6823382
  32.4433472   4.5077528  33.6561273  31.5969517   4.6800336  33.5302623
  32.4404605   3.7026872  33.9927102  32.3180622   4.4138557  33.6872400
  33.5131773   8.2852742  34.5223331  33.0391727   7.7594504  35.0328642
  33.8849908   7.7382215  33.9538193  33.4981661   8.1268739  34.5138479
  23.8904803  10.2824249  39.8906877  24.7530416  10.1819958  39.8044207
  23.5596586   9.7018958  39.3292449  23.9689999  10.1815876  39.7952283
  35.4415272   9.1789297  27.5849085  34.9138291   9.2618041  26.8954794
  35.9010980   9.9207168  27.5813730  35.4317123   9.3009959  27.4823780
  27.2506589   9.1066698  36.5517295  26.6259659   9.1185090  35.9443248
  26.9152183   9.5826873  37.2008536  27.1092080   9.1785215  36.5573864
  27.4348337   7.4491817  22.6089980  27.0861142   8.1011542  23.0721530
  26.9544783   7.4348930  21.8813852  27.3118581   7.5434870  22.5701072
  23.9632264  17.1667158  37.9921060  23.4332189  16.4759597  38.0416034
  24.2357358  17.1577344  37.1633768  23.9256986  17.0634290  37.8768476
  34.9952355  17.7492861  26.7158742  35.7186554  18.2150974  26.5723316
  34.5552946  17.8166470  25.9656339  35.0368047  17.8276697  26.5843524
  34.1638510  14.6090403  37.9659431  33.5495503  14.0648453  38.2608067
  34.6805795  14.0954639  37.4865247  34.1494172  14.4526812  37.9383660
  33.4034807  15.6794673  35.7003730  32.9762415  15.0544392  35.2669165
  33.3959751  15.3969595  36.5262737  33.3393948  15.5447454  35.7583557
  26.5197334  10.7159846  38.7692164  26.6790821   9.9603170  39.1743886
  26.3390228  11.2650785  39.4232901  26.5162693  10.6853660  38.9254870
  31.7320517   6.5563427  35.9146264  31.7563004   6.0223540  35.2259044
  31.9831990   6.0480736  36.5771854  31.7730435   6.4024331  35.9110909
  19.2428106  13.8394922  35.3489408  19.1371555  13.7941767  34.4841492
  18.4928326  14.1848703  35.6303693  19.1163709  13.8835831  35.2626738
  28.0121839   5.2834246  35.2952008  28.0520210   5.7843452  36.0086716
  27.1871503   5.3744639  35.0257931  27.8961365   5.3716062  35.3602546
  29.4336202  11.7994755  37.5925907  28.6028132  11.9668573  37.3861155
  29.3787719  11.4230706  38.3774792  29.3025617  11.7684487  37.6774435
  27.8072246  10.0750347  28.1216025  27.9475207  10.5722811  28.8244666
  28.3054779   9.3736641  28.2630239  27.9013327  10.0452326  28.2467604
  27.8372468  10.9417458  25.4508602  28.4717548  11.5377883  25.3858063
  27.9198079  10.6420916  26.2654472  27.9429019  10.9858366  25.5611688
  29.4151451   6.8731433  25.4254044  29.7367292   6.3934516  24.7713306
  29.6778395   7.6831080  25.2344855  29.5017477   6.9221331  25.3009536
  32.6448424  17.8950308  38.9452860  32.1373515  18.4486155  39.3893490
  32.3475070  17.9558598  38.1271634  32.5253309  17.9856619  38.8901316
  24.3425456  13.1385299  28.7198148  24.8517686  13.7349806  29.1009453
  24.8159729  12.8711272  28.0374567  24.4868832  13.1871114  28.6752670
  35.2556204  21.8113566  26.8756803  34.5385514  21.6374428  26.4104041
  35.9062942  21.5766138  26.3432289  35.2458055  21.7509358  26.7286021
  37.8404176  10.6878154  30.6198108  37.1695365  11.2307856  30.4911174
  38.5343926  11.1573009  30.3779803  37.8433043  10.8376425  30.5653636
  31.8890909  22.8274866  35.8509867  31.6656564  22.0693695  36.2193893
  31.4000753  22.8572887  35.1290306  31.7834358  22.7197091  35.7986608
  26.7015988   9.7741557  31.5871328  25.9827977  10.1905690  31.8544192
  27.0728350  10.3395796  31.0362966  26.6507920   9.9190839  31.5454135
  30.5369366  23.0475324  33.3046951  30.1229765  22.3849454  32.9150793
  31.2216740  23.1953183  32.7842645  30.5767738  22.9715982  33.1703448
  33.9034660  22.2065409  34.0570568  33.5050944  22.3167680  33.2891388
  33.2885880  22.4147476  34.6397128  33.7533550  22.2538977  34.0301867
  32.4762562   8.8139557  26.9244708  31.8827402   9.1356554  26.3729275
  32.5137840   7.9680653  26.7165814  32.3936952   8.7363886  26.8127479
  35.3520379   8.7719062  30.3546458  35.1234072   8.7951763  29.5124816
  35.6118455   7.9476529  30.4741468  35.3566567   8.6535142  30.2471656
  29.6339607  10.6253535  39.9571558  29.1218510  10.0174718  40.3156589
  29.4619104  11.3410127  40.4245534  29.5329244  10.6416834  40.0787782
  28.4065141   7.3095608  31.6500653  28.8822508   7.6712688  31.0150835
  27.9053741   7.9652076  31.9300796  28.4030500   7.4589797  31.5977394
  21.3807387  11.9737976  37.8662410  20.8334106  11.3038621  37.9843278
  22.1699765  11.6067824  37.9305877  21.4159570  11.8202962  37.8931110
  30.4491795   9.4536808  25.0174037  30.8290759   9.4716437  24.2325152
  29.7084391   9.8990797  24.8964885  30.3960632   9.5218582  24.8837606
  38.0777085   7.7618999  30.6049616  38.0771312   7.6067656  31.4633892
  37.8733265   8.6081986  30.5491002  38.0476863   7.8639620  30.7237556
  20.1394356  11.1858783  35.0208433  19.9616117  10.7335392  35.7463348
  19.8513378  11.9884945  35.2046910  20.0707309  11.2381341  35.1551936
  35.8017937  12.4416501  34.2585823  36.2971603  11.7239496  34.2189843
  34.9917713  12.1387299  34.1440310  35.7561831  12.2914147  34.2359549
  31.2476549  16.2914314  26.4082827  30.4387871  15.9680988  26.3616137
  31.7551458  15.5847536  26.3411076  31.2026216  16.1395630  26.3913122
  21.8766826  13.7186507  32.1330192  21.0112345  13.7072198  32.0212963
  21.9765642  13.5316730  32.9801331  21.7640993  13.6892568  32.2419136
  37.8669756  15.1920188  36.9462952  38.2924828  14.6694610  36.3933377
  37.5026676  15.7901026  36.4251575  37.8756359  15.2030415  36.7871962
  27.5023836  23.4884406  35.7060297  27.8170395  24.3020794  35.7138079
  27.9117249  23.1034625  36.3742456  27.6091934  23.5513108  35.8064389
  34.4548356  18.9054453  33.2764109  34.9259534  19.6194715  33.4454094
  34.7908534  18.3053203  33.8123979  34.5743471  18.9225917  33.3796485
  35.0922302  18.6972387  40.0391802  34.5443248  18.0730270  39.7711867
  35.5535331  18.8866659  39.3235881  35.0789511  18.6331437  39.8942233
  30.4410965   5.6798336  27.7001669  31.2626660   5.8496649  27.4583364
  29.9780616   5.8345597  26.9767967  30.4942128   5.7280069  27.5573313
  24.8436856  17.4357514  35.3538906  25.4481713  17.3953348  34.7252726
  24.6364169  18.2828666  35.3842962  24.9025753  17.5545517  35.2655022
  34.6580628  19.7023459  36.5701143  35.4779002  19.5586426  36.8317438
  34.3774706  20.3269658  37.1117581  34.7377372  19.7733812  36.6889082
  20.0788138  16.4192132  35.2237829  19.9812416  15.6088403  35.5327885
  20.8617008  16.3983925  34.8384097  20.1804275  16.2959222  35.2124692
  33.4884904  32.0165359  31.9449288  33.2535088  31.1833011  31.8381556
  33.6270544  32.2970024  31.1310489  33.4740566  31.9348862  31.8091643
  35.7874991  24.1851089  34.8433595  35.1680023  23.5943737  34.6743610
  35.6858855  24.7762525  34.2097918  35.6812667  24.1855172  34.7238585
  40.8341179  33.9234636  29.0931672  41.1557020  34.4639844  28.4892980
  41.4813275  33.3531408  29.2253961  40.9767234  33.9193811  29.0238707
  41.0569750  21.2943028  33.2587333  40.7273080  21.7454171  32.5891032
  40.3814752  21.2159191  33.8060339  40.9080187  21.3494163  33.2410556
  39.4958200  31.1796268  26.4181822  38.9115415  31.6846300  26.8247686
  39.0928295  30.9538655  25.6778414  39.3497503  31.2204517  26.3686847
  39.2625704  19.3555316  28.7410281  40.0171672  19.7233633  28.5027331
  39.0853239  19.7294871  29.5089460  39.3480183  19.4653504  28.8195169
  37.6182769  21.7625635  25.4388394  37.4358342  21.9797516  24.6129387
  38.4808382  21.8764648  25.4947008  37.7187358  21.8115533  25.3242881
  37.1644796  25.0399808  23.9510867  36.4502973  24.7537987  24.3633299
  37.6488765  25.3796434  24.5917254  37.1304159  25.0481458  24.1066502
  33.6351373  27.9067004  34.7669920  34.2124876  27.7703454  35.4062165
  32.9365435  27.4502788  35.0215504  33.6172394  27.8189270  34.8992209
  40.3918675  29.5601059  32.9808403  40.1337919  28.7272794  32.9539702
  40.4467158  29.7858672  32.1400903  40.3618453  29.4698830  32.8528539
  39.3653387  27.1138822  33.4673297  38.7902979  27.2730990  34.1037258
  38.9889064  26.4774231  33.0041748  39.2256200  27.0436635  33.4927856
  29.1110206  26.7578896  31.4817738  29.1970458  26.3810765  32.2631268
  29.7386004  26.3839342  31.0037696  29.2166757  26.6464379  31.5263215
  40.6476338  28.5084583  25.9889684  41.0321490  28.2892290  26.7406229
  40.3987958  29.3347528  26.1190761  40.6678410  28.5982729  26.1190761
  36.1500751  34.1112578  30.3603025  35.3238869  34.3574316  30.2337304
  36.2112742  34.0324659  31.2265083  36.0374918  34.1357527  30.4691969
  38.3676775  20.1781519  31.3198465  37.4999200  20.2504119  31.3856074
  38.6551979  20.9803598  31.5086440  38.2816523  20.3075667  31.3573231
  37.9854716  32.4325409  29.3180271  38.7400684  32.8138448  29.5315734
  37.3925329  32.8836552  29.7726968  38.0091430  32.5554236  29.4163149
  36.2944127  23.6539779  28.7615341  36.0068923  23.2841049  28.0247288
  36.9814595  24.1234634  28.4999046  36.3533024  23.6686748  28.6130417
  40.7319269  30.6337989  30.0901878  40.5362051  31.2412724  29.4962180
  40.9553614  29.9405933  29.6093551  40.7353910  30.6215515  29.9317958
  39.1297799  27.5192727  30.2082746  39.8520450  27.6833885  29.7486552
  38.6505791  28.2402392  30.1022086  39.1661529  27.6490957  30.1248360
  33.8672322  24.4320991  29.6100622  33.9688458  25.2347153  29.9381598
  34.6628208  24.2308327  29.3123703  34.0000227  24.5206890  29.6135978
  34.6836054  24.5468169  37.3521744  34.5421545  23.6952110  37.4766252
  34.9676617  24.5896830  36.5283950  34.7043900  24.4267919  37.2489368
  37.5715115  29.8679251  30.4819249  37.7279734  29.8026054  31.3375241
  37.9115708  30.6427804  30.2697928  37.6448350  29.9728449  30.5773843
  34.1449376  27.0514202  30.7980016  34.5248341  27.4698747  30.1340283
  33.5704741  27.6327657  31.1048859  34.1160701  27.1992060  30.7456757
  35.2655745  26.2394143  33.2580261  34.8712442  26.3137155  32.4830371
  34.7095862  26.6252090  33.8088623  35.1258557  26.3075918  33.2247921
  40.6562940  23.8556525  29.2437810  40.9322674  23.1375438  28.8315377
  41.2561609  24.4541445  29.0358916  40.7856204  23.8376896  29.1518571
  38.4080921  22.9677125  22.6089980  38.0593725  23.6196850  23.0721530
  37.9277367  22.9534238  21.8813852  38.2851165  23.0620178  22.5701072
  30.2160690  29.3580230  35.3489408  30.1104139  29.3127075  34.4841492
  29.4660910  29.7034011  35.6303693  30.0896293  29.4021138  35.2626738
  38.9854422  20.8019554  35.2952008  39.0252794  21.3028760  36.0086716
  38.1604087  20.8929947  35.0257931  38.8693948  20.8901370  35.3602546
  38.7804830  25.5935655  28.1216025  38.9207791  26.0908119  28.8244666
  39.2787362  24.8921949  28.2630239  38.8745911  25.5637634  28.2467604
  38.8105052  26.4602766  25.4508602  39.4450131  27.0563191  25.3858063
  38.8930663  26.1606224  26.2654472  38.9161603  26.5043674  25.5611688
  40.3884035  22.3916741  25.4254044  40.7099876  21.9119824  24.7713306
  40.6510979  23.2016387  25.2344855  40.4750060  22.4406639  25.3009536
  35.3158040  28.6570607  28.7198148  35.8250269  29.2535114  29.1009453
  35.7892312  28.3896580  28.0374567  35.4601416  28.7056422  28.6752670
  37.6748572  25.2926865  31.5871328  36.9560561  25.7090998  31.8544192
  38.0460934  25.8581104  31.0362966  37.6240503  25.4376147  31.5454135
  39.3797725  22.8280916  31.6500653  39.8555091  23.1897996  31.0150835
  38.8786325  23.4837384  31.9300796  39.3763084  22.9775105  31.5977394
  31.1126940  26.7044091  35.0208433  30.9348701  26.2520700  35.7463348
  30.8245962  27.5070253  35.2046910  31.0439893  26.7566649  35.1551936
  32.8499410  29.2371815  32.1330192  31.9844929  29.2257506  32.0212963
  32.9498225  29.0502038  32.9801331  32.7373577  29.2077876  32.2419136
  31.0520722  31.9377440  35.2237829  30.9545000  31.1273711  35.5327885
  31.8349592  31.9169233  34.8384097  31.1536858  31.8144530  35.2124692
  38.4085927  12.9204811  16.9874228  37.6568827  12.5420350  16.7590273
  38.8571939  12.9523245  16.2393039  38.3635594  12.8690418  16.8431730
  39.9870683  12.9323203  19.2537001  40.0881046  12.1223557  19.5634128
  39.3912428  12.8380150  18.6236679  39.9143222  12.7988231  19.2063239
  39.8271423  17.8500793  20.6551857  40.4708878  18.2913957  21.0448015
  40.1527678  17.0454219  20.5682116  39.9703251  17.7965987  20.6997334
  33.1835727   8.9543490  18.8789334  32.9485912   8.1211142  18.7721603
  33.3221368   9.2348156  18.0650535  33.1691390   8.8726993  18.7431689
  40.5292003  10.8612767  16.0271718  40.8507844  11.4017975  15.4233027
  41.1764099  10.2909539  16.1594008  40.6718058  10.8571943  15.9578754
  35.2094948   4.6681502  24.0217211  35.0853645   5.2543948  24.6567030
  35.8613232   4.1741698  24.3229486  35.2868597   4.6820307  24.1603140
  40.2353289   7.8443219  23.3004722  40.8802291   7.3515662  22.9815671
  40.4755066   7.9868006  24.1270800  40.3663874   7.7920661  23.3754255
  39.1909024   8.1174400  13.3521869  38.6066239   8.6224431  13.7587733
  38.7879119   7.8916787  12.6118461  39.0448327   8.1582648  13.3026894
  34.7453052  13.8329161  20.1545541  34.2620630  14.5579650  20.1305124
  35.5576370  14.1305291  20.2655698  34.7943800  13.9831514  20.1672820
  40.8167206  12.6261341  22.7595355  40.2994148  12.2668756  22.1556663
  41.5141597  12.1023516  22.7701421  40.8432787  12.4959029  22.6725614
  37.5997249  14.3485337  20.3065820  38.3017829  13.8337326  20.3638577
  37.5194733  14.6759488  21.1112696  37.6921010  14.3199563  20.4338613
  36.9248025  10.5391689  19.8151428  37.7636924  10.7714621  19.8625190
  36.9559794   9.6696000  19.7458464  37.0529742  10.4448635  19.8116073
  37.5500728  10.9592564  24.1164734  38.0898953  10.8163695  24.7868106
  36.8670674  11.3589315  24.4848760  37.5292882  10.9972235  24.2699156
  32.9537873   7.1792855  24.2699156  32.6876288   6.3631971  24.4290146
  32.9676437   7.2246010  23.3994671  32.9162595   7.0649759  24.1652637
  33.3631287   7.9651634  21.5510900  33.1806860   7.9398520  20.6983192
  34.0980956   8.4350572  21.5899809  33.4445350   8.0312996  21.4308818
  36.4277038   4.6836637  28.0593008  37.1517011   4.6689668  28.5457903
  36.5293175   5.3931992  27.5614977  36.5495247   4.7861340  28.0571795
  33.3302197   4.8445135  21.7009966  33.9075700   4.7081585  22.3402212
  32.6316259   4.3880919  21.9555551  33.3123218   4.7567401  21.8332256
  40.0869499   6.4979190  19.9148450  39.8288743   5.6650925  19.8879749
  40.1417982   6.7236803  19.0740950  40.0569277   6.4076962  19.7868586
  28.8061030   3.6957028  18.4157785  28.8921282   3.3188896  19.1971315
  29.4336828   3.3217473  17.9377743  28.9117581   3.5842510  18.4603262
  39.7024346  10.2260424  18.5854842  40.3398293   9.9872172  19.1306635
  40.1279418  10.4297583  17.8508002  39.8600513  10.2211434  18.5571999
  34.3936989  12.4648761  22.4689146  34.4341134  12.7363612  21.6408925
  34.9531513  12.9890669  22.8846933  34.4820335  12.5824516  22.4081034
  35.8451575  11.0490710  17.2943072  35.0189693  11.2952447  17.1677350
  35.9063566  10.9702790  18.1605130  35.7325742  11.0735659  17.4032016
  40.6250404  13.6667590  14.9962101  40.9148702  13.2756571  14.2721328
  41.3553885  13.8484295  15.4367377  40.7757288  13.6361404  14.9544908
  38.5656320  15.6434972  18.0622251  38.3456615  15.3532327  18.8548918
  38.3450842  14.9849927  17.5340164  38.5003914  15.5034681  18.1011160
  37.4773267   7.7308289  20.3277953  37.1886515   7.1045760  20.8623680
  38.3456615   7.6728576  20.3942633  37.5633519   7.6295833  20.4168907
  40.7324275  17.0164362  16.8452944  41.3848333  16.4840805  17.0743970
  40.0349884  16.6633015  17.2320818  40.7254993  16.8853885  16.9365111
  37.6805540   9.3703540  16.2520318  38.4351508   9.7516579  16.4655780
  37.0876153   9.8214683  16.7067014  37.7042254   9.4932367  16.3503196
  39.0003767  10.5412101  21.6260433  38.4784520  10.6812393  22.3112298
  39.3877787   9.7822765  21.8162551  38.9807468  10.4497625  21.7561510
  40.4270092   7.5716120  17.0241924  40.2312875   8.1790855  16.4302227
  40.6504438   6.8784064  16.5433598  40.4304733   7.5593646  16.8658005
  36.4756239   6.8628931  26.2476933  36.9877336   7.1413184  25.5985692
  36.1892582   7.6018225  26.6139746  36.5091102   7.0131284  26.2066811
  40.4922497   6.0570109  27.8429262  40.6365873   6.6371318  27.2072372
  40.8398146   6.4346406  28.5479117  40.5649959   6.1990813  27.8528257
  39.5650252  14.2472881  24.7090289  39.7139816  13.6875797  24.0563693
  40.3450254  14.3264883  25.0922808  39.7024346  14.1758447  24.6687238
  37.2665939   6.8057382  17.4159296  37.4230558   6.7404185  18.2715288
  37.6066532   7.5805935  17.2037975  37.3399174   6.9106580  17.5113890
  33.8400200   3.9892333  17.7320063  34.2199165   4.4076878  17.0680330
  33.2655565   4.5705788  18.0388906  33.8111525   4.1370192  17.6796804
  37.4831002   5.5552738  22.3635557  36.6419008   5.4556612  22.5714451
  37.6921010   6.3248218  22.7149878  37.3895694   5.6544781  22.4462872
  39.3566018  10.6983857  26.3205253  39.2486372  10.7085920  27.1867311
  39.5661799  11.5238638  26.1310206  39.3716129  10.8224932  26.4209344
  37.3739810   7.9496500  23.7827190  36.7827743   8.5905998  23.7530205
  38.1360833   8.3734117  23.7558490  37.3988070   8.1072338  23.7742337
  34.6315672   9.6230597  24.9261106  34.1015596   8.9323036  24.9756081
  34.9040765   9.6140783  24.0973815  34.5940394   9.5197729  24.8108522
  29.9111514   6.2958362  22.2829455  29.8054963   6.2505206  21.4181539
  29.1611734   6.6412142  22.5643740  29.7847117   6.3399270  22.1966784
  35.0108864   5.5948738  15.6538195  35.5201093   6.1913245  16.0349500
  35.4843136   5.3274712  14.9714614  35.1552240   5.6434553  15.6092717
  32.0490794   4.4301415  24.8002456  31.5017514   3.7602060  24.9183325
  32.8383172   4.0631263  24.8645924  32.0842978   4.2766401  24.8271157
  30.8077764   3.6422223  21.9548480  30.6299525   3.1898832  22.6803395
  30.5196786   4.4448384  22.1386957  30.7390717   3.6944780  22.0891982
  32.5450234   6.1749946  19.0670239  31.6795753   6.1635637  18.9553010
  32.6449049   5.9880169  19.9141378  32.4324400   6.1456008  19.1759183
  38.1707243  15.9447845  22.6400344  38.4853802  16.7584233  22.6478126
  38.5800657  15.5598064  23.3082503  38.2775341  16.0076547  22.7404436
  35.5120264   9.8920953  22.2878952  36.1165121   9.8516788  21.6592773
  35.3047576  10.7392105  22.3183008  35.5709161  10.0108956  22.1995069
  30.7471546   8.8755571  22.1577876  30.6495824   8.0651842  22.4667932
  31.5300416   8.8547364  21.7724144  30.8487682   8.7522661  22.1464739
  39.7793614  19.2142336  18.4157785  39.8653866  18.8374204  19.1971315
  40.4069411  18.8402781  17.9377743  39.8850165  19.1027818  18.4603262
  40.8844097  21.8143669  22.2829455  40.7787547  21.7690514  21.4181539
  40.1344317  22.1597450  22.5643740  40.7579700  21.8584578  22.1966784
   7.6229478  11.5669658  29.2609380   7.5923482  12.4214295  29.4327649
   8.2210826  11.2664951  29.8195524   7.7066635  11.6486155  29.3684182
   5.4446052  14.1421960  27.5327690   5.3285578  14.8929647  27.9619828
   6.2401939  13.8845914  27.7823777   5.5450641  14.2156807  27.6331781
   3.1675358  14.8729605  25.8441980   3.0826653  15.7290571  25.9891548
   3.6559741  14.5973929  26.5124139   3.2264255  14.9586926  25.9644061
   4.0993791  11.4914399  27.3439715   3.5705262  11.7074032  28.0037021
   4.6218811  12.1850537  27.2640684   4.0982244  11.6257536  27.4295314
   9.5541844  17.0660703  32.7172759   8.7239547  17.2771347  32.8806176
   9.5051096  16.2397758  32.4415043   9.4248579  16.9750310  32.7010125
   3.7725988  13.9086781  32.1035072   4.5283503  14.3418295  32.1423981
   3.8788312  13.2591550  32.6769708   3.8996158  13.8764264  32.1933098
   6.8106159  17.7360058  32.8537475   6.3741391  17.7396800  33.6096446
   6.4769074  18.4165557  32.4217052   6.6968779  17.8372514  32.9018308
   9.9450505  14.4540978  31.7457112  10.6066939  13.8931646  31.6453021
   9.3041917  13.9593008  32.0709803   9.9479373  14.2977387  31.7789452
   6.2315336  15.4706360  31.4869101   6.4670925  15.6151559  30.6595952
   6.3804899  16.2348768  31.8800615   6.2881139  15.6045414  31.4232705
   8.0605793  14.3108026  29.3238705   8.3914010  14.8435666  28.7178800
   8.6338881  14.3646914  29.9800656   8.1939472  14.3977595  29.3316487
   3.2737682  12.1572929  30.0062285   3.3684536  12.8962223  30.4601910
   2.6496525  11.7290404  30.4396849   3.1946712  12.2034249  30.1370432
   3.5260703  14.0021669  23.2399237   3.4440866  14.0723856  24.1054224
   4.1640423  14.5651412  23.0482978   3.6080540  14.0960640  23.3389186
   9.1685144   9.5518523  30.8278866   8.9121709   8.7398464  30.6376749
  10.0114458   9.5596090  30.6009054   9.2551169   9.4330520  30.7663684
   0.6300813  14.0242123  26.2507843   1.4441452  14.3157016  26.1390615
   0.5659954  13.3701985  25.6766136   0.7403552  13.9707318  26.1496681
   7.8746724  16.4912568  36.7265714   7.5692541  17.2240625  37.0879029
   7.1552940  16.0850497  36.4458500   7.7234066  16.5394301  36.7378851
  13.5748516  13.1305568  36.0534058  13.5073016  13.1501528  35.1836644
  13.5604179  13.9735896  36.2789728  13.5627273  13.2579303  35.9586535
  11.3607133  11.9049955  34.3280652  11.9115055  11.2718024  34.5677744
  11.3451249  12.4365347  35.0196156  11.4392330  11.8898903  34.4659510
   5.5248569  16.6071992  28.9809236   6.0906601  17.2665202  28.8967779
   4.8776472  16.9521690  29.4525639   5.5127325  16.7553934  29.0381993
   1.9955147  19.5510777  28.4046316   1.7541823  18.8178637  27.9973381
   2.1756480  20.0997634  27.7512649   1.9862771  19.5233168  28.2476539
   7.4584029  13.2705860  32.6006033   7.3718003  13.4261286  33.4540812
   7.0034509  13.9143935  32.2265438   7.3787286  13.3881615  32.6713140
   1.3309845  10.5916607  31.2231593   1.0844559  10.5112358  32.0568381
   1.6594968   9.8070075  31.0294120   1.3431089  10.4642872  31.3179116
   5.2257894  17.2999966  35.0118374   5.0872253  17.9981012  35.5167116
   4.4457892  17.1448623  34.6554556   5.0901121  17.3800133  35.0344648
   6.7211267  16.6578220  25.7734873   6.3418075  15.8715358  25.7664162
   6.0577512  17.2065077  25.6306517   6.5669741  16.6223044  25.7515670
   2.0676835  17.2403923  21.5923649   2.8349820  17.3004048  21.1829500
   1.6208144  16.6684364  21.1079967   2.1150263  17.1640499  21.4601359
   2.9654631  16.0458579  33.8776381   2.2899633  15.8143811  34.3789768
   2.9747007  15.4379762  33.2518486   2.8673135  15.9217504  33.8592533
   4.9671365  18.9023711  26.1086559   5.0491203  19.7090697  25.7848010
   5.4521108  18.9219670  26.8327332   5.0508523  19.0244373  26.1673457
   0.6029458  13.4518482  29.0777973   1.1445004  12.9488863  29.5416593
   0.9176017  13.3983677  28.2667458   0.7293855  13.3697903  29.0261785
   3.1623396  21.2673535  30.5754494   2.7703187  20.9640250  29.8577360
   3.3176468  22.1042625  30.3859448   3.1276985  21.3457372  30.4410991
   3.3263070  17.8323524  30.5160524   2.9677725  18.0038167  31.2924557
   2.8401781  18.2936729  29.9588523   3.2021767  17.9262495  30.5485794
   4.5422066  19.4147228  38.1033082   5.3314444  19.0636293  38.2235164
   4.7165664  20.2283616  37.8409716   4.6842348  19.4833085  38.0820950
  10.2914606  15.0505486  37.5729782  10.3497730  15.4992134  38.3189759
   9.6581074  15.4604298  37.1359862  10.2065901  15.1779220  37.6182330
   3.9313701  20.6709028  34.0084528   3.7333389  21.1599842  33.3140740
   3.3101412  20.8750269  34.5868662   3.8101265  20.7725566  33.9907751
   2.9083055   8.9055952  27.3114446   2.3806073   8.9884696  26.6220154
   3.3678763   9.6473824  27.3079090   2.8984905   9.0276615  27.2089141
   9.2441473   9.8523231  33.6124731   9.0051243   9.8119065  32.7745516
   9.4075374  10.6994383  33.7390453   9.2331776   9.9715316  33.5078213
   2.4620137  17.4759516  26.4424103   3.1854336  17.9417629  26.2988676
   2.0220728  17.5433125  25.6921700   2.5035829  17.5543353  26.3108884
   2.7223987  21.5380221  26.6022164   2.0053297  21.3641083  26.1369401
   3.3730725  21.3032793  26.0697650   2.7125837  21.4776013  26.4551382
   5.3071958  10.4144809  30.3463469   4.6363148  10.9574512  30.2176534
   6.0011708  10.8839665  30.1045164   5.3100826  10.5643080  30.2918997
   1.3702443  21.9332065  33.7835928   0.9718726  22.0434335  33.0156749
   0.7553663  22.1414131  34.3662488   1.2201332  21.9805633  33.7567228
   2.8188162   8.4985717  30.0811818   2.5901855   8.5218418  29.2390176
   3.0786238   7.6743184  30.2006829   2.8234350   8.3801797  29.9737016
   9.1044286  16.5084031  27.1679019   9.4877891  17.2575388  27.3977116
   8.3088399  16.7549851  26.9091008   9.0438068  16.6553725  27.1636593
   5.5444868   7.4885654  30.3314977   5.5439094   7.3334311  31.1899253
   5.3401048   8.3348641  30.2756362   5.5144646   7.5906275  30.4502916
   1.9216138  18.6321108  33.0029470   2.3927316  19.3461370  33.1719455
   2.2576317  18.0319858  33.5389339   2.0411253  18.6492572  33.1061846
   2.1248411  19.4290115  36.2966504   2.9446785  19.2853081  36.5582799
   1.8442488  20.0536314  36.8382941   2.2045154  19.5000467  36.4154443
  18.5962061  27.0854966  29.2609380  18.5656065  27.9399603  29.4327649
  19.1943410  26.7850259  29.8195524  18.6799219  27.1671463  29.3684182
  11.7961746  26.1730617  34.0162310  10.9399641  26.3339116  34.0671427
  11.8429400  25.3022681  34.0367371  11.6760857  26.0681419  34.0268376
   6.1802886  35.7093335  29.7799542   5.4285785  35.3308874  29.5515587
   6.6288897  35.7411769  29.0318352   6.1352552  35.6578942  29.6357044
  11.6327846  36.1318705  25.2085089  11.2979214  36.8095626  24.7729311
  12.1454716  35.7424016  24.6201961  11.6593427  36.1743283  25.0571880
  11.1732137  38.0832973  31.1496201  11.5571516  38.6519872  30.6100976
  11.1091278  37.3582484  30.6702017  11.2205564  38.0608437  30.9990063
  14.6413567  28.2322661  36.6593962  15.1869527  28.9107748  36.7187932
  14.5830443  28.0910122  35.7995543  14.7129481  28.3114663  36.5406023
   7.7587642  35.7211727  32.0462314   7.8598005  34.9112081  32.3559442
   7.1629387  35.6268674  31.4161993   7.6860180  35.5876756  31.9988553
  16.4178636  29.6607268  27.5327690  16.3018162  30.4114954  27.9619828
  17.2134522  29.4031222  27.7823777  16.5183225  29.7342115  27.6331781
   3.2542774  23.9117745  34.5698956   2.6347805  23.3210392  34.4008971
   3.1526637  24.5029180  33.9363279   3.1480449  23.9121827  34.4503945
   8.3008961  33.6501291  28.8197032   8.6224802  34.1906499  28.2158340
   8.9481058  33.0798063  28.9519322   8.4435016  33.6460467  28.7504068
  10.3510669  25.6517286  28.9031419  11.0490834  25.8305414  29.3952882
  10.6663002  25.1287626  28.2801808  10.5006006  25.6011058  28.8833429
  10.5398605  32.0387731  28.8911210  10.9792240  31.4304832  29.3365983
  10.3903267  31.6595105  28.1196675  10.5820070  31.8926203  28.8430378
   8.0070248  30.6331743  36.0930036   8.6519250  30.1404186  35.7740984
   8.2472025  30.7756530  36.9196114   8.1380833  30.5809185  36.1679569
  10.5456339  33.4786649  35.7436928  10.8279582  32.6838055  35.5223684
  11.2742499  33.9567237  35.7641989  10.6945903  33.4321246  35.7139944
   8.5237533  21.0209683  32.9852693   8.1940863  21.4720827  32.3156392
   7.8482535  20.9425846  33.5325700   8.3747969  21.0760818  32.9675917
  14.1407941  30.3914913  25.8441980  14.0559236  31.2475879  25.9891548
  14.6292324  30.1159237  26.5124139  14.1996838  30.4772234  25.9644061
  15.7313941  17.0095206  31.2302304  15.4167382  17.6998685  31.6622726
  15.2140882  16.9539988  30.5287805  15.6078411  17.1030095  31.1899253
  15.0726374  27.0099707  27.3439715  14.5437846  27.2259340  28.0037021
  15.5951394  27.7035845  27.2640684  15.0714827  27.1442844  27.4295314
  20.5274427  32.5846011  32.7172759  19.6972130  32.7956655  32.8806176
  20.4783680  31.7583066  32.4415043  20.3981163  32.4935618  32.7010125
   6.9625982  30.9062924  26.1447183   6.3783197  31.4112955  26.5513047
   6.5596077  30.6805311  25.4043775   6.8165286  30.9471172  26.0952208
   8.5884165  35.4149865  35.5520669   8.0711106  35.0557280  34.9481977
   9.2858556  34.8912040  35.5626735   8.6149746  35.2847553  35.4650927
  11.4203197  27.1528576  24.6216103  11.6599200  27.3606559  23.8091446
  11.7419038  26.3486084  24.7305048  11.5040354  27.0642677  24.5176656
   6.7293487  19.0821971  28.4675641   7.4839455  19.4500289  28.2292691
   6.5521021  19.4561526  29.2354821   6.8147965  19.1920159  28.5460530
  20.0228386  25.2316412  36.5123181  19.1856807  25.3018599  36.7470775
  19.9916616  25.2340907  35.6397483  19.8946668  25.2426639  36.4182729
   5.0850551  21.4892290  25.1653754   4.9026125  21.7064171  24.3394747
   5.9476164  21.6031303  25.2212369   5.1855141  21.5382188  25.0508241
   4.6964983  33.3280213  32.6076742   5.5353883  33.5603145  32.6550504
   4.7276753  32.4584524  32.5383778   4.8246701  33.2337159  32.6041387
  10.7650271  18.4918701  28.2002778  11.4936431  18.3134656  27.7540934
  10.8545164  19.3336781  28.4109956  10.8856933  18.5902580  28.1656296
  14.7458571  29.4272088  32.1035072  15.5016086  29.8603603  32.1423981
  14.8520896  28.7776858  32.6769708  14.8728742  29.3949572  32.1933098
  17.7838742  33.2545366  32.8537475  17.3473974  33.2582108  33.6096446
  17.4501658  33.9350865  32.4217052  17.6701362  33.3557822  32.9018308
  17.7036225  20.2959194  35.0966903  18.3462134  20.3657298  35.6828818
  17.9559246  19.6288416  34.5946445  17.8358357  20.2085542  35.1094182
   4.6312579  24.7666463  23.6776227   3.9170756  24.4804643  24.0898660
   5.1156547  25.1063089  24.3182615   4.5971942  24.7748113  23.8331862
  20.9183089  29.9726286  31.7457112  21.5799523  29.4116954  31.6453021
  20.2774501  29.4778316  32.0709803  20.9211956  29.8162695  31.7789452
  11.8059896  33.2696417  24.0538035  12.2211045  32.9381441  23.3622531
  10.9751826  33.0365319  23.9258172  11.7447905  33.1867673  23.9328883
  17.2047919  30.9891668  31.4869101  17.4403509  31.1336867  30.6595952
  17.3537483  31.7534076  31.8800615  17.2613723  31.1230722  31.4232705
  19.0338376  29.8293334  29.3238705  19.3646593  30.3620974  28.7178800
  19.6071464  29.8832222  29.9800656  19.1672055  29.9162903  29.3316487
  14.2470265  27.6758237  30.0062285  14.3417120  28.4147531  30.4601910
  13.6229109  27.2475712  30.4396849  14.1679295  27.7219557  30.1370432
  12.5022739  30.8544449  40.6552566  13.0761601  30.2171693  40.8101130
  12.4237543  30.8548532  39.7862223  12.5755974  30.7609561  40.5498977
  14.4993287  29.5206976  23.2399237  14.4173449  29.5909164  24.1054224
  15.1373007  30.0836720  23.0482978  14.5813124  29.6145948  23.3389186
   7.8586458  29.2867714  32.7073763   7.6005702  28.4539449  32.6805063
   7.9134941  29.5125327  31.8666264   7.8286236  29.1965486  32.5793900
  12.9387508  21.3896165  32.8077856  12.2343835  20.9005351  32.9661775
  12.9872482  21.4018640  31.9366300  12.8417559  21.3185813  32.7017196
   6.8321170  26.8405477  33.1938658   6.2570761  26.9997645  33.8302619
   6.4556846  26.2040886  32.7307109   6.6923982  26.7703290  33.2193216
  10.4994459  25.3128826  38.0531036  10.1108891  24.8883044  37.3983228
   9.8349157  25.5610976  38.5608063  10.3441386  25.2867547  38.0318904
  20.1417728  25.0703831  30.8278866  19.8854292  24.2583772  30.6376749
  20.9847042  25.0781398  30.6009054  20.2283753  24.9515828  30.7663684
  14.3220820  19.0103455  35.5655021  14.7031332  18.3281626  35.9522895
  13.5184104  18.7213057  35.3830685  14.2597282  18.8670503  35.5959077
  11.6033397  29.5427431  26.2507843  12.4174036  29.8342324  26.1390615
  11.5392538  28.8887293  25.6766136  11.7136136  29.4892625  26.1496681
   7.4741305  33.0148948  31.3780155   8.1115252  32.7760696  31.9231949
   7.8996377  33.2186107  30.6433316   7.6317471  33.0099958  31.3497313
   8.1144120  28.2351238  25.7155045   8.4989273  28.0158945  26.4671590
   7.8655740  29.0614183  25.8456121   8.1346193  28.3249384  25.8456121
  18.8479308  32.0097876  36.7265714  18.5425125  32.7425932  37.0879029
  18.1285523  31.6035805  36.4458500  18.6966650  32.0579609  36.7378851
   9.8562777  33.4921371  33.0573942   9.9301785  33.3296543  33.9115792
  10.6732283  33.6811560  32.8134423   9.9879136  33.4958113  33.1471967
  24.5481100  28.6490876  36.0534058  24.4805600  28.6686835  35.1836644
  24.5336762  29.4921204  36.2789728  24.5359856  28.7764611  35.9586535
   3.6168534  33.8379234  30.0868385   2.7906651  34.0840971  29.9602664
   3.6780525  33.7591315  30.9530443   3.5042701  33.8624183  30.1957330
   5.8344557  19.9048175  31.0463825   4.9666983  19.9770774  31.1121435
   6.1219762  20.7070254  31.2351800   5.7484306  20.0342322  31.0838592
  14.9577446  20.0526034  39.3775147  15.7031038  19.8635844  38.9638573
  14.5414751  20.5784272  38.8189004  15.0062420  20.1028179  39.2339720
   8.3967363  36.4556114  27.7887415   8.6865661  36.0645095  27.0646642
   9.1270844  36.6372819  28.2292690   8.5474247  36.4249928  27.7470222
  22.3339717  27.4235263  34.3280652  22.8847639  26.7903332  34.5677744
  22.3183832  27.9550655  35.0196156  22.4124913  27.4084211  34.4659510
   5.2490225  30.5196813  33.1203266   4.9603474  29.8934284  33.6548994
   6.1173574  30.4617100  33.1867947   5.3350477  30.4184357  33.2094221
  16.0368123  25.6631596  33.4385248  15.6932889  24.9421931  33.7892498
  16.1361166  25.4545447  32.5963607  16.0010166  25.5255799  33.3656928
   5.4522499  32.1592064  29.0445632   6.2068467  32.5405103  29.2581094
   4.8593112  32.6103208  29.4992328   5.4759212  32.2820891  29.1428510
  16.4981152  32.1257300  28.9809236  17.0639185  32.7850510  28.8967779
  15.8509056  32.4706998  29.4525639  16.4859909  32.2739242  29.0381993
   3.7611909  23.3806434  28.4880702   3.4736705  23.0107704  27.7512649
   4.4482378  23.8501289  28.2264407   3.8200807  23.3953403  28.3395777
  12.9687730  35.0696084  28.4046316  12.7274406  34.3363945  27.9973381
  13.1489063  35.6182941  27.7512649  12.9595354  35.0418476  28.2476539
   8.1987051  30.3604644  29.8167238   8.0029834  30.9679379  29.2227541
   8.4221397  29.6672588  29.3358912   8.2021692  30.3482170  29.6583319
   6.5965581  27.2459382  29.9348106   7.3188233  27.4100540  29.4751912
   6.1173574  27.9669047  29.8287446   6.6329312  27.3757612  29.8513720
  14.5559089  23.5823181  35.3144791  13.7170189  23.6084460  35.0783055
  14.6263456  24.2293916  35.8950138  14.4427482  23.6819307  35.3653908
  13.0028367  20.4808558  30.0472407  13.7054720  20.2816306  29.5692365
  12.7372556  19.7084500  30.3541251  13.0674999  20.3371524  30.0217849
  18.4316613  28.7891168  32.6006033  18.3450587  28.9446594  33.4540812
  17.9767092  29.4329243  32.2265438  18.3519869  28.9066923  32.6713140
   1.3340104  24.1587646  29.3365983   1.4356241  24.9613808  29.6646958
   2.1295991  23.9574982  29.0389063   1.4668010  24.2473545  29.3401338
   7.7656923  21.7443843  39.1003288   7.5740120  21.7598978  39.9502711
   8.6155519  21.9407517  39.0769943   7.8632645  21.7758194  39.2226583
  12.3042429  26.1101915  31.2231593  12.0577143  26.0297666  32.0568381
  12.6327552  25.3255383  31.0294120  12.3163672  25.9828180  31.3179116
  16.1990477  32.8185274  35.0118374  16.0604837  33.5166320  35.5167116
  15.4190475  32.6633931  34.6554556  16.0633704  32.8985441  35.0344648
  14.5368563  29.1181650  41.2640755  14.5316601  28.2461466  41.2683182
  15.2429556  29.3169819  40.7910211  14.6413567  29.0185524  41.1947791
  10.4359373  28.0448802  38.4179707   9.6882687  28.2379816  38.0127985
  10.5900898  27.2194021  38.1803828  10.3481801  27.9513913  38.3225113
  17.6943850  32.1763528  25.7734873  17.3150659  31.3900666  25.7664162
  17.0310096  32.7250385  25.6306517  17.5402325  32.1408352  25.7515670
  10.6761150  21.9399352  39.3075111  11.1333764  22.6723327  39.4347903
  10.7517479  21.5165818  40.0662367  10.7552120  21.9856591  39.4376187
  15.1488476  15.1189228  33.1768954  15.2672044  15.5765691  32.4436257
  14.9750652  14.3134489  32.8905171  15.1407647  15.0683000  33.0269888
  10.5190758  35.7277047  29.6123699  11.2840649  35.4586691  29.2906363
  10.4168848  35.2427057  30.3293762  10.6172254  35.6166612  29.6703527
   8.5543528  23.9301456  36.1516935   7.7639603  23.7492917  36.4734271
   8.9504151  23.1528409  36.1347229   8.4960404  23.7888917  36.1969483
  13.0409419  32.7589231  21.5923649  13.8082404  32.8189356  21.1829500
  12.5940728  32.1869672  21.1079967  13.0882846  32.6825806  21.4601359
  13.9387214  31.5643887  33.8776381  13.2632216  31.3329119  34.3789768
  13.9479591  30.9565070  33.2518486  13.8405719  31.4402812  33.8592533
  11.0681358  26.4061716  40.6340434  11.0040500  27.2671672  40.5060571
  11.2078546  26.0893709  39.8335985  11.0796828  26.4861882  40.4968647
  15.9403949  34.4209019  26.1086559  16.0223786  35.2276005  25.7848010
  16.4253691  34.4404978  26.8327332  16.0241107  34.5429681  26.1673457
   9.7500452  29.0993855  34.7756637   9.3262701  29.2998354  34.0395655
   9.5745307  28.2522703  34.8880937   9.6611333  29.0042636  34.6830327
   5.0382897  29.5945906  30.2084609   5.1947516  29.5292709  31.0640601
   5.3783490  30.3694459  29.9963289   5.1116132  29.6995104  30.3039203
  11.5762042  28.9703790  29.0777973  12.1177587  28.4674171  29.5416593
  11.8908601  28.9168985  28.2667458  11.7026439  28.8883211  29.0261785
   9.7448492  34.3621141  26.3618001   9.8141312  33.5035680  26.5011001
  10.5236947  34.5793022  26.0337025   9.8701342  34.2674005  26.3335158
  12.7251311  23.8640094  39.1300273  12.9393281  23.2251009  38.5763627
  12.1085210  24.3085918  38.7008135  12.6656641  23.8350238  38.9850704
  14.1355979  36.7858843  30.5754494  13.7435771  36.4825558  29.8577360
  14.2909051  37.6227933  30.3859448  14.1009569  36.8642679  30.4410991
   1.6117159  26.7780857  30.5245376   1.9916124  27.1965402  29.8605644
   1.0372524  27.3594312  30.8314220   1.5828484  26.9258716  30.4722117
  14.8890399  25.4729160  40.0683580  14.0767081  25.1655050  40.1496753
  15.3480334  24.9928160  40.6326292  14.8370784  25.3565652  40.1638174
  14.2995654  33.3508832  30.5160524  13.9410309  33.5223474  31.2924557
  13.8134365  33.8122037  29.9588523  14.1754351  33.4447803  30.5485794
  12.1166040  16.9740030  34.1187616  11.2459598  16.9478751  34.0720925
  12.3706381  16.8017222  33.3013461  12.0259600  16.9450174  33.9907753
   9.0884019  29.0307997  23.0560759   9.3776544  29.8072879  23.3304333
   9.1755818  28.5196728  23.7575258   9.1438276  29.0699915  23.2003257
   9.1415180  18.9846259  35.5761086   8.6253669  18.2926450  35.7012665
   8.5809109  19.6517036  35.5223685   8.9821694  18.9809516  35.5867152
  11.2107414  19.5239219  37.4053939  10.8239167  19.5488250  38.1867469
  10.7240351  18.9580897  36.9528455  11.0819923  19.4434969  37.4541842
  17.1857393  26.0901873  36.0293641  16.7585001  26.0028222  35.2741740
  16.5483446  26.1979649  36.6148485  17.0287001  26.0934533  36.0039082
  10.6778470  21.1977399  41.9690610  11.5051900  20.9262548  42.0249225
  10.6986317  21.9938240  42.3254428  10.8031321  21.2757153  42.0305793
  15.5154650  34.9332536  38.1033082  16.3047028  34.5821601  38.2235164
  15.6898248  35.7468924  37.8409716  15.6574932  35.0018393  38.0820950
   5.2547960  28.3441262  35.1560871   4.4135967  28.2445136  35.3639765
   5.4637968  29.1136742  35.5075192   5.1612653  28.4433305  35.2388186
   2.7323527  25.9660798  32.9845622   2.3380225  26.0403810  32.2095731
   2.1763644  26.3518745  33.5353983   2.5926340  26.0342573  32.9513281
  14.3688474  18.9442092  32.6649500  14.5738067  18.8764400  33.5106498
  14.0414898  19.7500914  32.5970678  14.3503722  19.0528033  32.7809156
   9.0664625  26.2722661  34.4058468   8.7627763  25.7178649  35.0068876
   8.3644046  26.4514871  33.9186503   8.9180835  26.2167443  34.4228174
   8.1230722  23.5823181  28.9703170   8.3990457  22.8642093  28.5580738
   8.7229392  24.1808100  28.7624276   8.2523987  23.5643551  28.8783931
  17.6222162  19.4973857  32.1452266  17.0096475  19.9844259  32.5305998
  17.7186337  18.8217348  32.6889917  17.5460059  19.4692165  32.2831124
  11.6241243  21.2536698  27.2449765  12.0784989  21.4247258  27.9697610
  12.0981289  20.6404809  26.8447541  11.7609563  21.1887583  27.2923527
   5.5417391  21.8987022  37.2420521   6.0018873  21.9725951  37.9795645
   5.5873498  22.6968276  36.8920343   5.6167946  22.0281169  37.2993278
  21.2647190  30.5690794  37.5729782  21.3230313  31.0177442  38.3189759
  20.6313657  30.9789606  37.1359862  21.1798485  30.6964528  37.6182330
  14.9046284  36.1894335  34.0084528  14.7065973  36.6785150  33.3140740
  14.2833995  36.3935577  34.5868662  14.7833849  36.2910874  33.9907751
   8.9654263  27.9579232  28.3494772   9.7096308  28.3453509  28.5877722
   9.1114959  27.1136658  28.5135260   9.0964848  27.8909705  28.4088742
  10.8833838  19.7529491  33.3826634  10.0369883  19.9252299  33.2567984
  10.8804971  18.9478835  33.7192462  10.7580988  19.6590520  33.4137761
  11.9532139  23.5304706  34.2488692  11.4792093  23.0046468  34.7594003
  12.3250274  22.9834178  33.6803553  11.9382028  23.3720702  34.2403839
  18.2168869  28.5907081  35.6595472  17.9767092  27.7513496  35.6637899
  18.6960876  28.6707248  36.3836246  18.2521053  28.4788481  35.7670275
  20.2174056  25.3708538  33.6124731  19.9783826  25.3304373  32.7745516
  20.3807957  26.2179690  33.7390453  20.2064360  25.4900623  33.5078213
  16.8220086  29.7558488  39.5429777  17.5454285  29.3031014  39.3640797
  16.5570049  30.0363153  38.7602104  16.8901360  29.7309456  39.4008492
   5.6906955  24.3518661  36.2782656   5.0660025  24.3637053  35.6708608
   5.3552550  24.8278836  36.9273896   5.5492447  24.4237178  36.2839224
   5.8748703  22.6943780  22.3355341   5.5261508  23.3463505  22.7986890
   5.3945149  22.6800893  21.6079212   5.7518947  22.7886833  22.2966432
  13.4352721  32.9944824  26.4424103  14.1586920  33.4602937  26.2988676
  12.9953312  33.0618433  25.6921700  13.4768413  33.0728660  26.3108884
  12.6038876  29.8542366  37.6924792  11.9895869  29.3100416  37.9873427
  13.1206161  29.3406602  37.2130608  12.5894538  29.6978775  37.6649020
  11.8435173  30.9246636  35.4269090  11.4162781  30.2996355  34.9934526
  11.8360117  30.6421558  36.2528098  11.7794314  30.7899417  35.4848918
  12.9018003  18.1273045  39.0508314  12.4058564  18.3236719  38.3599880
  13.6587065  18.5265713  38.8797115  12.9404828  18.2150778  38.9228451
  10.1720883  21.8015391  35.6411624  10.1963370  21.2675503  34.9524404
  10.4232356  21.2932699  36.3037215  10.2130801  21.6476294  35.6376269
   6.4522205  20.5286209  35.0217369   6.4920577  21.0295415  35.7352076
   5.6271870  20.6196602  34.7523292   6.3361731  20.6168025  35.0867907
   7.8736568  27.0446719  37.3191268   7.0428498  27.2120537  37.1126516
   7.8188086  26.6682669  38.1040153   7.7425983  27.0136450  37.4039796
   6.2472612  25.3202310  27.8481385   6.3875573  25.8174774  28.5510027
   6.7455145  24.6188605  27.9895599   6.3413693  25.2904289  27.9732964
   6.2772835  26.1869421  25.1773962   6.9117914  26.7829846  25.1123424
   6.3598445  25.8872879  25.9919832   6.3829386  26.2310329  25.2877049
  19.2555400  28.7184899  38.0460326  19.8473241  29.3582149  38.0778524
  19.6914395  28.0207935  38.3352393  19.4073832  28.7103249  38.0941159
   7.8551817  22.1183397  25.1519404   8.1767658  21.6386479  24.4978666
   8.1178761  22.9283043  24.9610216   7.9417843  22.1673295  25.0274896
  13.2510972  21.5055591  37.5142883  13.6766044  21.0528117  36.9026410
  12.6367965  20.9515661  37.7907671  13.2239618  21.3569567  37.4647908
   2.7825822  28.3837262  28.4463508   3.2918052  28.9801769  28.8274814
   3.2560095  28.1163236  27.7639928   2.9269198  28.4323077  28.4018031
  13.6956570  37.0565529  26.6022164  12.9785880  36.8826391  26.1369401
  14.3463308  36.8218101  26.0697650  13.6858421  36.9961321  26.4551382
  11.6905195  17.9770690  30.9233460  11.0473513  17.8268337  31.4918599
  11.3504602  17.7313036  30.1582565  11.5450273  17.9182813  30.8936475
  16.2804542  25.9330117  30.3463469  15.6095732  26.4759819  30.2176534
  16.9744292  26.4024973  30.1045164  16.2833409  26.0828388  30.2918997
  16.4432669  22.3886001  33.2553842  16.7960279  21.9615724  33.9299641
  15.5847471  22.3036844  33.3854918  16.3682114  22.3130741  33.3748853
   5.1416354  25.0193521  31.3136689   4.4228343  25.4357653  31.5809552
   5.5128716  25.5847759  30.7628327   5.0908286  25.1642802  31.2719496
  14.4415935  25.6521369  37.2038684  14.4213862  25.4704665  38.0573463
  14.4895136  26.5233388  37.1798268  14.4450576  25.7537908  37.3261979
  12.3435027  37.4517373  33.7835928  11.9451310  37.5619643  33.0156749
  11.7286246  37.6599439  34.3662488  12.1933916  37.4990941  33.7567228
  10.9162929  24.0591520  26.6510068  10.3227768  24.3808517  26.0994635
  10.9538206  23.2132616  26.4431174  10.8337318  23.9815849  26.5392839
  17.8756729  17.5104413  34.1838155  17.3687594  16.8033552  34.1159332
  18.6724163  17.1797601  34.3139231  17.9183968  17.3577564  34.1937150
  13.7920745  24.0171025  30.0811818  13.5634438  24.0403726  29.2390176
  14.0518821  23.1928492  30.2006829  13.7966933  23.8987105  29.9737016
   8.0739974  25.8705498  39.6836919   7.5618877  25.2626681  40.0421950
   7.9019470  26.5862090  40.1510894   7.9729611  25.8868797  39.8053142
   6.8465508  22.5547571  31.3766014   7.3222874  22.9164651  30.7416195
   6.3454107  23.2104039  31.6566157   6.8430867  22.7041760  31.3242755
  20.0776869  32.0269339  27.1679019  20.4610475  32.7760695  27.3977116
  19.2820983  32.2735159  26.9091008  20.0170651  32.1739033  27.1636593
  11.9509044  23.7929743  42.1239174  12.5080474  23.5643552  41.4917639
  11.6270109  24.5535408  41.8474386  11.9855454  23.8713579  41.9895671
   8.8892161  24.6988771  24.7439398   9.2691126  24.7168400  23.9590513
   8.1484757  25.1442760  24.6230245   8.8360999  24.7670546  24.6102966
  16.5177451  23.0070962  30.3314977  16.5171678  22.8519619  31.1899253
  16.3133631  23.8533949  30.2756362  16.4877229  23.1091583  30.4502916
  14.2418303  27.6868464  33.9851183  14.7371969  26.9691459  33.9455204
  13.4318079  27.3839262  33.8705670  14.1962197  27.5366110  33.9624909
   9.6876915  31.5366277  26.1348188   8.8788238  31.2132951  26.0881497
  10.1951824  30.8299499  26.0676437   9.6426582  31.3847594  26.1178482
  16.3070122  30.4372151  36.6728312  16.7325194  29.9146573  36.1198737
  15.9427042  31.0352989  36.1516935  16.3156725  30.4482379  36.5137322
  12.8948722  34.1506416  33.0029470  13.3659900  34.8646678  33.1719455
  13.2308900  33.5505166  33.5389339  13.0143837  34.1677880  33.1061846
  13.5322668  33.9424350  39.7657162  12.9843614  33.3182234  39.4977228
  13.9935697  34.1318622  39.0501242  13.5189877  33.8783400  39.6207593
  12.8850572  15.8464212  36.5568658  12.0796535  15.7361942  36.8736496
  12.7557307  15.9476668  35.6998524  12.7470705  15.8447883  36.4776698
  16.3416532  22.0109704  37.1508355  15.7579521  22.5118911  36.7385922
  16.6620826  21.5039261  36.5172678  16.3029708  22.0101539  36.9966862
   8.8811331  20.9250299  27.4267029   9.7027026  21.0948612  27.1848724
   8.4180982  21.0797560  26.7033327   8.9342494  20.9732032  27.2838674
   7.4706663  18.9193061  38.2065458   8.0151076  18.5784188  38.7969800
   7.5243599  19.7778523  38.3486743   7.5595783  18.9948321  38.3147332
  13.0980994  34.9475423  36.2966504  13.9179368  34.8038389  36.5582799
  12.8175072  35.5721621  36.8382941  13.1777738  35.0185775  36.4154443
  29.5694645  42.6040274  29.2609380  29.5388649  43.4584911  29.4327649
  30.1675993  42.3035567  29.8195524  29.6531803  42.6856771  29.3684182
  21.3243253  41.1702594  28.9031419  22.0223417  41.3490722  29.3952882
  21.6395585  40.6472934  28.2801808  21.4738590  41.1196366  28.8833429
  19.4970116  36.5394991  32.9852693  19.1673446  36.9906135  32.3156392
  18.8215118  36.4611154  33.5325700  19.3480553  36.5946126  32.9675917
  26.7046524  32.5280514  31.2302304  26.3899965  33.2183992  31.6622726
  26.1873466  32.4725296  30.5287805  26.5810995  32.6215402  31.1899253
  26.0458958  42.5285015  27.3439715  25.5170429  42.7444648  28.0037021
  26.5683978  43.2221153  27.2640684  26.0447411  42.6628152  27.4295314
  22.3935780  42.6713884  24.6216103  22.6331784  42.8791867  23.8091446
  22.7151621  41.8671392  24.7305048  22.4772938  42.5827985  24.5176656
  17.7026070  34.6007279  28.4675641  18.4572038  34.9685596  28.2292691
  17.5253605  34.9746834  29.2354821  17.7880549  34.7105467  28.5460530
  16.0583135  37.0077598  25.1653754  15.8758708  37.2249479  24.3394747
  16.9208748  37.1216611  25.2212369  16.1587725  37.0567496  25.0508241
  21.7382854  34.0104009  28.2002778  22.4669015  33.8319964  27.7540934
  21.8277747  34.8522089  28.4109956  21.8589516  34.1087887  28.1656296
  15.6045162  40.2851771  23.6776227  14.8903339  39.9989951  24.0898660
  16.0889131  40.6248397  24.3182615  15.5704525  40.2933421  23.8331862
  25.2202849  43.1943545  30.0062285  25.3149703  43.9332839  30.4601910
  24.5961692  42.7661020  30.4396849  25.1411879  43.2404865  30.1370432
  23.9120091  36.9081473  32.8077856  23.2076418  36.4190659  32.9661775
  23.9605066  36.9203947  31.9366300  23.8150143  36.8371121  32.7017196
  25.2953404  34.5288763  35.5655021  25.6763915  33.8466934  35.9522895
  24.4916688  34.2398365  35.3830685  25.2329865  34.3855811  35.5959077
  16.8077141  35.4233483  31.0463825  15.9399566  35.4956082  31.1121435
  17.0952345  36.2255562  31.2351800  16.7216889  35.5527630  31.0838592
  14.7344493  38.8991742  28.4880702  14.4469289  38.5293012  27.7512649
  15.4214961  39.3686597  28.2264407  14.7933390  38.9138711  28.3395777
  23.9760951  35.9993866  30.0472407  24.6787303  35.8001614  29.5692365
  23.7105139  35.2269808  30.3541251  24.0407583  35.8556832  30.0217849
  23.2775012  41.6287223  31.2231593  23.0309726  41.5482974  32.0568381
  23.6060135  40.8440691  31.0294120  23.2896256  41.5013488  31.3179116
  26.1221060  30.6374536  33.1768954  26.2404628  31.0950999  32.4436257
  25.9483235  29.8319797  32.8905171  26.1140231  30.5868308  33.0269888
  23.0898623  32.4925338  34.1187616  22.2192181  32.4664059  34.0720925
  23.3438965  32.3202530  33.3013461  22.9992184  32.4635482  33.9907753
  20.1147764  34.5031566  35.5761086  19.5986253  33.8111758  35.7012665
  19.5541693  35.1702343  35.5223685  19.9554277  34.4994824  35.5867152
  25.3421058  34.4627400  32.6649500  25.5470651  34.3949708  33.5106498
  25.0147482  35.2686222  32.5970678  25.3236306  34.5713341  32.7809156
  19.0963306  39.1008488  28.9703170  19.3723040  38.3827401  28.5580738
  19.6961975  39.6993408  28.7624276  19.2256570  39.0828859  28.8783931
  28.5954745  35.0159165  32.1452266  27.9829059  35.5029567  32.5305998
  28.6918920  34.3402656  32.6889917  28.5192643  34.9877473  32.2831124
  22.5973826  36.7722006  27.2449765  23.0517573  36.9432566  27.9697610
  23.0713872  36.1590117  26.8447541  22.7342146  36.7072891  27.2923527
  16.5149975  37.4172330  37.2420521  16.9751456  37.4911259  37.9795645
  16.5606081  38.2153584  36.8920343  16.5900530  37.5466477  37.2993278
  21.8566422  35.2714799  33.3826634  21.0102467  35.4437607  33.2567984
  21.8537554  34.4664143  33.7192462  21.7313572  35.1775828  33.4137761
  22.9264722  39.0490013  34.2488692  22.4524676  38.5231776  34.7594003
  23.2982858  38.5019486  33.6803553  22.9114611  38.8906010  34.2403839
  24.8548222  39.9426568  27.3114446  24.3271240  40.0255312  26.6220154
  25.3143930  40.6844440  27.3079090  24.8450072  40.0647230  27.2089141
  16.8481287  38.2129088  22.3355341  16.4994091  38.8648813  22.7986890
  16.3677733  38.1986201  21.6079212  16.7251531  38.3072141  22.2966432
  21.1453466  37.3200698  35.6411624  21.1695953  36.7860811  34.9524404
  21.3964940  36.8118007  36.3037215  21.1863385  37.1661602  35.6376269
  17.4254789  36.0471517  35.0217369  17.4653160  36.5480723  35.7352076
  16.6004453  36.1381910  34.7523292  17.3094314  36.1353333  35.0867907
  18.8284401  37.6368705  25.1519404  19.1500242  37.1571787  24.4978666
  19.0911345  38.4468351  24.9610216  18.9150426  37.6858602  25.0274896
  22.6637779  33.4955998  30.9233460  22.0206097  33.3453645  31.4918599
  22.3237186  33.2498344  30.1582565  22.5182856  33.4368121  30.8936475
  27.2537125  41.4515425  30.3463469  26.5828315  41.9945127  30.2176534
  27.9476876  41.9210280  30.1045164  27.2565993  41.6013696  30.2918997
  21.8895512  39.5776828  26.6510068  21.2960351  39.8993825  26.0994635
  21.9270790  38.7317924  26.4431174  21.8069901  39.5001157  26.5392839
  28.8489313  33.0289721  34.1838155  28.3420177  32.3218860  34.1159332
  29.6456747  32.6982909  34.3139231  28.8916552  32.8762872  34.1937150
  24.7653329  39.5356333  30.0811818  24.5367022  39.5589034  29.2390176
  25.0251405  38.7113800  30.2006829  24.7699517  39.4172413  29.9737016
  17.8198091  38.0732879  31.3766014  18.2955457  38.4349959  30.7416195
  17.3186691  38.7289347  31.6566157  17.8163450  38.2227068  31.3242755
  19.8624744  40.2174079  24.7439398  20.2423709  40.2353708  23.9590513
  19.1217340  40.6628068  24.6230245  19.8093582  40.2855854  24.6102966
  27.4910035  38.5256270  30.3314977  27.4904261  38.3704927  31.1899253
  27.2866215  39.3719257  30.2756362  27.4609813  38.6276891  30.4502916
  23.8583155  31.3649520  36.5568658  23.0529119  31.2547250  36.8736496
  23.7289891  31.4661976  35.6998524  23.7203288  31.3633190  36.4776698
  19.8543915  36.4435607  27.4267029  20.6759609  36.6133920  27.1848724
  19.3913566  36.5982868  26.7033327  19.9075077  36.4917340  27.2838674
  18.4439247  34.4378369  38.2065458  18.9883660  34.0969496  38.7969800
  18.4976183  35.2963831  38.3486743  18.5328366  34.5133629  38.3147332
  18.2912885   4.0233098  16.1949427  18.2606889   4.8777734  16.3667696
  18.8894234   3.7228390  16.7535570  18.3750043   4.1049594  16.3024229
  11.4912570   3.1108749  20.9502357  10.6350465   3.2717247  21.0011474
  11.5380224   2.2400813  20.9707418  11.3711681   3.0059550  20.9608423
   5.8753710  12.6471466  16.7139589   5.1236609  12.2687005  16.4855634
   6.3239721  12.6789900  15.9658399   5.8303376  12.5957074  16.5697091
  14.8006286   9.3795274  30.5562813  15.5073054   8.8847305  30.6849748
  14.9894222   9.8204356  29.8265471  14.9334192   9.3713625  30.4671859
  11.3278669  13.0696836  12.1425136  10.9930038  13.7473758  11.7069358
  11.8405540  12.6802147  11.5542007  11.3544251  13.1121414  11.9911927
  10.8682961  15.0211105  18.0836247  11.2522340  15.5898003  17.5441023
  10.8042102  14.2960615  17.6042063  10.9156388  14.9986568  17.9330110
  14.3364391   5.1700793  23.5934009  14.8820351   5.8485879  23.6527978
  14.2781267   5.0288253  22.7335590  14.4080305   5.2492794  23.4746069
   7.4538466  12.6589859  18.9802361   7.5548829  11.8490213  19.2899489
   6.8580211  12.5646805  18.3502040   7.3811004  12.5254887  18.9328600
  16.1129460   6.5985400  14.4667737  15.9968985   7.3493086  14.8959875
  16.9085346   6.3409353  14.7163824  16.2134049   6.6720247  14.5671828
   7.2939205  17.5767448  20.3817217   7.9376661  18.0180612  20.7713376
   7.6195461  16.7720874  20.2947476   7.4371034  17.5232643  20.4262695
   7.9959785  10.5879423  15.7537079   8.3175626  11.1284630  15.1498387
   8.6431882  10.0176194  15.8859369   8.1385840  10.5838598  15.6844114
  10.0461493   2.5895418  15.8371466  10.7441658   2.7683545  16.3292929
  10.3613826   2.0665757  15.2141855  10.1956830   2.5389190  15.8173476
  10.2349429   8.9765863  15.8251257  10.6743064   8.3682963  16.2706030
  10.0854091   8.5973236  15.0536722  10.2770894   8.8304334  15.7770425
   7.7021072   7.5709874  23.0270083   8.3470074   7.0782318  22.7081031
   7.9422849   7.7134661  23.8536161   7.8331657   7.5187317  23.1019616
  10.2407163  10.4164780  22.6776975  10.5230406   9.6216186  22.4563731
  10.9693323  10.8945368  22.6982036  10.3896727  10.3699377  22.6479990
  13.8358765   7.3293044  12.7782026  13.7510060   8.1854011  12.9231595
  14.3243148   7.0537368  13.4464186  13.8947662   7.4150365  12.8984108
  14.7677198   3.9477838  14.2779762  14.2388670   4.1637472  14.9377068
  15.2902218   4.6413977  14.1980731  14.7665651   4.0820975  14.3635361
  20.2225251   9.5224142  19.6512806  19.3922954   9.7334786  19.8146223
  20.1734504   8.6961197  19.3755090  20.0931987   9.4313749  19.6350171
   6.6576806   7.8441055  13.0787229   6.0734021   8.3491086  13.4853093
   6.2546901   7.6183442  12.3383821   6.5116110   7.8849303  13.0292255
   2.2120835  13.5595816  19.8810901   1.7288413  14.2846306  19.8570485
   3.0244153  13.8571946  19.9921059   2.2611582  13.7098170  19.8938180
   8.2834989  12.3527997  22.4860715   7.7661930  11.9935412  21.8822024
   8.9809380  11.8290171  22.4966782   8.3100570  12.2225685  22.3990974
  11.9398581  12.8022811  28.4476889  12.0281927  12.6148951  29.2955099
  12.3688293  12.1560240  28.0481735  12.0160683  12.6785818  28.5148640
   9.5069041  12.0853971  27.4294551   8.9439875  11.6726581  27.9534212
  10.2690064  12.0106876  27.8487694   9.5363489  12.0131371  27.5687551
  11.1154021   4.0906707  11.5556150  11.3550024   4.2984691  10.7431493
  11.4369862   3.2864216  11.6645095  11.1991178   4.0020808  11.4516703
   5.0665032  14.0751992  20.0331181   5.7685611  13.5603981  20.0903937
   4.9862515  14.4026143  20.8378056   5.1588792  14.0466218  20.1603973
  19.7179209   2.1694543  23.4463227  18.8807631   2.2396730  23.6810822
  19.6867440   2.1719038  22.5737530  19.5897492   2.1804770  23.3522775
   6.1143939   4.3127579  29.1611596   6.2864442   4.2033473  30.0096877
   6.6513296   4.9581984  28.9242788   6.2188943   4.3919580  29.2516693
   4.3915807  10.2658344  19.5416789   5.2304707  10.4981277  19.5890551
   4.4227577   9.3962655  19.4723824   4.5197525  10.1715290  19.5381434
   5.0168510  10.6859219  23.8430094   5.5566735  10.5430350  24.5133467
   4.3338457  11.0855970  24.2114121   4.9960664  10.7238890  23.9964516
  14.4409395   6.3650220  19.0375119  15.1966910   6.7981734  19.0764028
  14.5471720   5.7154989  19.6109755  14.5679566   6.3327704  19.1273144
  17.4789566  10.1923497  19.7877522  17.0424798  10.1960239  20.5436493
  17.1452482  10.8728996  19.3557099  17.3652186  10.2935953  19.8358354
  12.0518640  12.2331830  31.1120672  12.8359057  12.3462678  31.4776414
  11.8515235  11.4072967  31.3079358  12.1384665  12.1278549  31.1955058
  12.2089033  14.1441932  24.7587128  11.4104279  13.9041432  25.0160996
  12.6575045  14.1956325  25.5054175  12.1563645  14.1164323  24.9072052
  20.6133913   6.9104417  18.6797159  21.2750347   6.3495085  18.5793067
  19.9725325   6.4156448  19.0049850  20.6162780   6.7540826  18.7129499
  11.5010720  10.2074548  10.9878082  11.9161869   9.8759572  10.2962578
  10.6702650   9.9743450  10.8598219  11.4398729  10.1245804  10.8668930
   0.8299069   7.6918289  21.2776260   0.6474642   7.6665175  20.4248552
   1.5648738   8.1617227  21.3165169   0.9113133   7.7579651  21.1574179
  16.8998743   7.9269799  18.4209148  17.1354333   8.0714998  17.5935998
  17.0488307   8.6912207  18.8140661  16.9564547   8.0608854  18.3572752
   3.8944821   4.4103292  27.7858369   4.6184793   4.3956323  28.2723264
   3.9960957   5.1198647  27.2880337   4.0163030   4.5127995  27.7837156
  18.7289200   6.7671465  16.2578752  19.0597417   7.2999105  15.6518846
  19.3022288   6.8210353  16.9140703  18.8622879   6.8541034  16.2656533
  11.2689770   7.8902377  32.6507316  10.4762751   8.2045889  32.8359936
  11.3838697   8.1053845  31.8128101  11.1685181   7.9686213  32.5545651
  13.9421089   4.6136368  16.9402332  14.0367944   5.3525662  17.3941957
  13.3179933   4.1853843  17.3736896  13.8630119   4.6597688  17.0710479
  12.1973563   7.7922580  27.5892613  12.7712425   7.1549825  27.7441177
  12.1188367   7.7926663  26.7202270  12.2706798   7.6987692  27.4839023
  14.1944111   6.4585108  10.1739284  14.1124273   6.5287295  11.0394271
  14.8323831   7.0214852   9.9823024  14.2763948   6.5524079  10.2729233
   7.5537282   6.2245846  19.6413810   7.2956526   5.3917580  19.6145109
   7.6085764   6.4503459  18.8006310   7.5237060   6.1343617  19.5133947
   6.5271994   3.7783608  20.1278705   5.9521585   3.9375776  20.7642666
   6.1507670   3.1419017  19.6647155   6.3874806   3.7081421  20.1533263
  10.1945282   2.2506957  24.9871083   9.8059715   1.8261175  24.3323274
   9.5299981   2.4989107  25.4948110  10.0392210   2.2245678  24.9658951
  19.8368552   2.0081962  17.7618913  19.5805116   1.1961904  17.5716796
  20.6797866   2.0159529  17.5349101  19.9234577   1.8893959  17.7003730
  11.2984221   6.4805562  13.1847890  12.1124860   6.7720455  13.0730662
  11.2343362   5.8265424  12.6106183  11.4086960   6.4270757  13.0836727
  17.5193711   9.1631558  27.5977466  17.2832348   8.3319623  27.4789526
  18.1636940   9.1117165  28.1832310  17.5788382   9.0329246  27.6663359
   7.1692129   9.9527079  18.3120202   7.8066076   9.7138827  18.8571996
   7.5947201  10.1564238  17.5773363   7.3268295   9.9478090  18.2837360
   1.8604771  12.1915416  22.1954506   1.9008917  12.4630267  21.3674286
   2.4199295  12.7157324  22.6112294   1.9488117  12.3091171  22.1346394
   7.8094944   5.1729369  12.6495092   8.1940097   4.9537076  13.4011637
   7.5606564   5.9992315  12.7796168   7.8297017   5.2627515  12.7796168
  18.5430131   8.9476007  23.6605760  18.2375949   9.6804064  24.0219076
  17.8236347   8.5413936  23.3798546  18.3917474   8.9957740  23.6718897
   9.5513601  10.4299502  19.9913989   9.6252609  10.2674674  20.8455838
  10.3683107  10.6189692  19.7474470   9.6829960  10.4336244  20.0812014
  24.2431924   5.5869008  22.9874105  24.1756424   5.6064967  22.1176691
  24.2287586   6.4299335  23.2129775  24.2310680   5.7142742  22.8926581
   3.3119358  10.7757365  17.0208432   2.4857475  11.0219102  16.8942711
   3.3731349  10.6969446  17.8870490   3.1993525  10.8002314  17.1297376
   8.0918187  13.3934245  14.7227462   8.3816485  13.0023226  13.9986689
   8.8221667  13.5750950  15.1632737   8.2425071  13.3628059  14.6810269
  22.0290541   4.3613394  21.2620699  22.5798463   3.7281463  21.5017791
  22.0134656   4.8928787  21.9536203  22.1075737   4.3462342  21.3999557
   8.6812932   8.1951991  25.8080592   8.1824625   8.9067759  25.8865481
   9.4913156   8.5152658  25.7698755   8.7269039   8.3478840  25.8137161
   6.0324102  15.3701627  17.7887612   5.8124398  15.0798982  18.5814279
   5.8118624  14.7116583  17.2605524   5.9671696  15.2301336  17.8276520
   4.9441049   7.4574944  20.0543313   4.6554298   6.8312415  20.5889041
   5.8124397   7.3995231  20.1207994   5.0301301   7.3562488  20.1434268
  15.7318947   2.6009727  20.3725295  15.3883713   1.8800063  20.7232545
  15.8311990   2.3923579  19.5303653  15.6960990   2.4633931  20.2996975
   8.1992058  16.7431017  16.5718304   8.8516116  16.2107460  16.8009330
   7.5017667  16.3899670  16.9586178   8.1922776  16.6120540  16.6630472
   5.1473323   9.0970195  15.9785678   5.9019291   9.4783234  16.1921141
   4.5543935   9.5481339  16.4332375   5.1710036   9.2199022  16.0768557
  16.1931976   9.0635431  15.9149283  16.7590009   9.7228641  15.8307826
  15.5459880   9.4085130  16.3865685  16.1810733   9.2117373  15.9722040
   6.4671549  10.2678756  21.3525794   5.9452303  10.4079048  22.0377658
   6.8545570   9.5089421  21.5427911   6.4475250  10.1764280  21.4826870
  12.6638554  12.0074216  15.3386362  12.4225230  11.2742076  14.9313427
  12.8439887  12.5561073  14.6852696  12.6546178  11.9796607  15.1816585
   7.8937875   7.2982775  16.7507285   7.6980658   7.9057510  16.1567588
   8.1172221   6.6050719  16.2698959   7.8972516   7.2860301  16.5923366
   6.2916405   4.1837513  16.8688153   7.0139057   4.3478671  16.4091959
   5.8124398   4.9047178  16.7627493   6.3280136   4.3135743  16.7853767
  14.2509913   0.5201312  22.2484838  13.4121013   0.5462591  22.0123101
  14.3214280   1.1672048  22.8290185  14.1378306   0.6197438  22.2993955
   3.9424022   6.5895586  25.9742293   4.4545119   6.8679839  25.3251053
   3.6560364   7.3284880  26.3405106   3.9758885   6.7397939  25.9332171
  18.1267436   5.7269299  19.5346080  18.0401411   5.8824725  20.3880859
  17.6717916   6.3707374  19.1605485  18.0470693   5.8445054  19.6053187
  11.9993253   3.0480046  18.1571639  11.7527967   2.9675797  18.9908428
  12.3278376   2.2633514  17.9634167  12.0114496   2.9206311  18.2519162
  15.8941301   9.7563405  21.9458421  15.7555661  10.4544451  22.4507163
  15.1141299   9.6012062  21.5894602  15.7584528   9.8363572  21.9684695
  14.2319386   6.0559781  28.1980802  14.2267425   5.1839597  28.2023229
  14.9380380   6.2547950  27.7250258  14.3364390   5.9563655  28.1287838
   7.9590280   5.7836765  27.5694622   8.1033656   6.3637973  26.9337732
   8.3065928   6.1613061  28.2744477   8.0317741   5.9257469  27.5793617
  10.1310197   4.9826933  25.3519754   9.3833511   5.1757947  24.9468032
  10.2851722   4.1572153  25.1143875  10.0432625   4.8892044  25.2565160
   7.0318035  13.9739536  24.4355649   7.1807599  13.4142452  23.7829054
   7.8118037  14.0531538  24.8188168   7.1692128  13.9025102  24.3952598
  17.3894674   9.1141659  12.7074920  17.0101483   8.3278797  12.7004209
  16.7260920   9.6628516  12.5646564  17.2353149   9.0786483  12.6855717
   9.5571335  14.1454179  25.7140140   9.4815007  13.4762990  26.2690928
   9.4861195  14.8471967  26.2280806   9.5351942  14.1499087  25.8716988
  10.2141582  12.6655178  16.5463746  10.9791473  12.3964822  16.2246410
  10.1119672  12.1805189  17.2633809  10.3123078  12.5544743  16.6043574
  12.7360243   9.6967362   8.5263695  13.5033228   9.7567487   8.1169547
  12.2891552   9.1247803   8.0420014  12.7833670   9.6203938   8.3941406
  13.6338038   8.5022018  20.8116428  12.9583040   8.2707250  21.3129815
  13.6430414   7.8943201  20.1858533  13.5356543   8.3780943  20.7932580
  10.7632182   3.3439847  27.5680481  10.6991324   4.2049803  27.4400617
  10.9029370   3.0271840  26.7676032  10.7747652   3.4240013  27.4308694
  15.6354773  11.3587150  13.0426606  15.7174610  12.1654136  12.7188057
  16.1204515  11.3783109  13.7667379  15.7191931  11.4807813  13.1013504
   9.4451276   6.0371986  21.7096684   9.0213525   6.2376485  20.9735702
   9.2696131   5.1900834  21.8220983   9.3562157   5.9420768  21.6170374
   8.9462970  17.5522499  24.1718141   9.4358900  16.8533288  23.9893805
   8.3747202  17.2546369  24.7594198   8.9347500  17.4048723  24.2319182
   4.7333721   6.5324038  17.1424656   4.8898340   6.4670840  17.9980648
   5.0734314   7.3072590  16.9303336   4.8066956   6.6373236  17.2379250
  11.2712866   5.9081921  16.0118019  11.8128411   5.4052302  16.4756640
  11.5859425   5.8547116  15.2007505  11.3977263   5.8261342  15.9601831
  15.1429973  10.1184568  33.1244932  15.9564839   9.8469717  33.2850064
  14.9824940   9.8192108  32.3205127  15.2399922  10.0339494  33.0290337
   9.4399316  11.2999273  13.2958047   9.5092136  10.4413811  13.4351048
  10.2187771  11.5171154  12.9677072   9.5652166  11.2052137  13.2675205
  12.4202135   0.8018226  26.0640320  12.6344105   0.1629140  25.5103674
  11.8036034   1.2464049  25.6348182  12.3607464   0.7728369  25.9190751
  13.8306803  13.7236974  17.5094541  13.4386595  13.4203689  16.7917407
  13.9859875  14.5606064  17.3199494  13.7960393  13.8020811  17.3751038
  14.5841223   2.4107291  27.0023627  13.7717905   2.1033181  27.0836800
  15.0431158   1.9306291  27.5666339  14.5321608   2.2943783  27.0978221
  13.9946478  10.2886963  17.4500571  13.6361133  10.4601606  18.2264604
  13.5085189  10.7500168  16.8928570  13.8705175  10.3825934  17.4825840
   8.7834843   5.9686128   9.9900806   9.0727368   6.7451011  10.2644380
   8.8706642   5.4574860  10.6915305   8.8389100   6.0078047  10.1343303
  15.1551217  11.1790859  28.3967772  15.7930938  10.6851054  28.0630228
  14.5125309  11.1068259  27.8119999  15.1545444  11.0949867  28.2610127
  16.8808217   3.0280005  22.9633688  16.4535825   2.9406353  22.2081787
  16.2434270   3.1357780  23.5488532  16.7237825   3.0312665  22.9379129
  15.2105474  11.8710667  25.0373129  15.9997852  11.5199732  25.1575210
  15.3849072  12.6847055  24.7749763  15.3525755  11.9396524  25.0160997
   4.9498784   5.2819393  22.0900918   4.1086791   5.1823267  22.2979812
   5.1588792   6.0514873  22.4415238   4.8563477   5.3811436  22.1728233
   8.7615449   3.2100792  21.3398515   8.4578587   2.6556780  21.9408923
   8.0594870   3.3893002  20.8526549   8.6131659   3.1545574  21.3568221
   6.8233800  10.4250513  26.0470613   6.7154155  10.4352575  26.9132671
   7.0329582  11.2505293  25.8575567   6.8383911  10.5491587  26.1474705
   4.8407592   7.6763155  23.5092551   4.2495525   8.3172653  23.4795566
   5.6028616   8.1000772  23.4823850   4.8655853   7.8338993  23.5007698
  20.9598014   7.5068925  24.5069829  21.0181137   7.9555573  25.2529805
  20.3264481   7.9167738  24.0699909  20.8749309   7.6342659  24.5522377
  14.5997108  13.1272467  20.9424575  14.4016797  13.6163281  20.2480786
  13.9784819  13.3313708  21.5208708  14.4784673  13.2289005  20.9247798
   8.6605087   4.8957363  15.2834819   9.4047132   5.2831640  15.5217769
   8.8065783   4.0514789  15.4475307   8.7915672   4.8287836  15.3428789
  11.6482963   0.4682837  21.1828739  11.1742917  -0.0575401  21.6934050
  12.0201098  -0.0787690  20.6143600  11.6332852   0.3098833  21.1743886
  17.9119693   5.5285212  22.5935519  17.6717916   4.6891628  22.5977946
  18.3911700   5.6085379  23.3176293  17.9471877   5.4166612  22.7010321
  13.5766462   1.3619391  14.2454492  13.0489481   1.4448135  13.5560201
  14.0362170   2.1037263  14.2419137  13.5668313   1.4840054  14.1429188
  19.9124880   2.3086670  20.5464778  19.6734650   2.2682504  19.7085563
  20.0758781   3.1557822  20.6730499  19.9015184   2.4278755  20.4418260
  16.5170910   6.6936619  26.4769823  17.2405109   6.2409145  26.2980843
  16.2520873   6.9741285  25.6942151  16.5852184   6.6687587  26.3348539
   2.0983454   9.3497253  24.6526467   1.5683379   8.6589691  24.7021442
   2.3708548   9.3407438  23.8239175   2.0608177   9.2464384  24.5373883
  13.1303545   9.9322955  13.3764149  13.8537744  10.3981068  13.2328723
  12.6904136   9.9996565  12.6261747  13.1719237  10.0106792  13.2448931
  12.2989700   6.7920497  24.6264839  11.6846693   6.2478547  24.9213474
  12.8156985   6.2784734  24.1470655  12.2845362   6.6356906  24.5989067
  11.5385997   7.8624767  22.3609137  11.1113605   7.2374486  21.9274573
  11.5310941   7.5799689  23.1868144  11.4745138   7.7277548  22.4188965
   8.3302642   7.0325080  30.0577710   7.4798272   7.1696794  30.1935355
   8.4930769   6.2988858  30.5025412   8.2286505   6.9439181  30.1433309
   7.5687392   3.9824850  24.2531314   6.7379322   4.1498668  24.0466563
   7.5138909   3.6060801  25.0380200   7.4376807   3.9514581  24.3379843
   5.9723658   3.1247552  12.1114009   6.6068738   3.7207977  12.0463471
   6.0549269   2.8251010  12.9259879   6.0780209   3.1688461  12.2217096
  18.9506224   5.6563030  24.9800373  19.5424065   6.2960280  25.0118571
  19.3865219   4.9586066  25.2692440  19.1024655   5.6481380  25.0281206
  10.7799614  10.0780402  25.6058267  10.2724705  10.6316249  26.0498898
  10.4826260  10.1388692  24.7877042  10.6604499  10.1686713  25.5506724
  12.9461796  -1.5566278  24.4482930  13.3716868  -2.0093752  23.8366456
  12.3318789  -2.1106208  24.7247718  12.9190442  -1.7052302  24.3987955
   2.4776646   5.3215393  15.3803555   2.9868876   5.9179901  15.7614861
   2.9510919   5.0541367  14.6979975   2.6220022   5.3701209  15.3358078
  13.3907394  13.9943660  13.5362211  12.6736704  13.8204522  13.0709448
  14.0414132  13.7596232  13.0037697  13.3809245  13.9339452  13.3891428
  15.9755366   2.8708248  17.2803516  15.3046556   3.4137951  17.1516581
  16.6695116   3.3403104  17.0385210  15.9784233   3.0206520  17.2259043
  10.0242099  15.0104960  22.5115274   9.8007754  14.2523790  22.8799300
   9.5351943  15.0402982  21.7895714   9.9185548  14.9027185  22.4592015
  16.1383493  -0.6735868  20.1893889  16.4911103  -1.1006145  20.8639688
  15.2798295  -0.7585024  20.3194965  16.0632938  -0.7491127  20.3088899
  14.1366759   2.5899501  24.1378731  14.1164686   2.4082796  24.9913510
  14.1845960   3.4611519  24.1138315  14.1401400   2.6916039  24.2602026
  12.0813089   9.1786693  30.0627208  12.0408944   8.5336370  29.4772364
  12.8936407   9.1223310  30.3752620  12.1956242   9.0745659  30.0224157
   8.6720556  15.2305418  19.9652359   8.2580955  14.5679549  19.5756200
   9.3567931  15.3783277  19.4448053   8.7118928  15.1546077  19.8308856
  12.0385850  14.3895504  20.7175975  11.6402134  14.4997774  19.9496795
  11.4237070  14.5977570  21.3002535  11.8884740  14.4369072  20.6907275
  10.6113752   0.9969652  13.5850115  10.0178592   1.3186648  13.0334682
  10.6489030   0.1510747  13.3771221  10.5288142   0.9193980  13.4732886
  13.4871569   0.9549156  17.0151865  13.2585262   0.9781858  16.1730223
  13.7469645   0.1306623  17.1346876  13.4917757   0.8365236  16.9077063
   7.7690797   2.8083629  26.6176965   7.2569701   2.2004812  26.9761997
   7.5970294   3.5240222  27.0850941   7.6680435   2.8246928  26.7393189
  19.7727693   8.9647470  14.1019066  20.1561299   9.7138827  14.3317163
  18.9771806   9.2113290  13.8431055  19.7121475   9.1117164  14.0976639
  11.6459868   0.7307874  29.0579221  12.2031298   0.5021683  28.4257686
  11.3220933   1.4913539  28.7814433  11.6806278   0.8091710  28.9235718
   9.3642985   3.8175527  30.0231228  10.1154312   4.1327204  30.3370782
   9.5565562   3.6154698  29.1965150   9.5034399   3.8342909  29.9474624
  16.2128275  -0.0550907  17.2655023  16.2122502  -0.2102250  18.1239300
  16.0084455   0.7912080  17.2096409  16.1828053   0.0469714  17.3842963
  13.9369127   4.6246595  20.9191230  14.4322793   3.9069590  20.8795251
  13.1268903   4.3217393  20.8045717  13.8913021   4.4744241  20.8964956
   9.3827739   8.4744408  13.0688235   8.5739062   8.1511082  13.0221544
   9.8902648   7.7677631  13.0016483   9.3377406   8.3225725  13.0518529
  16.0020946   7.3750283  23.6068359  16.4276018   6.8524705  23.0538784
  15.6377866   7.9731120  23.0856982  16.0107549   7.3860510  23.4477369
   5.6375026  15.6714500  22.3665705   5.9521585  16.4850889  22.3743486
   6.0468439  15.2864719  23.0347864   5.7443124  15.7343203  22.4669796
  12.5899546  11.0884547  19.9369517  13.0610724  11.8024810  20.1059502
  12.9259724  10.4883297  20.4729386  12.7094661  11.1056011  20.0401892
  14.6776530  12.6985860  32.1161589  14.7873496  11.9094421  32.4718336
  15.0067427  12.6091797  31.3135927  14.7428936  12.5691713  32.0503979
  13.2273492  10.8802481  26.6997209  12.6794438  10.2560365  26.4317274
  13.6886521  11.0696753  25.9841289  13.2140701  10.8161531  26.5547640
  16.0367356  -1.0512164  24.0848401  15.4530345  -0.5502958  23.6725969
  16.3571650  -1.5582608  23.4512725  15.9980532  -1.0520329  23.9306909
   2.9788046   9.6187609  22.0144313   3.5832903   9.5783443  21.3858134
   2.7715359  10.4658761  22.0448369   3.0376943   9.7375611  21.9260429
  12.7931818  11.8853554  23.2306550  13.6130192  11.7416520  23.4922846
  12.5125896  12.5099753  23.7722988  12.8728562  11.9563906  23.3494490
  29.2645469  19.5418405  16.1949427  29.2339473  20.3963042  16.3667696
  29.8626817  19.2413698  16.7535570  29.3482626  19.6234902  16.3024229
  16.8486293  28.1656774  16.7139589  16.0969193  27.7872313  16.4855634
  17.2972305  28.1975208  15.9658399  16.8035960  28.1142382  16.5697091
  25.7738870  24.8980582  30.5562813  26.4805637  24.4032613  30.6849748
  25.9626805  25.3389664  29.8265471  25.9066776  24.8898932  30.4671859
  22.3011253  28.5882144  12.1425136  21.9662622  29.2659065  11.7069358
  22.8138123  28.1987455  11.5542007  22.3276834  28.6306722  11.9911927
  21.8415544  30.5396413  18.0836247  22.2254924  31.1083311  17.5441023
  21.7774686  29.8145923  17.6042063  21.8888972  30.5171876  17.9330110
  18.4271049  28.1775167  18.9802361  18.5281412  27.3675520  19.2899489
  17.8312795  28.0832113  18.3502040  18.3543588  28.0440195  18.9328600
  27.0862043  22.1170708  14.4667737  26.9701569  22.8678394  14.8959875
  27.8817930  21.8594661  14.7163824  27.1866633  22.1905554  14.5671828
  18.2671789  33.0952756  20.3817217  18.9109244  33.5365920  20.7713376
  18.5928044  32.2906182  20.2947476  18.4103618  33.0417950  20.4262695
  11.6236094  24.1995453  18.6054695  11.3886278  23.3663105  18.4986964
  11.7621734  24.4800119  17.7915896  11.6091756  24.1178956  18.4697050
  13.9226181  16.3681184  21.5039003  13.3031213  15.7773831  21.3349017
  13.8210045  16.9592619  20.8703326  13.8163857  16.3685266  21.3843992
  18.9692369  26.1064731  15.7537079  19.2908210  26.6469938  15.1498387
  19.6164465  25.5361502  15.8859369  19.1118424  26.1023906  15.6844114
  13.6495314  19.9133465  23.7482572  13.5254011  20.4995911  24.3832390
  14.3013599  19.4193661  24.0494847  13.7268963  19.9272270  23.8868501
  21.2082012  24.4951171  15.8251257  21.6475648  23.8868271  16.2706030
  21.0586675  24.1158544  15.0536722  21.2503478  24.3489642  15.7770425
  19.1920940  13.4773122  19.9192740  18.8624270  13.9284266  19.2496439
  18.5165942  13.3989285  20.4665747  19.0431377  13.5324257  19.9015964
  24.8091349  22.8478352  12.7782026  24.7242644  23.7039318  12.9231595
  25.2975732  22.5722676  13.4464186  24.8680246  22.9335673  12.8984108
  26.3997348   9.4658645  18.1642351  26.0850789  10.1562124  18.5962773
  25.8824290   9.4103427  17.4627852  26.2761818   9.5593534  18.1239300
  31.1957835  25.0409450  19.6512806  30.3655538  25.2520094  19.8146223
  31.1467087  24.2146505  19.3755090  31.0664570  24.9499057  19.6350171
  17.6309390  23.3626363  13.0787229  17.0466605  23.8676394  13.4853093
  17.2279485  23.1368750  12.3383821  17.4848693  23.4034611  13.0292255
  13.1853418  29.0781124  19.8810901  12.7020997  29.8031614  19.8570485
  13.9976737  29.3757254  19.9921059  13.2344166  29.2283478  19.8938180
  19.2567572  27.8713305  22.4860715  18.7394514  27.5120720  21.8822024
  19.9541964  27.3475479  22.4966782  19.2833153  27.7410993  22.3990974
  22.9131164  28.3208119  28.4476889  23.0014510  28.1334259  29.2955099
  23.3420877  27.6745548  28.0481735  22.9893267  28.1971126  28.5148640
  20.4801624  27.6039279  27.4294551  19.9172459  27.1911888  27.9534212
  21.2422648  27.5292184  27.8487694  20.5096073  27.5316679  27.5687551
  17.3976894  11.5385411  15.4015688  18.1522862  11.9063728  15.1632738
  17.2204429  11.9124965  16.1694868  17.4831373  11.6483598  15.4800577
  16.0397616  29.5937300  20.0331181  16.7418195  29.0789289  20.0903937
  15.9595099  29.9211451  20.8378056  16.1321376  29.5651526  20.1603973
  30.6911793  17.6879851  23.4463227  29.8540214  17.7582038  23.6810822
  30.6600024  17.6904346  22.5737530  30.5630075  17.6990078  23.3522775
  17.0876522  19.8312887  29.1611596  17.2597026  19.7218781  30.0096877
  17.6245880  20.4767292  28.9242788  17.1921526  19.9104888  29.2516693
  15.7533959  13.9455730  12.0993801  15.5709532  14.1627610  11.2734794
  16.6159572  14.0594742  12.1552415  15.8538548  13.9945627  11.9848288
  15.3648391  25.7843652  19.5416789  16.2037290  26.0166585  19.5890551
  15.3960160  24.9147963  19.4723824  15.4930109  25.6900598  19.5381434
  21.4333678  10.9482140  15.1342825  22.1619839  10.7698095  14.6880981
  21.5228571  11.7900220  15.3450003  21.5540340  11.0466019  15.0996342
  28.4522150  25.7108805  19.7877522  28.0157382  25.7145547  20.5436493
  28.1185065  26.3914304  19.3557099  28.3384770  25.8121261  19.8358354
  23.0251224  27.7517138  31.1120672  23.8091640  27.8647985  31.4776414
  22.8247818  26.9258275  31.3079358  23.1117249  27.6463857  31.1955058
  11.3938239  22.4244818  23.9964516  11.1276654  21.6083934  24.1555506
  11.4076803  22.4697973  23.1260031  11.3562961  22.3101723  23.8917998
  28.3719633  12.7522633  22.0306950  29.0145541  12.8220737  22.6168865
  28.6242654  12.0851856  21.5286492  28.5041765  12.6648981  22.0434229
  15.2995986  17.2229902  10.6116274  14.5854163  16.9368082  11.0238707
  15.7839955  17.5626528  11.2522662  15.2655349  17.2311552  10.7671909
  16.1436845  15.9623196  26.6431524  15.4508642  15.4920176  26.8892255
  16.7597173  15.7361501  27.2173231  16.1321375  15.8590328  26.7640676
  23.1821617  29.6627240  24.7587128  22.3836863  29.4226740  25.0160996
  23.6307628  29.7141633  25.5054175  23.1296228  29.6349631  24.9072052
  31.5866496  22.4289725  18.6797159  32.2482930  21.8680393  18.5793067
  30.9457908  21.9341755  19.0049850  31.5895364  22.2726134  18.7129499
  22.4743304  25.7259856  10.9878082  22.8894452  25.3944880  10.2962578
  21.6435234  25.4928758  10.8598219  22.4131313  25.6431112  10.8668930
  11.8031653  23.2103597  21.2776260  11.6207226  23.1850483  20.4248552
  12.5381322  23.6802535  21.3165169  11.8845717  23.2764959  21.1574179
  27.8731327  23.4455107  18.4209148  28.1086916  23.5900306  17.5935998
  28.0220891  24.2097515  18.8140661  27.9297130  23.5794162  18.3572752
  14.8677404  19.9288600  27.7858369  15.5917377  19.9141631  28.2723264
  14.9693541  20.6383955  27.2880337  14.9895613  20.0313303  27.7837156
  29.7021784  22.2856773  16.2578752  30.0330001  22.8184413  15.6518846
  30.2754872  22.3395661  16.9140703  29.8355463  22.3726342  16.2656533
  22.2422354  23.4087685  32.6507316  21.4495335  23.7231196  32.8359936
  22.3571281  23.6239153  31.8128101  22.1417764  23.4871521  32.5545651
  23.1706147  23.3107888  27.5892613  23.7445008  22.6735133  27.7441177
  23.0920950  23.3111971  26.7202270  23.2439381  23.2173000  27.4839023
  11.7702563  20.0897098  21.4275327  12.3476066  19.9533549  22.0667572
  11.0716625  19.6332882  21.6820911  11.7523584  20.0019364  21.5597616
  25.1676694  21.9770416  10.1739284  25.0856857  22.0472603  11.0394271
  25.8056415  22.5400159   9.9823024  25.2496531  22.0709387  10.2729233
  23.6070915  13.8459604  19.7417903  22.9027242  13.3568790  19.9001822
  23.6555890  13.8582079  18.8706347  23.5100967  13.7749252  19.6357242
  30.8101135  17.5267270  17.7618913  30.5537700  16.7147211  17.5716796
  31.6530449  17.5344837  17.5349101  30.8967161  17.4079267  17.7003730
   7.2461396  18.9408991  18.1423145   7.3321648  18.5640859  18.9236675
   7.8737194  18.5669436  17.6643104   7.3517947  18.8294473  18.1868623
  24.9904228  11.4666894  22.4995067  25.3714739  10.7845065  22.8862942
  24.1867512  11.1776496  22.3170732  24.9280689  11.3233943  22.5299123
  28.4926294  24.6816866  27.5977466  28.2564932  23.8504931  27.4789526
  29.1369523  24.6302473  28.1832310  28.5520965  24.5514554  27.6663359
  18.1424713  25.4712387  18.3120202  18.7798659  25.2324135  18.8571996
  18.5679784  25.6749546  17.5773363  18.3000879  25.4663398  18.2837360
  12.8337355  27.7100724  22.1954506  12.8741500  27.9815575  21.3674286
  13.3931879  28.2342632  22.6112294  12.9220701  27.8276479  22.1346394
  18.7827528  20.6914677  12.6495092  19.1672680  20.4722384  13.4011637
  18.5339148  21.5177622  12.7796168  18.8029600  20.7812823  12.7796168
  18.9496068  13.9721092  32.3657676  18.6349509  14.7420655  32.1027239
  18.6286001  13.4091348  31.7809903  18.8554987  14.0031361  32.2399026
  29.5162715  24.4661315  23.6605760  29.2108532  25.1989372  24.0219076
  28.7968931  24.0599244  23.3798546  29.3650057  24.5143048  23.6718897
  20.5246184  25.9484810  19.9913989  20.5985193  25.7859982  20.8455838
  21.3415691  26.1375000  19.7474470  20.6562543  25.9521552  20.0812014
  35.2164507  21.1054315  22.9874105  35.1489007  21.1250275  22.1176691
  35.2020170  21.9484643  23.2129775  35.2043264  21.2328050  22.8926581
  14.2851941  26.2942673  17.0208432  13.4590059  26.5404410  16.8942711
  14.3463932  26.2154754  17.8870490  14.1726108  26.3187622  17.1297376
  16.5027965  12.3611614  17.9803872  15.6350390  12.4334213  18.0461481
  16.7903169  13.1633693  18.1691847  16.4167713  12.4905761  18.0178639
  25.6260854  12.5089473  26.3115194  26.3714446  12.3199284  25.8978619
  25.2098158  13.0347711  25.7529050  25.6745828  12.5591619  26.1679767
  19.0650770  28.9119553  14.7227462  19.3549069  28.5208534  13.9986689
  19.7954251  29.0936258  15.1632737  19.2157654  28.8813367  14.6810269
  33.0023125  19.8798702  21.2620699  33.5531046  19.2466771  21.5017791
  32.9867240  20.4114094  21.9536203  33.0808321  19.8647650  21.3999557
  17.0056686  30.8886935  17.7887612  16.7856981  30.5984290  18.5814279
  16.7851208  30.2301890  17.2605524  16.9404280  30.7486644  17.8276520
  19.1724642  32.2616325  16.5718304  19.8248700  31.7292768  16.8009330
  18.4750250  31.9084978  16.9586178  19.1655359  32.1305848  16.6630472
  16.1205906  24.6155503  15.9785678  16.8751874  24.9968542  16.1921141
  15.5276519  25.0666647  16.4332375  16.1442620  24.7384330  16.0768557
  27.1664560  24.5820739  15.9149283  27.7322592  25.2413949  15.8307826
  26.5192463  24.9270437  16.3865685  27.1543316  24.7302681  15.9722040
  18.5812573  16.5718343  31.1042891  17.7712349  16.8776123  30.9932733
  19.0587260  17.2923926  31.2195475  18.5316052  16.7232944  31.1049962
  14.4295317  15.8369873  15.4220748  14.1420113  15.4671143  14.6852696
  15.1165785  16.3064728  15.1604453  14.4884214  15.8516842  15.2735824
  23.6371138  27.5259524  15.3386362  23.3957814  26.7927384  14.9313427
  23.8172471  28.0746381  14.6852696  23.6278762  27.4981915  15.1816585
  18.8670459  22.8168083  16.7507285  18.6713241  23.4242818  16.1567588
  19.0904804  22.1236027  16.2698959  18.8705100  22.8045609  16.5923366
  17.2648989  19.7022821  16.8688153  17.9871641  19.8663979  16.4091959
  16.7856981  20.4232486  16.7627493  17.3012719  19.8321051  16.7853767
  23.6711774  12.9371997  16.9812454  24.3738127  12.7379745  16.5032412
  23.4055963  12.1647939  17.2881297  23.7358407  12.7934963  16.9557896
  29.1000020  21.2454607  19.5346080  29.0133995  21.4010033  20.3880859
  28.6450500  21.8892682  19.1605485  29.0203277  21.3630362  19.6053187
  12.0023512  16.6151086  16.2706029  12.1039648  17.4177247  16.5987005
  12.7979398  16.4138421  15.9729110  12.1351417  16.7036984  16.2741385
  18.4340331  14.2007282  26.0343335  18.2423528  14.2162417  26.8842758
  19.2838927  14.3970957  26.0109989  18.5316053  14.2321633  26.1566629
  12.8187244  16.7298264  24.0127151  12.6772736  15.8782204  24.1371659
  13.1027807  16.7726924  23.1889357  12.8395090  16.6098014  23.9094775
  26.8673885  25.2748713  21.9458421  26.7288244  25.9729759  22.4507163
  26.0873883  25.1197370  21.5894602  26.7317112  25.3548880  21.9684695
  25.2051970  21.5745089  28.1980802  25.2000009  20.7024905  28.2023229
  25.9112964  21.7733258  27.7250258  25.3096974  21.4748963  28.1287838
  18.0050618  29.4924844  24.4355649  18.1540182  28.9327760  23.7829054
  18.7850620  29.5716846  24.8188168  18.1424712  29.4210410  24.3952598
  28.3627258  24.6326967  12.7074920  27.9834066  23.8464105  12.7004209
  27.6993503  25.1813824  12.5646564  28.2085733  24.5971791  12.6855717
  20.5303919  29.6639487  25.7140140  20.4547590  28.9948298  26.2690928
  20.4593778  30.3657275  26.2280806  20.5084526  29.6684395  25.8716988
  21.3444558  14.3962792  26.2415158  21.8017172  15.1286766  26.3687950
  21.4200887  13.9729257  27.0002414  21.4235528  14.4420030  26.3716234
  13.5877549  14.6428611  27.3304601  13.0519738  14.0308969  27.6465369
  13.6495314  15.2176747  27.9838268  13.5173182  14.6375539  27.4740028
  25.8171884   7.5752667  20.1109001  25.9355452   8.0329130  19.3776303
  25.6434059   6.7697928  19.8245218  25.8091055   7.5246439  19.9609934
  21.1874166  28.1840486  16.5463746  21.9524057  27.9150130  16.2246410
  21.0852256  27.6990496  17.2633809  21.2855661  28.0730051  16.6043574
  23.7092826  25.2152670   8.5263695  24.4765812  25.2752795   8.1169547
  23.2624135  24.6433111   8.0420014  23.7566254  25.1389246   8.3941406
  24.6070622  24.0207326  20.8116428  23.9315624  23.7892558  21.3129815
  24.6162998  23.4128509  20.1858533  24.5089126  23.8966251  20.7932580
  21.7364766  18.8625155  27.5680481  21.6723907  19.7235111  27.4400617
  21.8761954  18.5457148  26.7676032  21.7480236  18.9425321  27.4308694
  26.6087357  26.8772458  13.0426606  26.6907194  27.6839444  12.7188057
  27.0937099  26.8968417  13.7667379  26.6924514  26.9993120  13.1013504
  19.9195553  33.0707807  24.1718141  20.4091484  32.3718596  23.9893805
  19.3479786  32.7731677  24.7594198  19.9080083  32.9234031  24.2319182
  15.7066305  22.0509345  17.1424656  15.8630924  21.9856148  17.9980648
  16.0466898  22.8257898  16.9303336  15.7799540  22.1558544  17.2379250
  26.1162557  25.6369876  33.1244932  26.9297422  25.3655025  33.2850064
  25.9557523  25.3377416  32.3205127  26.2132505  25.5524802  33.0290337
  20.4131899  26.8184581  13.2958047  20.4824719  25.9599119  13.4351048
  21.1920354  27.0356461  12.9677072  20.5384749  26.7237445  13.2675205
  23.3934719  16.3203534  26.0640320  23.6076688  15.6814448  25.5103674
  22.7768618  16.7649357  25.6348182  23.3340048  16.2913677  25.9190751
  24.8039387  29.2422282  17.5094541  24.4119178  28.9388997  16.7917407
  24.9592459  30.0791372  17.3199494  24.7692977  29.3206119  17.3751038
  12.2800566  19.2344296  17.4585423  12.6599531  19.6528841  16.7945691
  11.7055931  19.8157752  17.7654267  12.2511891  19.3822155  17.4062164
  25.5573807  17.9292599  27.0023627  24.7450489  17.6218489  27.0836800
  26.0163741  17.4491599  27.5666339  25.5054192  17.8129091  27.0978221
  24.9679061  25.8072271  17.4500571  24.6093716  25.9786914  18.2264604
  24.4817772  26.2685476  16.8928570  24.8437758  25.9011242  17.4825840
  22.7849447   9.4303469  21.0527663  21.9143005   9.4042190  21.0060972
  23.0389789   9.2580661  20.2353508  22.6943008   9.4013613  20.9247799
  19.7567427  21.4871436   9.9900806  20.0459952  22.2636319  10.2644380
  19.8439226  20.9760168  10.6915305  19.8121683  21.5263354  10.1343303
  22.6527314  19.3352670  31.7852329  23.1226945  19.9594787  32.1720203
  22.6989194  18.6669646  32.3445544  22.7295190  19.3287350  31.9252401
  19.8098588  11.4409698  22.5101133  19.2937077  10.7489889  22.6352712
  19.2492517  12.1080475  22.4563732  19.6505101  11.4372955  22.5207199
  21.8790821  11.9802658  24.3393986  21.4922575  12.0051689  25.1207515
  21.3923759  11.4144336  23.8868502  21.7503330  11.8998409  24.3881889
  26.1283801  26.6976167  28.3967772  26.7663521  26.2036362  28.0630228
  25.4857892  26.6253567  27.8119999  26.1278027  26.6135175  28.2610127
  27.8540801  18.5465313  22.9633688  27.4268409  18.4591661  22.2081787
  27.2166854  18.6543088  23.5488532  27.6970408  18.5497972  22.9379129
  21.5447963   8.8669643  26.6304245  22.1741081   9.4029943  26.3525316
  21.7133826   8.7747002  27.4817811  21.6625758   8.9331005  26.7152774
  21.3461878  13.6540838  28.9030657  22.1735307  13.3825987  28.9589271
  21.3669724  14.4501680  29.2594475  21.4714728  13.7320592  28.9645840
  26.1838057  27.3895975  25.0373129  26.9730436  27.0385040  25.1575210
  26.3581655  28.2032363  24.7749763  26.3258339  27.4581832  25.0160997
  13.4006935  18.4224238  19.9185668  13.0063633  18.4967249  19.1435778
  12.8447052  18.8082184  20.4694030  13.2609747  18.4906012  19.8853328
  25.0371882  11.4005532  19.5989547  25.2421475  11.3327839  20.4446544
  24.7098306  12.2064353  19.5310725  25.0187129  11.5091472  19.7149202
  18.7914130  16.0386620  15.9043217  19.0673864  15.3205532  15.4920785
  19.3912799  16.6371540  15.6964323  18.9207394  16.0206990  15.8123978
  28.2905569  11.9537296  19.0792313  27.6779883  12.4407698  19.4646045
  28.3869744  11.2780787  19.6229964  28.2143467  11.9255605  19.2171171
  22.2924650  13.7100137  14.1789812  22.7468397  13.8810697  14.9037657
  22.7664696  13.0968248  13.7787588  22.4292970  13.6451022  14.2263574
  16.2100798  14.3550461  24.1760568  16.6702280  14.4289390  24.9135692
  16.2556905  15.1531715  23.8260390  16.2851354  14.4844608  24.2333325
  17.8584148  15.0217156  28.7432595  17.4669713  14.3750503  29.1788373
  18.0270011  15.6128591  29.3626851  17.8255059  15.0131423  28.8995301
  31.9330597  23.0254233  24.5069829  31.9913721  23.4740881  25.2529805
  31.2997065  23.4353045  24.0699909  31.8481892  23.1527967  24.5522377
  25.5729692  28.6457775  20.9424575  25.3749381  29.1348589  20.2480786
  24.9517403  28.8499016  21.5208708  25.4517256  28.7474313  20.9247798
  21.5517246  12.2092930  20.3166681  20.7053291  12.3815738  20.1908031
  21.5488378  11.4042274  20.6532509  21.4264396  12.1153959  20.3477808
  12.9988576  17.9839651  26.5512284  13.8614189  17.8835361  26.4649614
  12.6680359  17.4034361  25.9897857  13.0773773  17.8831278  26.4557690
  28.8852277  21.0470520  22.5935519  28.6450500  20.2076936  22.5977946
  29.3644284  21.1270687  23.3176293  28.9204460  20.9351920  22.7010321
  30.8857464  17.8271978  20.5464778  30.6467234  17.7867812  19.7085563
  31.0491365  18.6743130  20.6730499  30.8747767  17.9464063  20.4418260
  27.4903494  22.2121927  26.4769823  28.2137693  21.7594453  26.2980843
  27.2253456  22.4926593  25.6942151  27.5584767  22.1872895  26.3348539
  16.3590362  16.8082100  23.2122703  15.7343432  16.8200492  22.6048655
  16.0235957  17.2842276  23.8613943  16.2175854  16.8800617  23.2179271
  16.5432111  15.1507219   9.2695388  16.1944915  15.8026944   9.7326937
  16.0628557  15.1364332   8.5419259  16.4202355  15.2450272   9.2306479
  24.1036128  25.4508263  13.3764149  24.8270327  25.9166376  13.2328723
  23.6636719  25.5181872  12.6261747  24.1451821  25.5292100  13.2448931
  15.6281108  18.4175248  25.4297571  15.7874594  17.6618572  25.8349293
  15.4474001  18.9666188  26.0838309  15.6246467  18.3869062  25.5860277
  23.5701411  10.5836484  25.9848361  23.0741972  10.7800158  25.2939927
  24.3270473  10.9829152  25.8137162  23.6088235  10.6714218  25.8568497
  20.8404290  14.2578830  22.5751671  20.8646777  13.7238942  21.8864451
  21.0915764  13.7496138  23.2377262  20.8814209  14.1039734  22.5716316
   8.3511880  21.5410325  22.0094815   8.2455329  21.4957169  21.1446899
   7.6012100  21.8864105  22.2909100   8.2247483  21.5851233  21.9232145
  17.1205612  12.9849648  21.9557415  17.1603984  13.4858854  22.6692123
  16.2955277  13.0760042  21.6863339  17.0045138  13.0731464  22.0207954
  19.3035225  22.5510388  30.0577710  18.4530856  22.6882102  30.1935355
  19.4663353  21.8174166  30.5025412  19.2019089  22.4624489  30.1433309
  16.3503759  12.9919051  29.8887725  16.9756462  12.4481183  30.1617157
  15.8954239  12.5113968  29.3195516  16.3752020  12.8408532  29.8449319
  16.9156020  17.7765749  14.7821432  17.0558981  18.2738214  15.4850074
  17.4138552  17.0752044  14.9235646  17.0097101  17.7467728  14.9073011
  16.9456242  18.6432860  12.1114009  17.5801322  19.2393285  12.0463471
  17.0281853  18.3436318  12.9259879  17.0512793  18.6873768  12.2217096
  29.9238808  21.1748338  24.9800373  30.5156648  21.8145588  25.0118571
  30.3597802  20.4771374  25.2692440  30.0757239  21.1666688  25.0281206
  18.5235225  14.5746836  12.0859451  18.8451066  14.0949918  11.4318713
  18.7862169  15.3846482  11.8950263  18.6101250  14.6236734  11.9614943
  21.7532198  25.5965710  25.6058267  21.2457289  26.1501557  26.0498898
  21.4558844  25.6574000  24.7877042  21.6337083  25.6872021  25.5506724
  23.9194380  13.9619030  24.4482930  24.3449451  13.5091556  23.8366456
  23.3051373  13.4079100  24.7247718  23.8923025  13.8133006  24.3987955
  13.4509230  20.8400701  15.3803555  13.9601459  21.4365209  15.7614861
  13.9243502  20.5726675  14.6979975  13.5952606  20.8886517  15.3358078
  24.3639978  29.5128968  13.5362211  23.6469288  29.3389830  13.0709448
  25.0146716  29.2781540  13.0037697  24.3541828  29.4524760  13.3891428
  22.3588603  10.4334129  17.8573507  21.7156921  10.2831776  18.4258646
  22.0188010  10.1876475  17.0922612  22.2133680  10.3746252  17.8276522
  20.9974683  30.5290268  22.5115274  20.7740337  29.7709098  22.8799300
  20.5084526  30.5588289  21.7895714  20.8918132  30.4212493  22.4592015
  27.1116077  14.8449440  20.1893889  27.4643687  14.4179163  20.8639688
  26.2530878  14.7600283  20.3194965  27.0365521  14.7694181  20.3088899
  15.8099762  17.4756960  18.2476735  15.0911751  17.8921092  18.5149599
  16.1812124  18.0411198  17.6968374  15.7591693  17.6206241  18.2059542
  23.0545672  24.6972001  30.0627208  23.0141527  24.0521677  29.4772364
  23.8668991  24.6408618  30.3752620  23.1688826  24.5930967  30.0224157
  19.6453140  30.7490726  19.9652359  19.2313539  30.0864857  19.5756200
  20.3300514  30.8968585  19.4448053  19.6851512  30.6731385  19.8308856
  23.0118434  29.9080812  20.7175975  22.6134717  30.0183082  19.9496795
  22.3969654  30.1162878  21.3002535  22.8617323  29.9554380  20.6907275
  28.5440137   9.9667852  21.1178201  28.0371001   9.2596991  21.0499379
  29.3407570   9.6361041  21.2479278  28.5867376   9.8141003  21.1277196
  18.7423381  18.3268937  26.6176965  18.2302284  17.7190120  26.9761997
  18.5702877  19.0425530  27.0850941  18.6413018  18.3432236  26.7393189
  13.5889096  16.7706512  29.2679327  13.4191686  17.4307887  28.7227534
  13.1455046  16.9813074  29.9891816  13.4988429  16.8992494  29.2940957
  17.5148915  15.0111010  18.3106061  17.9906281  15.3728090  17.6756242
  17.0137515  15.6667478  18.5906204  17.5114274  15.1605199  18.2582802
  30.7460277  24.4832778  14.1019066  31.1293882  25.2324135  14.3317163
  29.9504390  24.7298598  13.8431055  30.6854059  24.6302472  14.0976639
  22.6192451  16.2493182  29.0579221  23.1763882  16.0206991  28.4257686
  22.2953516  17.0098847  28.7814433  22.6538862  16.3277018  28.9235718
  10.4891160  19.6753378  24.5267817   9.9417880  19.0054023  24.6448685
  11.2783538  19.3083226  24.5911284  10.5243344  19.5218364  24.5536518
  20.3375569  19.3360835  30.0231228  21.0886896  19.6512512  30.3370782
  20.5298145  19.1340006  29.1965150  20.4766983  19.3528217  29.9474624
  19.5575568  17.1552210  11.6779445  19.9374533  17.1731839  10.8930560
  18.8168164  17.6006199  11.5570292  19.5044406  17.2233985  11.5443013
  27.1860859  15.4634401  17.2655023  27.1855085  15.3083058  18.1239300
  26.9817039  16.3097388  17.2096409  27.1560637  15.5655022  17.3842963
   9.2478130  18.8874186  21.6813840   9.0699891  18.4350795  22.4068756
   8.9597152  19.6900347  21.8652318   9.1791083  18.9396744  21.8157343
  20.3560322  23.9929716  13.0688235  19.5471645  23.6696390  13.0221544
  20.8635231  23.2862938  13.0016483  20.3109989  23.8411033  13.0518529
  10.9850600  21.4201909  18.7935599  10.1196119  21.4087600  18.6818370
  11.0849416  21.2332132  19.6406738  10.8724767  21.3907971  18.9024543
  26.9753530  22.8935591  23.6068359  27.4008601  22.3710012  23.0538784
  26.6110450  23.4916428  23.0856982  26.9840132  22.9045818  23.4477369
  16.6107610  31.1899808  22.3665705  16.9254168  32.0036197  22.3743486
  17.0201023  30.8050027  23.0347864  16.7175708  31.2528510  22.4669796
  23.5632129  26.6069855  19.9369517  24.0343307  27.3210117  20.1059502
  23.8992308  26.0068605  20.4729386  23.6827244  26.6241319  20.0401892
  25.6509114  28.2171168  32.1161589  25.7606079  27.4279729  32.4718336
  25.9800010  28.1277104  31.3135927  25.7161520  28.0877021  32.0503979
  20.4801624  11.3797325  26.8927611  20.6129530  10.5828319  27.2208587
  20.8646777  11.9063728  27.4725887  20.5557953  11.3397242  27.0271114
  24.2006076  26.3987789  26.6997209  23.6527021  25.7745673  26.4317274
  24.6619104  26.5882061  25.9841289  24.1873285  26.3346839  26.5547640
  23.5533979   8.3027652  23.4908705  22.7479943   8.1925381  23.8076543
  23.4240715   8.4040107  22.6338570  23.4154112   8.3011322  23.4116745
  27.0099940  14.4673143  24.0848401  26.4262929  14.9682350  23.6725969
  27.3304234  13.9602700  23.4512725  26.9713115  14.4664979  23.9306909
  19.5494739  13.3813738  14.3607076  20.3710433  13.5512051  14.1188771
  19.0864390  13.5360999  13.6373374  19.6025901  13.4295471  14.2178721
  18.1390071  11.3756501  25.1405505  18.6834484  11.0347627  25.7309847
  18.1927007  12.2341962  25.2826790  18.2279190  11.4511760  25.2487378
  23.7664402  27.4038862  23.2306550  24.5862776  27.2601828  23.4922846
  23.4858479  28.0285061  23.7722988  23.8461145  27.4749214  23.3494490
   9.1871912  24.1207534  21.8843236   9.0896190  23.3103806  22.1933293
   9.9700782  24.0999327  21.4989504   9.2888048  23.9974624  21.8730099
  40.2378052  35.0603713  16.1949427  40.2072057  35.9148350  16.3667696
  40.8359401  34.7599006  16.7535570  40.3215210  35.1420210  16.3024229
  33.4377737  34.1479364  20.9502357  32.5815633  34.3087863  21.0011474
  33.4845391  33.2771428  20.9707418  33.3176848  34.0430166  20.9608423
  27.8218877  43.6842082  16.7139589  27.0701776  43.3057621  16.4855634
  28.2704888  43.7160516  15.9658399  27.7768544  43.6327689  16.5697091
  36.2829558  36.2071408  23.5934009  36.8285518  36.8856495  23.6527978
  36.2246434  36.0658869  22.7335590  36.3545472  36.2863410  23.4746069
  29.4003633  43.6960474  18.9802361  29.5013996  42.8860828  19.2899489
  28.8045378  43.6017421  18.3502040  29.3276172  43.5625503  18.9328600
  22.5968677  39.7180761  18.6054695  22.3618862  38.8848413  18.4986964
  22.7354318  39.9985427  17.7915896  22.5824340  39.6364264  18.4697050
  24.8958765  31.8866492  21.5039003  24.2763796  31.2959139  21.3349017
  24.7942628  32.4777927  20.8703326  24.7896440  31.8870574  21.3843992
  29.9424952  41.6250038  15.7537079  30.2640793  42.1655246  15.1498387
  30.5897049  41.0546810  15.8859369  30.0851007  41.6209214  15.6844114
  31.9926660  33.6266033  15.8371466  32.6906825  33.8054161  16.3292929
  32.3078993  33.1036373  15.2141855  32.1421997  33.5759806  15.8173476
  24.6227898  35.4318773  23.7482572  24.4986595  36.0181219  24.3832390
  25.2746182  34.9378969  24.0494847  24.7001547  35.4457578  23.8868501
  32.1814596  40.0136478  15.8251257  32.6208231  39.4053579  16.2706030
  32.0319259  39.6343852  15.0536722  32.2236061  39.8674950  15.7770425
  29.6486239  38.6080490  23.0270083  30.2935241  38.1152933  22.7081031
  29.8888016  38.7505277  23.8536161  29.7796824  38.5557932  23.1019616
  30.1653524  28.9958430  19.9192740  29.8356854  29.4469574  19.2496439
  29.4898526  28.9174593  20.4665747  30.0163960  29.0509565  19.9015964
  35.7823932  38.3663660  12.7782026  35.6975227  39.2224626  12.9231595
  36.2708315  38.0907984  13.4464186  35.8412829  38.4520981  12.8984108
  37.3729932  24.9843953  18.1642351  37.0583373  25.6747432  18.5962773
  36.8556873  24.9288735  17.4627852  37.2494402  25.0778842  18.1239300
  36.7142365  34.9848454  14.2779762  36.1853837  35.2008087  14.9377068
  37.2367385  35.6784592  14.1980731  36.7130818  35.1191591  14.3635361
  28.6041973  38.8811671  13.0787229  28.0199188  39.3861702  13.4853093
  28.2012068  38.6554058  12.3383821  28.4581277  38.9219919  13.0292255
  33.0619188  35.1277323  11.5556150  33.3015191  35.3355307  10.7431493
  33.3835029  34.3234831  11.6645095  33.1456346  35.0391424  11.4516703
  28.3709478  27.0570718  15.4015688  29.1255446  27.4249036  15.1632738
  28.1937013  27.4310273  16.1694868  28.4563956  27.1668906  15.4800577
  28.0609106  35.3498195  29.1611596  28.2329609  35.2404089  30.0096877
  28.5978463  35.9952600  28.9242788  28.1654110  35.4290196  29.2516693
  26.7266543  29.4641037  12.0993801  26.5442116  29.6812918  11.2734794
  27.5892156  29.5780050  12.1552415  26.8271132  29.5130935  11.9848288
  26.3380975  41.3028960  19.5416789  27.1769874  41.5351892  19.5890551
  26.3692744  40.4333271  19.4723824  26.4662692  41.2085906  19.5381434
  26.9633678  41.7229835  23.8430094  27.5031903  41.5800966  24.5133467
  26.2803624  42.1226586  24.2114121  26.9425831  41.7609506  23.9964516
  32.4066262  26.4667448  15.1342825  33.1352422  26.2883403  14.6880981
  32.4961155  27.3085528  15.3450003  32.5272924  26.5651327  15.0996342
  36.3874562  37.4020836  19.0375119  37.1432077  37.8352350  19.0764028
  36.4936887  36.7525605  19.6109755  36.5144733  37.3698319  19.1273144
  22.3670823  37.9430126  23.9964516  22.1009238  37.1269242  24.1555506
  22.3809387  37.9883281  23.1260031  22.3295545  37.8287030  23.8917998
  39.3452216  28.2707941  22.0306950  39.9878125  28.3406045  22.6168865
  39.5975237  27.6037163  21.5286492  39.4774349  28.1834289  22.0434229
  26.2728570  32.7415210  10.6116274  25.5586747  32.4553390  11.0238707
  26.7572538  33.0811836  11.2522662  26.2387933  32.7496860  10.7671909
  27.1169429  31.4808504  26.6431524  26.4241226  31.0105484  26.8892255
  27.7329756  31.2546808  27.2173231  27.1053959  31.3775636  26.7640676
  22.7764236  38.7288905  21.2776260  22.5939810  38.7035791  20.4248552
  23.5113905  39.1987843  21.3165169  22.8578300  38.7950267  21.1574179
  25.8409988  35.4473908  27.7858369  26.5649960  35.4326939  28.2723264
  25.9426124  36.1569263  27.2880337  25.9628197  35.5498611  27.7837156
  35.8886256  35.6506984  16.9402332  35.9833111  36.3896278  17.3941957
  35.2645100  35.2224459  17.3736896  35.8095286  35.6968304  17.0710479
  34.1438730  38.8293196  27.5892613  34.7177592  38.1920441  27.7441177
  34.0653534  38.8297279  26.7202270  34.2171965  38.7358308  27.4839023
  22.7435147  35.6082406  21.4275327  23.3208649  35.4718857  22.0667572
  22.0449208  35.1518190  21.6820911  22.7256168  35.5204672  21.5597616
  29.5002449  37.2616461  19.6413810  29.2421693  36.4288196  19.6145109
  29.5550932  37.4874074  18.8006310  29.4702227  37.1714233  19.5133947
  34.5803499  29.3644912  19.7417903  33.8759826  28.8754098  19.9001822
  34.6288473  29.3767387  18.8706347  34.4833551  29.2934560  19.6357242
  28.4737161  34.8154224  20.1278705  27.8986752  34.9746392  20.7642666
  28.0972837  34.1789633  19.6647155  28.3339973  34.7452037  20.1533263
  32.1410450  33.2877573  24.9871083  31.7524882  32.8631791  24.3323274
  31.4765148  33.5359723  25.4948110  31.9857377  33.2616294  24.9658951
  18.2193980  34.4594299  18.1423145  18.3054232  34.0826167  18.9236675
  18.8469777  34.0854744  17.6643104  18.3250531  34.3479781  18.1868623
  35.9636811  26.9852202  22.4995067  36.3447323  26.3030373  22.8862942
  35.1600095  26.6961804  22.3170732  35.9013273  26.8419250  22.5299123
  33.2449388  37.5176178  13.1847890  34.0590027  37.8091071  13.0730662
  33.1808529  36.8636040  12.6106183  33.3552127  37.4641373  13.0836727
  29.1157296  40.9897695  18.3120202  29.7531243  40.7509443  18.8571996
  29.5412368  41.1934854  17.5773363  29.2733462  40.9848705  18.2837360
  29.7560111  36.2099985  12.6495092  30.1405264  35.9907692  13.4011637
  29.5071731  37.0362930  12.7796168  29.7762184  36.2998131  12.7796168
  29.9228652  29.4906400  32.3657676  29.6082093  30.2605963  32.1027239
  29.6018584  28.9276656  31.7809903  29.8287571  29.5216669  32.2399026
  31.4978768  41.4670118  19.9913989  31.5717776  41.3045290  20.8455838
  32.3148274  41.6560307  19.7474470  31.6295127  41.4706860  20.0812014
  25.2584525  41.8127981  17.0208432  24.4322642  42.0589718  16.8942711
  25.3196516  41.7340062  17.8870490  25.1458692  41.8372930  17.1297376
  27.4760549  27.8796922  17.9803872  26.6082974  27.9519521  18.0461481
  27.7635753  28.6819001  18.1691847  27.3900297  28.0091069  18.0178639
  36.5993437  28.0274781  26.3115194  37.3447029  27.8384591  25.8978619
  36.1830742  28.5533019  25.7529050  36.6478412  28.0776926  26.1679767
  30.6278099  39.2322607  25.8080592  30.1289793  39.9438375  25.8865481
  31.4378323  39.5523273  25.7698755  30.6734206  39.3849455  25.8137161
  26.8906217  38.4945560  20.0543313  26.6019465  37.8683031  20.5889041
  27.7589565  38.4365847  20.1207994  26.9766468  38.3933104  20.1434268
  37.6784114  33.6380343  20.3725295  37.3348880  32.9170678  20.7232545
  37.7777157  33.4294194  19.5303653  37.6426157  33.5004546  20.2996975
  27.0938490  40.1340811  15.9785678  27.8484458  40.5153850  16.1921141
  26.5009103  40.5851955  16.4332375  27.1175204  40.2569638  16.0768557
  29.5545157  32.0903651  31.1042891  28.7444933  32.3961431  30.9932733
  30.0319844  32.8109234  31.2195475  29.5048636  32.2418252  31.1049962
  28.4136717  41.3049372  21.3525794  27.8917470  41.4449664  22.0377658
  28.8010737  40.5460037  21.5427911  28.3940417  41.2134896  21.4826870
  25.4027901  31.3555181  15.4220748  25.1152696  30.9856451  14.6852696
  26.0898369  31.8250036  15.1604453  25.4616798  31.3702150  15.2735824
  29.8403042  38.3353391  16.7507285  29.6445825  38.9428126  16.1567588
  30.0637388  37.6421335  16.2698959  29.8437683  38.3230917  16.5923366
  28.2381572  35.2208129  16.8688153  28.9604224  35.3849287  16.4091959
  27.7589565  35.9417794  16.7627493  28.2745303  35.3506359  16.7853767
  36.1975080  31.5571928  22.2484838  35.3586180  31.5833207  22.0123101
  36.2679447  32.2042663  22.8290185  36.0843473  31.6568054  22.2993955
  25.8889189  37.6266202  25.9742293  26.4010286  37.9050455  25.3251053
  25.6025531  38.3655496  26.3405106  25.9224052  37.7768555  25.9332171
  34.6444358  28.4557305  16.9812454  35.3470711  28.2565053  16.5032412
  34.3788547  27.6833247  17.2881297  34.7090990  28.3120271  16.9557896
  22.9756095  32.1336393  16.2706029  23.0772232  32.9362555  16.5987005
  23.7711982  31.9323729  15.9729110  23.1084001  32.2222292  16.2741385
  29.4072914  29.7192590  26.0343335  29.2156111  29.7347725  26.8842758
  30.2571510  29.9156264  26.0109989  29.5048636  29.7506941  26.1566629
  23.7919827  32.2483572  24.0127151  23.6505319  31.3967512  24.1371659
  24.0760391  32.2912232  23.1889357  23.8127673  32.1283322  23.9094775
  33.9458420  34.0850662  18.1571639  33.6993134  34.0046413  18.9908428
  34.2743543  33.3004130  17.9634167  33.9579663  33.9576927  18.2519162
  36.1784554  37.0930397  28.1980802  36.1732592  36.2210213  28.2023229
  36.8845547  37.2918566  27.7250258  36.2829558  36.9934271  28.1287838
  29.9055447  36.8207380  27.5694622  30.0498823  37.4008589  26.9337732
  30.2531095  37.1983677  28.2744477  29.9782908  36.9628084  27.5793617
  32.0775364  36.0197549  25.3519754  31.3298678  36.2128563  24.9468032
  32.2316890  35.1942768  25.1143875  31.9897792  35.9262660  25.2565160
  32.3177141  29.9148100  26.2415158  32.7749755  30.6472074  26.3687950
  32.3933470  29.4914565  27.0002414  32.3968111  29.9605338  26.3716234
  24.5610133  30.1613919  27.3304601  24.0252322  29.5494277  27.6465369
  24.6227897  30.7362055  27.9838268  24.4905765  30.1560847  27.4740028
  36.7904467  23.0937975  20.1109001  36.9088035  23.5514438  19.3776303
  36.6166643  22.2883236  19.8245218  36.7823638  23.0431747  19.9609934
  30.1959519  31.9050203  23.0856982  29.4055594  31.7241664  23.4074318
  30.5920142  31.1277156  23.0687276  30.1376395  31.7637664  23.1309530
  32.7097350  34.3810463  27.5680481  32.6456491  35.2420419  27.4400617
  32.8494537  34.0642456  26.7676032  32.7212820  34.4610629  27.4308694
  31.3916443  37.0742602  21.7096684  30.9678693  37.2747101  20.9735702
  31.2161299  36.2271450  21.8220983  31.3027324  36.9791383  21.6170374
  26.6798888  37.5694653  17.1424656  26.8363508  37.5041456  17.9980648
  27.0199481  38.3443206  16.9303336  26.7532123  37.6743851  17.2379250
  33.2178033  36.9452537  16.0118019  33.7593578  36.4422918  16.4756640
  33.5324592  36.8917732  15.2007505  33.3442430  36.8631958  15.9601831
  34.3667302  31.8388841  26.0640320  34.5809272  31.1999756  25.5103674
  33.7501202  32.2834665  25.6348182  34.3072632  31.8098985  25.9190751
  23.2533150  34.7529604  17.4585423  23.6332115  35.1714149  16.7945691
  22.6788515  35.3343060  17.7654267  23.2244475  34.9007463  17.4062164
  36.5306390  33.4477907  27.0023627  35.7183072  33.1403797  27.0836800
  36.9896325  32.9676907  27.5666339  36.4786775  33.3314399  27.0978221
  33.7582031  24.9488777  21.0527663  32.8875589  24.9227498  21.0060972
  34.0122372  24.7765969  20.2353508  33.6675591  24.9198921  20.9247799
  30.7300010  37.0056744   9.9900806  31.0192535  37.7821627  10.2644380
  30.8171809  36.4945475  10.6915305  30.7854267  37.0448662  10.1343303
  33.6259898  34.8537978  31.7852329  34.0959529  35.4780094  32.1720203
  33.6721778  34.1854954  32.3445544  33.7027774  34.8472658  31.9252401
  30.7831172  26.9595006  22.5101133  30.2669660  26.2675197  22.6352712
  30.2225100  27.6265783  22.4563732  30.6237685  26.9558263  22.5207199
  32.8523405  27.4987966  24.3393986  32.4655158  27.5236997  25.1207515
  32.3656342  26.9329644  23.8868502  32.7235914  27.4183716  24.3881889
  38.8273384  34.0650621  22.9633688  38.4000993  33.9776969  22.2081787
  38.1899437  34.1728396  23.5488532  38.6702992  34.0683280  22.9379129
  32.5180547  24.3854951  26.6304245  33.1473665  24.9215251  26.3525316
  32.6866409  24.2932310  27.4817811  32.6358341  24.4516313  26.7152774
  32.3194462  29.1726146  28.9030657  33.1467891  28.9011295  28.9589271
  32.3402308  29.9686987  29.2594475  32.4447312  29.2505900  28.9645840
  26.8963951  36.3190009  22.0900918  26.0551958  36.2193883  22.2979812
  27.1053959  37.0885489  22.4415238  26.8028644  36.4182052  22.1728233
  24.3739518  33.9409546  19.9185668  23.9796216  34.0152557  19.1435778
  23.8179635  34.3267492  20.4694030  24.2342331  34.0091320  19.8853328
  36.0104465  26.9190840  19.5989547  36.2154059  26.8513147  20.4446544
  35.6830889  27.7249661  19.5310725  35.9919713  27.0276780  19.7149202
  30.7080616  34.2471408  21.3398515  30.4043754  33.6927396  21.9408923
  30.0060037  34.4263618  20.8526549  30.5596826  34.1916190  21.3568221
  29.7646713  31.5571928  15.9043217  30.0406448  30.8390840  15.4920785
  30.3645383  32.1556847  15.6964323  29.8939978  31.5392298  15.8123978
  28.7698967  41.4621128  26.0470613  28.6619322  41.4723191  26.9132671
  28.9794749  42.2875909  25.8575567  28.7849078  41.5862203  26.1474705
  39.2638153  27.4722604  19.0792313  38.6512466  27.9593006  19.4646045
  39.3602328  26.7966095  19.6229964  39.1876051  27.4440913  19.2171171
  33.2657234  29.2285445  14.1789812  33.7200980  29.3996005  14.9037657
  33.7397280  28.6153556  13.7787588  33.4025554  29.1636330  14.2263574
  26.7872759  38.7133771  23.5092551  26.1960693  39.3543269  23.4795566
  27.5493783  39.1371388  23.4823850  26.8121020  38.8709609  23.5007698
  27.1833382  29.8735769  24.1760568  27.6434864  29.9474698  24.9135692
  27.2289489  30.6717023  23.8260390  27.2583937  30.0029916  24.2333325
  28.8316732  30.5402464  28.7432595  28.4402297  29.8935811  29.1788373
  29.0002595  31.1313899  29.3626851  28.7987642  30.5316731  28.8995301
  30.6070254  35.9327979  15.2834819  31.3512299  36.3202256  15.5217769
  30.7530950  35.0885405  15.4475307  30.7380839  35.8658452  15.3428789
  32.5249829  27.7278238  20.3166681  31.6785874  27.9001046  20.1908031
  32.5220962  26.9227582  20.6532509  32.3996979  27.6339267  20.3477808
  33.5948130  31.5053453  21.1828739  33.1208084  30.9795215  21.6934050
  33.9666266  30.9582925  20.6143600  33.5798019  31.3469449  21.1743886
  23.9721160  33.5024959  26.5512284  24.8346773  33.4020669  26.4649614
  23.6412943  32.9219669  25.9897857  24.0506356  33.4016586  26.4557690
  35.5231629  32.3990007  14.2454492  34.9954648  32.4818751  13.5560201
  35.9827338  33.1407879  14.2419137  35.5133480  32.5210670  14.1429188
  27.3322946  32.3267408  23.2122703  26.7076016  32.3385800  22.6048655
  26.9968541  32.8027583  23.8613943  27.1908438  32.3985925  23.2179271
  27.5164695  30.6692527   9.2695388  27.1677499  31.3212252   9.7326937
  27.0361140  30.6549640   8.5419259  27.3934938  30.7635580   9.2306479
  24.0448621  40.3867868  24.6526467  23.5148546  39.6960307  24.7021442
  24.3173715  40.3778054  23.8239175  24.0073344  40.2835000  24.5373883
  34.2454867  37.8291113  24.6264839  33.6311860  37.2849163  24.9213474
  34.7622152  37.3155349  24.1470655  34.2310529  37.6727522  24.5989067
  33.4851164  38.8995383  22.3609137  33.0578772  38.2745102  21.9274573
  33.4776109  38.6170305  23.1868144  33.4210305  38.7648164  22.4188965
  26.6013691  33.9360556  25.4297571  26.7607178  33.1803880  25.8349293
  26.4206585  34.4851496  26.0838309  26.5979050  33.9054370  25.5860277
  34.5433994  26.1021792  25.9848361  34.0474555  26.2985466  25.2939927
  35.3003056  26.5014460  25.8137162  34.5820819  26.1899525  25.8568497
  31.8136874  29.7764138  22.5751671  31.8379361  29.2424250  21.8864451
  32.0648347  29.2681446  23.2377262  31.8546792  29.6225042  22.5716316
  19.3244464  37.0595633  22.0094815  19.2187913  37.0142477  21.1446899
  18.5744684  37.4049413  22.2909100  19.1980067  37.1036541  21.9232145
  28.0938196  28.5034956  21.9557415  28.1336568  29.0044162  22.6692123
  27.2687861  28.5945350  21.6863339  27.9777722  28.5916772  22.0207954
  30.2767809  38.0695696  30.0577710  29.4263439  38.2067410  30.1935355
  30.4395937  37.3359474  30.5025412  30.1751672  37.9809797  30.1433309
  29.5152559  35.0195466  24.2531314  28.6844489  35.1869284  24.0466563
  29.4604077  34.6431416  25.0380200  29.3841974  34.9885197  24.3379843
  27.3236343  28.5104359  29.8887725  27.9489046  27.9666491  30.1617157
  26.8686823  28.0299276  29.3195516  27.3484603  28.3593840  29.8449319
  27.8888603  33.2951057  14.7821432  28.0291564  33.7923521  15.4850074
  28.3871136  32.5937352  14.9235646  27.9829684  33.2653036  14.9073011
  27.9188826  34.1618168  12.1114009  28.5533905  34.7578593  12.0463471
  28.0014436  33.8621626  12.9259879  28.0245377  34.2059076  12.2217096
  29.4967808  30.0932144  12.0859451  29.8183650  29.6135226  11.4318713
  29.7594752  30.9031790  11.8950263  29.5833834  30.1422042  11.9614943
  32.7264781  41.1151018  25.6058267  32.2189872  41.6686865  26.0498898
  32.4291427  41.1759308  24.7877042  32.6069666  41.2057329  25.5506724
  34.8926963  29.4804338  24.4482930  35.3182035  29.0276864  23.8366456
  34.2783957  28.9264408  24.7247718  34.8655609  29.3318314  24.3987955
  24.4241814  36.3586009  15.3803555  24.9334043  36.9550517  15.7614861
  24.8976086  36.0911983  14.6979975  24.5685189  36.4071824  15.3358078
  33.3321186  25.9519437  17.8573507  32.6889504  25.8017084  18.4258646
  32.9920593  25.7061783  17.0922612  33.1866264  25.8931560  17.8276522
  37.9220533  33.9078864  17.2803516  37.2511723  34.4508566  17.1516581
  38.6160283  34.3773720  17.0385210  37.9249400  34.0577135  17.2259043
  38.0848660  30.3634748  20.1893889  38.4376270  29.9364471  20.8639688
  37.2263462  30.2785591  20.3194965  38.0098105  30.2879489  20.3088899
  26.7832345  32.9942268  18.2476735  26.0644334  33.4106400  18.5149599
  27.1544708  33.5596506  17.6968374  26.7324277  33.1391549  18.2059542
  36.0831926  33.6270116  24.1378731  36.0629853  33.4453412  24.9913510
  36.1311127  34.4982135  24.1138315  36.0866567  33.7286655  24.2602026
  32.5578920  32.0340267  13.5850115  31.9643759  32.3557264  13.0334682
  32.5954197  31.1881363  13.3771221  32.4753309  31.9564596  13.4732886
  39.5172720  25.4853160  21.1178201  39.0103585  24.7782299  21.0499379
  40.3140154  25.1546349  21.2479278  39.5599960  25.3326311  21.1277196
  35.4336736  31.9919772  17.0151865  35.2050429  32.0152473  16.1730223
  35.6934812  31.1677239  17.1346876  35.4382924  31.8735852  16.9077063
  29.7155965  33.8454245  26.6176965  29.2034868  33.2375428  26.9761997
  29.5435461  34.5610838  27.0850941  29.6145602  33.8617544  26.7393189
  24.5621679  32.2891820  29.2679327  24.3924270  32.9493195  28.7227534
  24.1187629  32.4998382  29.9891816  24.4721013  32.4177802  29.2940957
  28.4881499  30.5296318  18.3106061  28.9638865  30.8913398  17.6756242
  27.9870098  31.1852786  18.5906204  28.4846858  30.6790507  18.2582802
  33.5925035  31.7678490  29.0579221  34.1496465  31.5392299  28.4257686
  33.2686100  32.5284155  28.7814433  33.6271445  31.8462326  28.9235718
  21.4623744  35.1938686  24.5267817  20.9150463  34.5239331  24.6448685
  22.2516122  34.8268534  24.5911284  21.4975928  35.0403672  24.5536518
  31.3108152  34.8546143  30.0231228  32.0619479  35.1697820  30.3370782
  31.5030729  34.6525314  29.1965150  31.4499566  34.8713525  29.9474624
  30.5308152  32.6737518  11.6779445  30.9107117  32.6917147  10.8930560
  29.7900748  33.1191507  11.5570292  30.4776990  32.7419293  11.5443013
  38.1593442  30.9819709  17.2655023  38.1587669  30.8268366  18.1239300
  37.9549622  31.8282696  17.2096409  38.1293220  31.0840330  17.3842963
  20.2210713  34.4059494  21.6813840  20.0432474  33.9536103  22.4068756
  19.9329735  35.2085655  21.8652318  20.1523667  34.4582051  21.8157343
  35.8834294  35.6617211  20.9191230  36.3787960  34.9440206  20.8795251
  35.0734070  35.3588009  20.8045717  35.8378188  35.5114857  20.8964956
  31.3292906  39.5115024  13.0688235  30.5204229  39.1881698  13.0221544
  31.8367815  38.8048246  13.0016483  31.2842573  39.3596341  13.0518529
  21.9583183  36.9387217  18.7935599  21.0928703  36.9272908  18.6818370
  22.0581999  36.7517440  19.6406738  21.8457350  36.9093279  18.9024543
  31.4534208  26.8982633  26.8927611  31.5862113  26.1013627  27.2208587
  31.8379360  27.4249036  27.4725887  31.5290537  26.8582550  27.0271114
  34.5266563  23.8212960  23.4908705  33.7212527  23.7110689  23.8076543
  34.3973298  23.9225415  22.6338570  34.3886696  23.8196630  23.4116745
  37.9832523  29.9858451  24.0848401  37.3995512  30.4867658  23.6725969
  38.3036817  29.4788008  23.4512725  37.9445699  29.9850286  23.9306909
  30.5227323  28.8999046  14.3607076  31.3443017  29.0697359  14.1188771
  30.0596973  29.0546307  13.6373374  30.5758485  28.9480779  14.2178721
  29.1122654  26.8941808  25.1405505  29.6567067  26.5532935  25.7309847
  29.1659590  27.7527270  25.2826790  29.2011774  26.9697068  25.2487378
  24.9253213  40.6558224  22.0144313  25.5298071  40.6154059  21.3858134
  24.7180526  41.5029376  22.0448369  24.9842111  40.7746227  21.9260429
  20.1604496  39.6392842  21.8843236  20.0628774  38.8289113  22.1933293
  20.9433365  39.6184635  21.4989504  20.2620632  39.5159932  21.8730099
  25.4689694   1.8358713  17.4902860  26.1756461   1.3410744  17.6189795
  25.6577629   2.2767795  16.7605518  25.6017600   1.8277064  17.4011906
  21.5366368   7.4774544   5.0176294  21.9205748   8.0461442   4.4781069
  21.4725510   6.7524054   4.5382110  21.5839795   7.4550007   4.8670157
  17.9622613  10.0330887   7.3157264  18.6060068  10.4744051   7.7053422
  18.2878868   9.2284313   7.2287523  18.1054442   9.9796082   7.3602741
  18.3704479   0.0273314   9.9610129  19.0153482  -0.4654243   9.6421078
  18.6106256   0.1698100  10.7876208  18.5015064  -0.0249244  10.0359663
  20.9090570   2.8728219   9.6117022  21.1913813   2.0779625   9.3903778
  21.6376731   3.3508807   9.6322083  21.0580134   2.8262816   9.5820037
  18.9518396   4.8091436   9.4200762  18.4345338   4.4498851   8.8162070
  19.6492788   4.2853610   9.4306828  18.9783977   4.6789124   9.3331021
  22.6081988   5.2586250  15.3816935  22.6965334   5.0712390  16.2295146
  23.0371701   4.6123679  14.9821782  22.6844091   5.1349258  15.4488687
  20.1752448   4.5417410  14.3634598  19.6123283   4.1290020  14.8874259
  20.9373472   4.4670315  14.7827741  20.2046897   4.4694810  14.5027598
  15.7348440   6.5315431   6.9671228  16.4369019   6.0167420   7.0243984
  15.6545923   6.8589582   7.7718103  15.8272200   6.5029657   7.0944020
  15.6851918   3.1422658  10.7770141  16.2250143   2.9993789  11.4473514
  15.0021864   3.5419409  11.1454167  15.6644072   3.1802329  10.9304563
  28.1472974   2.6486936   6.7217569  27.7108206   2.6523678   7.4776540
  27.8135889   3.3292435   6.2897146  28.0335594   2.7499392   6.7698401
  22.7202048   4.6895269  18.0460719  23.5042464   4.8026117  18.4116461
  22.5198642   3.8636406  18.2419405  22.8068073   4.5841988  18.1295105
  22.8772441   6.6005371  11.6927175  22.0787687   6.3604871  11.9501043
  23.3258452   6.6519764  12.4394222  22.8247052   6.5727762  11.8412099
  21.9373178   0.3465816  19.5847363  21.1446159   0.6609328  19.7699982
  22.0522105   0.5617284  18.7468147  21.8368588   0.4249653  19.4885697
  20.2197008   2.8862941   6.9254035  20.2936017   2.7238113   7.7795885
  21.0366515   3.0753131   6.6814517  20.3513367   2.8899683   7.0152061
  19.3496339   0.6515430  12.7420639  18.8508033   1.3631198  12.8205528
  20.1596564   0.9716097  12.7038802  19.3952446   0.8042279  12.7477208
  18.8675465   9.1994457   3.5058351  19.5199523   8.6670899   3.7349377
  18.1701074   8.8463109   3.8926225  18.8606183   9.0683980   3.5970519
  17.1354957   2.7242195   8.2865841  16.6135710   2.8642487   8.9717705
  17.5228977   1.9652860   8.4767958  17.1158658   2.6327719   8.4166917
  14.6107429  -0.9540975  12.9082340  15.1228526  -0.6756722  12.2591100
  14.3243772  -0.2151681  13.2745153  14.6442292  -0.8038621  12.8672218
  26.5624709   2.2126844   8.8798467  26.4239068   2.9107890   9.3847210
  25.7824707   2.0575501   8.5234649  26.4267936   2.2927011   8.9024742
  18.6273687  -1.7599796  14.5034669  18.7717063  -1.1798588  13.8677779
  18.9749336  -1.3823500  15.2084524  18.7001149  -1.6179092  14.5133664
  17.7001442   6.4302976  11.3695696  17.8491006   5.8705891  10.7169101
  18.4801444   6.5094977  11.7528215  17.8375536   6.3588541  11.3292645
  20.2254743   6.6017618  12.6480187  20.1498414   5.9326429  13.2030975
  20.1544602   7.3035407  13.1620853  20.2035350   6.6062526  12.8057035
  24.3021446   0.9585457   7.7456474  23.6266448   0.7270689   8.2469862
  24.3113822   0.3506640   7.1198580  24.2039950   0.8344382   7.7272627
  19.6146377  10.0085938  11.1058188  20.1042308   9.3096727  10.9233852
  19.0430610   9.7109808  11.6934245  19.6030907   9.8612162  11.1659228
  25.8113381   2.5748008  20.0584978  26.6248246   2.3033156  20.2190111
  25.6508347   2.2755548  19.2545174  25.9083329   2.4902934  19.9630384
  24.4990211   6.1800413   4.4434587  24.1070002   5.8767128   3.7257454
  24.6543283   7.0169503   4.2539541  24.4643800   6.2584250   4.3091085
  25.8234625   3.6354298  15.3307819  26.4614345   3.1414493  14.9970275
  25.1808716   3.5631698  14.7460046  25.8228851   3.5513306  15.1950174
  25.8788881   4.3274106  11.9713176  26.6681260   3.9763171  12.0915257
  26.0532479   5.1410495  11.7089809  26.0209163   4.3959963  11.9501044
  17.4917208   2.8813952  12.9810660  17.3837563   2.8916014  13.8472718
  17.7012989   3.7068732  12.7915614  17.5067319   3.0055027  13.0814751
  15.5091000   0.1326594  10.4432597  14.9178933   0.7736092  10.4135612
  16.2712023   0.5564211  10.4163897  15.5339260   0.2902433  10.4347745
  25.2680516   5.5835906   7.8764622  25.0700205   6.0726720   7.1820833
  24.6468227   5.7877147   8.4548755  25.1468080   5.6852444   7.8587845
  12.7666862   1.8060692  11.5866514  12.2366786   1.1153131  11.6361488
  13.0391955   1.7970877  10.7579222  12.7291584   1.7027823  11.4713930
  22.2069404   0.3188206   9.2949184  21.7797013  -0.3062075   8.8614619
  22.1994349   0.0363128  10.1208191  22.1428546   0.1840987   9.3529011
  18.9986049  -0.5111481  16.9917757  18.1481680  -0.3739767  17.1275402
  19.1614177  -1.2447703  17.4365459  18.8969913  -0.5997380  17.0773356
  21.4483022   2.5343841  12.5398314  20.9408113   3.0879688  12.9838944
  21.1509668   2.5952131  11.7217088  21.3287907   2.6250152  12.4846771
  20.6925507   7.4668399   9.4455321  20.4691161   6.7087229   9.8139347
  20.2035350   7.4966421   8.7235760  20.5868956   7.3590624   9.3932062
  22.7496496   1.6350132  16.9967254  22.7092351   0.9899809  16.4112410
  23.5619815   1.5786749  17.3092667  22.8639650   1.5309099  16.9564204
  19.3403964   7.6868858   6.8992405  18.9264362   7.0242988   6.5096247
  20.0251338   7.8346716   6.3788100  19.3802336   7.6109516   6.7648903
  22.7069258   6.8458943   7.6516022  22.3085541   6.9561213   6.8836842
  22.0920478   7.0541009   8.2342582  22.5568147   6.8932511   7.6247321
  16.3058433   8.1277939   9.3005751  16.6204992   8.9414328   9.3083533
  16.7151847   7.7428158   9.9687911  16.4126531   8.1906642   9.4009843
  23.2582953   3.5447986   6.8709563  23.7294131   4.2588249   7.0399549
  23.5943132   2.9446736   7.4069433  23.3778068   3.5619450   6.9741939
  25.3459938   5.1549299  19.0501635  25.4556903   4.3657860  19.4058383
  25.6750834   5.0655236  18.2475973  25.4112344   5.0255152  18.9844026
  23.8956899   3.3365920  13.6337256  23.3477845   2.7123804  13.3657321
  24.3569928   3.5260192  12.9181335  23.8824109   3.2724970  13.4887687
  23.4615226   4.3416993  10.1646597  24.2813600   4.1979959  10.4262892
  23.1809303   4.9663192  10.7063035  23.5411969   4.4127345  10.2834537
  33.1328561  11.0857496   7.8842404  32.2766456  11.2465994   7.9351521
  33.1796215  10.2149560   7.9047465  33.0127672  10.9808297   7.8948470
  27.5169701  20.6220213   3.6479636  26.7652600  20.2435752   3.4195681
  27.9655712  20.6538647   2.8998446  27.4719367  20.5705821   3.5037138
  36.4422277  17.3544021  17.4902860  37.1489045  16.8596052  17.6189795
  36.6310213  17.7953103  16.7605518  36.5750183  17.3462372  17.4011906
  32.5098952  22.9959852   5.0176294  32.8938331  23.5646750   4.4781069
  32.4458093  22.2709362   4.5382110  32.5572379  22.9735315   4.8670157
  35.9780382  13.1449540  10.5274056  36.5236342  13.8234626  10.5868025
  35.9197258  13.0037000   9.6675637  36.0496296  13.2241541  10.4086116
  29.0954457  20.6338606   5.9142408  29.1964820  19.8238960   6.2239536
  28.4996202  20.5395552   5.2842087  29.0226995  20.5003634   5.8668646
  28.9355196  25.5516195   7.3157264  29.5792652  25.9929359   7.7053422
  29.2611452  24.7469621   7.2287523  29.0787025  25.4981390   7.3602741
  22.2919501  16.6558892   5.5394742  22.0569686  15.8226545   5.4327010
  22.4305142  16.9363558   4.7255943  22.2775164  16.5742396   5.4037097
  24.5909589   8.8244623   8.4379049  23.9714620   8.2337270   8.2689064
  24.4893452   9.4156058   7.8043373  24.4847264   8.8248705   8.3184039
  29.6375776  18.5628170   2.6877126  29.9591617  19.1033377   2.0838434
  30.2847873  17.9924941   2.8199416  29.7801831  18.5587345   2.6184161
  24.3178722  12.3696905  10.6822618  24.1937418  12.9559350  11.3172437
  24.9697006  11.8757100  10.9834893  24.3952371  12.3835709  10.8208548
  31.8765420  16.9514610   2.7591304  32.3159055  16.3431710   3.2046077
  31.7270082  16.5721983   1.9876769  31.9186885  16.8053081   2.7110471
  29.3437063  15.5458621   9.9610129  29.9886065  15.0531065   9.6421078
  29.5838840  15.6883408  10.7876208  29.4747648  15.4936064  10.0359663
  31.8823154  18.3913527   9.6117022  32.1646397  17.5964933   9.3903778
  32.6109314  18.8694115   9.6322083  32.0312718  18.3448124   9.5820037
  29.8604348   5.9336561   6.8532787  29.5307678   6.3847705   6.1836486
  29.1849350   5.8552725   7.4005794  29.7114784   5.9887696   6.8356010
  28.2992797  15.8189802   0.0127276  27.7150012  16.3239833   0.4193140
  27.8962892  15.5932189  -0.7276132  28.1532101  15.8598050  -0.0367698
  23.8536826  21.5344563   6.8150948  23.3704404  22.2595053   6.7910531
  24.6660144  21.8320693   6.9261106  23.9027574  21.6846917   6.8278227
  29.9250980  20.3276744   9.4200762  29.4077922  19.9684159   8.8162070
  30.6225371  19.8038918   9.4306828  29.9516561  20.1974432   9.3331021
  33.5814572  20.7771558  15.3816935  33.6697918  20.5897698  16.2295146
  34.0104284  20.1308987  14.9821782  33.6576674  20.6534565  15.4488687
  31.1485032  20.0602718  14.3634598  30.5855866  19.6475328  14.8874259
  31.9106055  19.9855623  14.7827741  31.1779480  19.9880118  14.5027598
  26.7081023  22.0500739   6.9671228  27.4101602  21.5352728   7.0243984
  26.6278506  22.3774890   7.7718103  26.8004784  22.0214965   7.0944020
  27.7559930  12.2876326  16.0951643  27.9280433  12.1782220  16.9436924
  28.2929287  12.9330731  15.8582835  27.8604934  12.3668328  16.1856739
  26.0331799  18.2407091   6.4756836  26.8720698  18.4730024   6.5230597
  26.0643568  17.3711402   6.4063871  26.1613516  18.1464037   6.4721480
  26.6584502  18.6607966  10.7770141  27.1982726  18.5179097  11.4473514
  25.9754448  19.0604717  11.1454167  26.6376655  18.6987637  10.9304563
  36.0825386  14.3398967   5.9715166  36.8382901  14.7730481   6.0104074
  36.1887711  13.6903736   6.5449802  36.2095557  14.3076451   6.0613191
  39.1205557  18.1672244   6.7217569  38.6840789  18.1708986   7.4776540
  38.7868473  18.8477743   6.2897146  39.0068177  18.2684700   6.7698401
  33.6934631  20.2080577  18.0460719  34.4775048  20.3211425  18.4116461
  33.4931226  19.3821714  18.2419405  33.7800657  20.1027296  18.1295105
  22.0621647  14.8808257  10.9304563  21.7960062  14.0647374  11.0895553
  22.0760211  14.9261412  10.0600078  22.0246369  14.7665162  10.8258045
  26.8120253   8.4186635  13.5771570  26.1192050   7.9483615  13.8232302
  27.4280580   8.1924940  14.1513278  26.8004783   8.3153767  13.6980723
  33.8505024  22.1190679  11.6927175  33.0520270  21.8790179  11.9501043
  34.2991036  22.1705072  12.4394222  33.7979636  22.0913070  11.8412099
  22.4715060  15.6667036   8.2116307  22.2890633  15.6413922   7.3588599
  23.2064729  16.1365974   8.2505216  22.5529124  15.7328399   8.0914226
  25.5360812  12.3852039  14.7198416  26.2600784  12.3705070  15.2063310
  25.6376948  13.0947394  14.2220384  25.6579021  12.4876742  14.7177202
  32.9105761  15.8651124  19.5847363  32.1178742  16.1794636  19.7699982
  33.0254688  16.0802592  18.7468147  32.8101172  15.9434960  19.4885697
  33.8389554  15.7671328  14.5232659  34.4128416  15.1298572  14.6781223
  33.7604358  15.7675410  13.6542317  33.9122789  15.6736439  14.4179070
  22.4385971  12.5460537   8.3615374  23.0159473  12.4096988   9.0007619
  21.7400032  12.0896321   8.6160958  22.4206992  12.4582803   8.4937663
  29.1953273  14.1994593   6.5753857  28.9372517  13.3666327   6.5485156
  29.2501756  14.4252206   5.7346357  29.1653051  14.1092364   6.4473994
  28.1687985  11.7532355   7.0618752  27.5937576  11.9124523   7.6982713
  27.7923661  11.1167764   6.5987202  28.0290797  11.6830168   7.0873310
  31.8361274  10.2255704  11.9211130  31.4475706   9.8009922  11.2663321
  31.1715972  10.4737854  12.4288157  31.6808201  10.1994425  11.8998998
  17.9144804  11.3972430   5.0763192  18.0005056  11.0204298   5.8576722
  18.5420601  11.0232875   4.5983150  18.0201355  11.2857912   5.1208669
  39.1609702  17.1380305  14.5317513  38.9248339  16.3068370  14.4129573
  39.8052931  17.0865912  15.1172357  39.2204373  17.0077993  14.6003406
  28.8108120  17.9275826   5.2460249  29.4482067  17.6887574   5.7912042
  29.2363192  18.1312985   4.5113410  28.9684286  17.9226837   5.2177406
  23.5020762  20.1664163   9.1294553  23.5424908  20.4379014   8.3014332
  24.0615287  20.6906071   9.5452341  23.5904108  20.2839918   9.0686441
  29.4510935  13.1478116  -0.4164862  29.8356088  12.9285823   0.3351684
  29.2022555  13.9741062  -0.2863785  29.4713008  13.2376262  -0.2863785
  29.6179475   6.4284531  19.2997723  29.3032917   7.1984094  19.0367285
  29.2969408   5.8654787  18.7149950  29.5238395   6.4594800  19.1739073
  40.1846123  16.9224754  10.5945807  39.8791940  17.6552811  10.9559123
  39.4652338  16.5162683  10.3138593  40.0333465  16.9706487  10.6058944
  31.1929592  18.4048249   6.9254035  31.2668600  18.2423421   7.7795885
  32.0099098  18.5938439   6.6814517  31.3245951  18.4084991   7.0152061
  24.9535349  18.7506112   3.9548479  24.1273466  18.9967849   3.8282758
  25.0147340  18.6718193   4.8210537  24.8409516  18.7751061   4.0637423
  27.1711372   4.8175053   4.9143919  26.3033798   4.8897652   4.9801528
  27.4586577   5.6197132   5.1031894  27.0851121   4.9469200   4.9518686
  36.2944261   4.9652912  13.2455241  37.0397853   4.7762723  12.8318666
  35.8781566   5.4911150  12.6869097  36.3429235   5.0155058  13.1019814
  29.7334178  21.3682992   1.6567509  30.0232476  20.9771973   0.9326735
  30.4637659  21.5499697   2.0972784  29.8841062  21.3376806   1.6150316
  30.3228923  16.1700738  12.7420639  29.8240617  16.8816506  12.8205528
  31.1329147  16.4901405  12.7038802  30.3685030  16.3227587  12.7477208
  27.6740093  23.3450375   4.7227658  27.4540389  23.0547729   5.5154325
  27.4534615  22.6865330   4.1945571  27.6087688  23.2050083   4.7616567
  26.5857041  15.4323691   6.9883360  26.2970289  14.8061162   7.5229087
  27.4540389  15.3743978   7.0548041  26.6717292  15.3311235   7.0774315
  29.8408049  24.7179764   3.5058351  30.4932107  24.1856207   3.7349377
  29.1433658  24.3648417   3.8926225  29.8338767  24.5869287   3.5970519
  26.7889314  17.0718942   2.9125725  27.5435282  17.4531981   3.1261188
  26.1959927  17.5230086   3.3672422  26.8126027  17.1947769   3.0108604
  29.2495981   9.0281782  18.0382937  28.4395757   9.3339562  17.9272780
  29.7270668   9.7487365  18.1535522  29.1999460   9.1796384  18.0390009
  28.1087541  18.2427503   8.2865841  27.5868294  18.3827795   8.9717705
  28.4961561  17.4838168   8.4767958  28.0891241  18.1513027   8.4166917
  25.0978725   8.2933312   2.3560795  24.8103520   7.9234583   1.6192743
  25.7849193   8.7628167   2.0944500  25.1567622   8.3080282   2.2075871
  34.3054545  19.9822963   2.2726409  34.0641221  19.2490823   1.8653474
  34.4855878  20.5309820   1.6192743  34.2962169  19.9545354   2.1156632
  29.5353866  15.2731522   3.6847332  29.3396649  15.8806257   3.0907635
  29.7588212  14.5799466   3.2039006  29.5388507  15.2609048   3.5263412
  27.9332396  12.1586260   3.8028200  28.6555048  12.3227418   3.3432006
  27.4540389  12.8795925   3.6967540  27.9696127  12.2884490   3.7193814
  35.8925904   8.4950059   9.1824885  35.0537004   8.5211338   8.9463148
  35.9630271   9.1420795   9.7630232  35.7794297   8.5946185   9.2334002
  25.5840013  14.5644333  12.9082340  26.0961110  14.8428586  12.2591100
  25.2976355  15.3033627  13.2745153  25.6174876  14.7146686  12.8672218
  22.6706919   9.0714525   3.2046076  22.7723056   9.8740686   3.5327052
  23.4662806   8.8701861   2.9069157  22.8034825   9.1600423   3.2081432
  29.1023738   6.6570721  12.9683381  28.9106935   6.6725856  13.8182805
  29.9522334   6.8534396  12.9450036  29.1999460   6.6885073  13.0906676
  23.4870651   9.1861703  10.9467198  23.3456143   8.3345644  11.0711706
  23.7711215   9.2290363  10.1229404  23.5078497   9.0661453  10.8434822
  33.6409244  11.0228793   5.0911686  33.3943958  10.9424544   5.9248475
  33.9694367  10.2382261   4.8974214  33.6530487  10.8955058   5.1859209
  37.5357292  17.7312152   8.8798467  37.3971652  18.4293198   9.3847210
  36.7557290  17.5760809   8.5234649  37.4000519  17.8112319   8.9024742
  35.8735378  14.0308528  15.1320849  35.8683416  13.1588344  15.1363276
  36.5796371  14.2296697  14.6590305  35.9780382  13.9312402  15.0627884
  29.6006271  13.7585512  14.5034669  29.7449647  14.3386720  13.8677779
  29.9481919  14.1361808  15.2084524  29.6733732  13.9006216  14.5133664
  31.7726188  12.9575680  12.2859801  31.0249502  13.1506694  11.8808079
  31.9267713  12.1320900  12.0483922  31.6848616  12.8640791  12.1905207
  28.6734026  21.9488283  11.3695696  28.8223590  21.3891199  10.7169101
  29.4534028  22.0280285  11.7528215  28.8108119  21.8773849  11.3292645
  31.1987327  22.1202926  12.6480187  31.1230998  21.4511737  13.2030975
  31.1277186  22.8220714  13.1620853  31.1767933  22.1247834  12.8057035
  32.0127965   6.8526231  13.1755205  32.4700579   7.5850205  13.3027997
  32.0884294   6.4292696  13.9342460  32.0918935   6.8983469  13.3056281
  24.2560956   7.0992050  14.2644648  23.7203146   6.4872409  14.5805416
  24.3178721   7.6740186  14.9178315  24.1856589   7.0938978  14.4080075
  31.8557573  20.6403925   3.4803793  32.6207465  20.3713569   3.1586457
  31.7535663  20.1553936   4.1973856  31.9539069  20.5293490   3.5383620
  29.8910343   8.8428335  10.0197029  29.1006418   8.6619795  10.3414364
  30.2870966   8.0655287  10.0027323  29.8327219   8.7015796  10.0649577
  35.2754029  16.4770765   7.7456474  34.5999031  16.2455997   8.2469862
  35.2846406  15.8691948   7.1198580  35.1772534  16.3529690   7.7272627
  32.4048173  11.3188594  14.5020528  32.3407315  12.1798550  14.3740664
  32.5445361  11.0020587  13.7016079  32.4163644  11.3988760  14.3648740
  31.0867267  14.0120733   8.6436730  30.6629516  14.2125232   7.9075749
  30.9112123  13.1649581   8.7561030  30.9978148  13.9169515   8.5510421
  30.5878961  25.5271246  11.1058188  31.0774891  24.8282035  10.9233852
  30.0163193  25.2295116  11.6934245  30.5763491  25.3797470  11.1659228
  26.3749712  14.5072785   4.0764703  26.5314331  14.4419587   4.9320695
  26.7150305  15.2821337   3.8643383  26.4482947  14.6121983   4.1719297
  32.9128857  13.8830668   2.9458066  33.4544402  13.3801049   3.4096687
  33.2275416  13.8295863   2.1347551  33.0393254  13.8010089   2.8941878
  36.7845964  18.0933315  20.0584978  37.5980830  17.8218464  20.2190111
  36.6240931  17.7940855  19.2545174  36.8815913  18.0088241  19.9630384
  31.0815307  19.2748020   0.2298094  31.1508127  18.4162558   0.3691095
  31.8603762  19.4919901  -0.0982881  31.2068157  19.1800884   0.2015251
  34.0618126   8.7766973  12.9980367  34.2760096   8.1377887  12.4443721
  33.4452025   9.2212796  12.5688228  34.0023456   8.7477116  12.8530798
  35.4722794  21.6985721   4.4434587  35.0802586  21.3952436   3.7257454
  35.6275866  22.5354811   4.2539541  35.4376384  21.7769558   4.3091085
  22.9483974  11.6907735   4.3925470  23.3282939  12.1092280   3.7285737
  22.3739339  12.2721191   4.6994313  22.9195299  11.8385594   4.3402211
  36.2257214  10.3856038  13.9363674  35.4133896  10.0781928  14.0176846
  36.6847149   9.9055038  14.5006386  36.1737599  10.2692530  14.0318268
  35.6362469  18.2635710   4.3840618  35.2777124  18.4350353   5.1604650
  35.1501180  18.7248915   3.8268617  35.5121166  18.3574681   4.4165887
  33.3210722  11.7916109  18.7192376  33.7910353  12.4158226  19.1060250
  33.3672602  11.1233085  19.2785591  33.3978598  11.7850790  18.8592447
  30.4781995   3.8973137   9.4441180  29.9620484   3.2053328   9.5692759
  29.9175924   4.5643914   9.3903779  30.3188509   3.8936394   9.4547246
  32.5474229   4.4366097  11.2734032  32.1605982   4.4615128  12.0547562
  32.0607166   3.8707775  10.8208549  32.4186738   4.3561848  11.3221936
  36.7967208  19.1539606  15.3307819  37.4346929  18.6599801  14.9970275
  36.1541300  19.0817006  14.7460046  36.7961435  19.0698614  15.1950174
  38.5224208  11.0028752   9.8973735  38.0951816  10.9155100   9.1421834
  37.8850261  11.1106527  10.4828579  38.3653816  11.0061412   9.8719176
  32.0145286   6.1104277  15.8370704  32.8418715   5.8389426  15.8929318
  32.0353132   6.9065119  16.1934522  32.1398136   6.1884031  15.8985887
  36.8521465  19.8459414  11.9713176  37.6413843  19.4948479  12.0915257
  37.0265063  20.6595802  11.7089809  36.9941747  19.9145271  11.9501044
  26.5914775  13.2568140   9.0240964  25.7502782  13.1572014   9.2319858
  26.8004783  14.0263620   9.3755285  26.4979468  13.3560183   9.1068279
  24.0690342  10.8787677   6.8525715  23.6747040  10.9530689   6.0775825
  23.5130459  11.2645623   7.4034077  23.9293155  10.9469451   6.8193375
  30.4031440  11.1849539   8.2738562  30.0994578  10.6305527   8.8748970
  29.7010861  11.3641749   7.7866596  30.2547650  11.1294321   8.2908268
  29.4597537   8.4950059   2.8383264  29.7357272   7.7768971   2.4260831
  30.0596207   9.0934979   2.6304370  29.5890802   8.4770429   2.7464025
  28.4649791  18.3999260  12.9810660  28.3570146  18.4101322  13.8472718
  28.6745573  19.2254040  12.7915614  28.4799902  18.5240334  13.0814751
  26.4823583  15.6511902  10.4432597  25.8911516  16.2921400  10.4135612
  27.2444607  16.0749519  10.4163897  26.5071844  15.8087740  10.4347745
  26.8784206   6.8113900  11.1100615  27.3385688   6.8852829  11.8475739
  26.9240313   7.6095154  10.7600436  26.9534761   6.9408047  11.1673371
  28.5267556   7.4780595  15.6772642  28.1353121   6.8313942  16.1128420
  28.6953418   8.0692030  16.2966897  28.4938466   7.4694863  15.8335348
  36.2413099  21.1021214   7.8764622  36.0432788  21.5912028   7.1820833
  35.6200811  21.3062455   8.4548755  36.1200664  21.2037752   7.8587845
  30.3021078  12.8706110   2.2174866  31.0463123  13.2580387   2.4557816
  30.4481774  12.0263536   2.3815354  30.4331663  12.8036583   2.2768836
  32.2200653   4.6656369   7.2506728  31.3736698   4.8379177   7.1248077
  32.2171786   3.8605713   7.5872556  32.0947803   4.5717398   7.2817855
  33.2898954   8.4431584   8.1168785  32.8158908   7.9173346   8.6274096
  33.6617089   7.8961057   7.5483647  33.2748843   8.2847580   8.1083933
  23.6671984  10.4403090  13.4852331  24.5297597  10.3398800  13.3989661
  23.3363767   9.8597800  12.9237903  23.7457180  10.3394717  13.3897737
  39.5535684  13.5033959   9.5275566  39.3133907  12.6640375   9.5317992
  40.0327691  13.5834126  10.2516339  39.5887868  13.3915359   9.6350368
  38.1586901  14.6685366  13.4109870  38.8821100  14.2157892  13.2320890
  37.8936864  14.9490032  12.6282198  38.2268175  14.6436334  13.2688586
  27.0273770   9.2645540  10.1462749  26.4026840   9.2763931   9.5388702
  26.6919365   9.7405715  10.7953990  26.8859262   9.3364056  10.1519318
  33.9405691  14.7669244  11.5604885  33.3262684  14.2227294  11.8553521
  34.4572976  14.2533481  11.0810701  33.9261353  14.6105653  11.5329114
  33.1801988  15.8373514   9.2949184  32.7529596  15.2123233   8.8614619
  33.1726932  15.5548436  10.1208191  33.1161129  15.7026295   9.3529011
  26.2964515  10.8738687  12.3637618  26.4558002  10.1182011  12.7689340
  26.1157409  11.4229627  13.0178356  26.2929874  10.8432501  12.5200324
  31.5087698   6.7142269   9.5091718  31.5330185   6.1802381   8.8204498
  31.7599171   6.2059578  10.1717309  31.5497616   6.5603173   9.5056363
  19.0195288  13.9973764   8.9434862  18.9138737  13.9520608   8.0786946
  18.2695508  14.3427544   9.2249147  18.8930890  14.0414672   8.8572192
  27.7889020   5.4413087   8.8897462  27.8287392   5.9422294   9.6032170
  26.9638685   5.5323481   8.6203385  27.6728546   5.5294903   8.9548000
  29.9718633  15.0073827  16.9917757  29.1214263  15.1445541  17.1275402
  30.1346761  14.2737605  17.4365459  29.8702496  14.9187928  17.0773356
  29.2103383  11.9573597  11.1871361  28.3795313  12.1247415  10.9806609
  29.1554901  11.5809548  11.9720247  29.0792798  11.9263328  11.2719889
  27.0187167   5.4482490  16.8227772  27.6439870   4.9044623  17.0957204
  26.5637647   4.9677407  16.2535562  27.0435427   5.2971971  16.7789366
  27.5839427  10.2329188   1.7161479  27.7242388  10.7301653   2.4190120
  28.0821960   9.5315483   1.8575693  27.6780508  10.2031167   1.8413058
  27.6139650  11.0996299  -0.9545944  28.2484729  11.6956724  -1.0196482
  27.6965260  10.7999757  -0.1400074  27.7196201  11.1437208  -0.8442858
  40.5922215  13.6311777  11.9140420  41.1840056  14.2709027  11.9458618
  41.0281210  12.9334814  12.2032487  40.7440647  13.6230127  11.9621253
  32.4215605  18.0529149  12.5398314  31.9140696  18.6064996  12.9838944
  32.1242251  18.1137439  11.7217088  32.3020490  18.1435460  12.4846771
  34.5877787   6.4182469  11.3822977  35.0132859   5.9654995  10.7706503
  33.9734781   5.8642539  11.6587764  34.5606433   6.2696445  11.3328002
  24.1192637  13.2964140   2.3143602  24.6284867  13.8928648   2.6954907
  24.5926910  13.0290114   1.6320021  24.2636013  13.3449956   2.2698125
  31.6658090  22.9853707   9.4455321  31.4423745  22.2272537   9.8139347
  31.1767934  23.0151729   8.7235760  31.5601539  22.8775932   9.3932062
  26.4783169   9.9320399   5.1816782  25.7595158  10.3484531   5.4489646
  26.8495531  10.4974638   4.6308420  26.4275101  10.0769680   5.1399589
  35.7782750  10.5648248  11.0718778  35.7580677  10.3831543  11.9253557
  35.8261951  11.4360266  11.0478362  35.7817391  10.6664786  11.1942073
  33.7229080  17.1535440  16.9967254  33.6824935  16.5085117  16.4112410
  34.5352398  17.0972057  17.3092667  33.8372233  17.0494406  16.9564204
  30.3136547  23.2054166   6.8992405  29.8996946  22.5428296   6.5096247
  30.9983922  23.3532024   6.3788100  30.3534919  23.1294824   6.7648903
  33.6801842  22.3644251   7.6516022  33.2818125  22.4746521   6.8836842
  33.0653061  22.5726317   8.2342582  33.5300731  22.4117819   7.6247321
  29.4106789  10.7832376  13.5517012  28.8985692  10.1753559  13.9102043
  29.2386285  11.4988969  14.0190988  29.3096426  10.7995675  13.6733236
  24.2572503   9.2269951  16.2019374  24.0875094   9.8871326  15.6567581
  23.8138453   9.4376513  16.9231863  24.1671837   9.3555934  16.2281003
  28.1832323   7.4674449   5.2446108  28.6589689   7.8291529   4.6096289
  27.6820922   8.1230917   5.5246250  28.1797682   7.6168638   5.1922849
  33.2875859   8.7056621  15.9919268  33.8447289   8.4770430  15.3597733
  32.9636924   9.4662286  15.7154480  33.3222269   8.7840458  15.8575765
  21.1574568  12.1316817  11.4607864  20.6101287  11.4617463  11.5788732
  21.9466946  11.7646665  11.5251331  21.1926751  11.9781803  11.4876564
  31.0058976  11.7924274  16.9571275  31.7570303  12.1075951  17.2710829
  31.1981553  11.5903445  16.1305197  31.1450390  11.8091656  16.8814671
  19.9161537  11.3437625   8.6153887  19.7383298  10.8914234   9.3408802
  19.6280559  12.1463786   8.7992364  19.8474490  11.3960183   8.7497390
  35.5785118  12.5995342   7.8531277  36.0738784  11.8818337   7.8135297
  34.7684894  12.2966140   7.7385764  35.5329012  12.4492988   7.8305003
  31.0243730  16.4493155   0.0028282  30.2155053  16.1259829  -0.0438409
  31.5318639  15.7426378  -0.0643470  30.9793397  16.2974472  -0.0141424
  21.6534007  13.8765349   5.7275646  20.7879527  13.8651039   5.6158417
  21.7532823  13.6895571   6.5746785  21.5408174  13.8471410   5.8364590
  37.6436937  15.3499030  10.5408406  38.0692009  14.8273452   9.9878831
  37.2793857  15.9479867  10.0197029  37.6523540  15.3609257  10.3817416
  27.2791017  23.6463247   9.3005751  27.5937576  24.4599636   9.3083533
  27.6884430  23.2613466   9.9687911  27.3859115  23.7091950   9.4009843
  34.2315537  19.0633294   6.8709563  34.7026715  19.7773557   7.0399549
  34.5675715  18.4632044   7.4069433  34.3510652  19.0804758   6.9741939
  36.3192521  20.6734607  19.0501635  36.4289487  19.8843168  19.4058383
  36.6483418  20.5840544  18.2475973  36.3844927  20.5440460  18.9844026
  31.1485032   3.8360765  13.8267658  31.2812937   3.0391758  14.1548634
  31.5330184   4.3627168  14.4065934  31.2241360   3.7960681  13.9611161
  34.8689483  18.8551228  13.6337256  34.3210429  18.2309112  13.3657321
  35.3302512  19.0445500  12.9181335  34.8556692  18.7910278  13.4887687
  37.6783347   6.9236583  11.0188448  37.0946336   7.4245789  10.6066016
  37.9987641   6.4166139  10.3852772  37.6396523   6.9228418  10.8646955
  28.8073478   3.8319940  12.0745552  29.3517891   3.4911066  12.6649894
  28.8610414   4.6905401  12.2166836  28.8962598   3.9075199  12.1827425
  24.6204037  17.5936356   8.9484360  25.2248895  17.5532190   8.3198181
  24.4131350  18.4407508   8.9788416  24.6792934  17.7124358   8.8600476
  34.4347809  19.8602301  10.1646597  35.2546183  19.7165267  10.4262892
  34.1541887  20.4848500  10.7063035  34.5144553  19.9312653  10.2834537
  19.8555319  16.5770973   8.8183283  19.7579597  15.7667245   9.1273340
  20.6384189  16.5562767   8.4329551  19.9571456  16.4538063   8.8070146
  35.5642172  24.3429931   8.4379049  34.9447204  23.7522578   8.2689064
  35.4626036  24.9341366   7.8043373  35.4579848  24.3434013   8.3184039
  35.2911305  27.8882212  10.6822618  35.1670002  28.4744658  11.3172437
  35.9429590  27.3942408  10.9834893  35.3684955  27.9021017  10.8208548
  40.8336931  21.4521869   6.8532787  40.5040261  21.9033013   6.1836486
  40.1581933  21.3738033   7.4005794  40.6847368  21.5073004   6.8356010
  38.7292513  27.8061634  16.0951643  38.9013017  27.6967528  16.9436924
  39.2661871  28.4516039  15.8582835  38.8337517  27.8853635  16.1856739
  37.6317085  34.1793274  10.7770141  38.1715310  34.0364405  11.4473514
  36.9487031  34.5790025  11.1454167  37.6109239  34.2172945  10.9304563
  33.0354230  30.3993565  10.9304563  32.7692645  29.5832681  11.0895553
  33.0492794  30.4446720  10.0600078  32.9978952  30.2850470  10.8258045
  37.7852837  23.9371943  13.5771570  37.0924633  23.4668923  13.8232302
  38.4013164  23.7110248  14.1513278  37.7737366  23.8339075  13.6980723
  33.4447644  31.1852344   8.2116307  33.2623217  31.1599230   7.3588599
  34.1797313  31.6551282   8.2505216  33.5261708  31.2513706   8.0914226
  36.5093395  27.9037347  14.7198416  37.2333368  27.8890378  15.2063310
  36.6109532  28.6132702  14.2220384  36.6311605  28.0062050  14.7177202
  33.4118554  28.0645845   8.3615374  33.9892057  27.9282296   9.0007619
  32.7132616  27.6081629   8.6160958  33.3939576  27.9768111   8.4937663
  39.1420568  27.2717663   7.0618752  38.5670160  27.4309831   7.6982713
  38.7656245  26.6353072   6.5987202  39.0023381  27.2015476   7.0873310
  28.8877387  26.9157738   5.0763192  28.9737639  26.5389606   5.8576722
  29.5153185  26.5418183   4.5983150  28.9933938  26.8043220   5.1208669
  40.5912059  21.9469839  19.2997723  40.2765500  22.7169402  19.0367285
  40.2701992  21.3840095  18.7149950  40.4970978  21.9780108  19.1739073
  38.1443956  20.3360361   4.9143919  37.2766381  20.4082960   4.9801528
  38.4319160  21.1382440   5.1031894  38.0583704  20.4654508   4.9518686
  40.2228564  24.5467090  18.0382937  39.4128340  24.8524870  17.9272780
  40.7003251  25.2672673  18.1535522  40.1732043  24.6981692  18.0390009
  36.5572596  30.0829641  12.9082340  37.0693693  30.3613894  12.2591100
  36.2708939  30.8218935  13.2745153  36.5907460  30.2331994  12.8672218
  40.0756322  22.1756029  12.9683381  39.8839519  22.1911164  13.8182805
  40.9254918  22.3719704  12.9450036  40.1732044  22.2070381  13.0906676
  34.4603235  24.7047011  10.9467198  34.3188727  23.8530951  11.0711706
  34.7443798  24.7475671  10.1229404  34.4811081  24.5846761  10.8434822
  40.5738854  29.2770820  14.5034669  40.7182230  29.8572028  13.8677779
  40.9214503  29.6547116  15.2084524  40.6466316  29.4191524  14.5133664
  35.2293540  22.6177358  14.2644648  34.6935730  22.0057717  14.5805416
  35.2911305  23.1925494  14.9178315  35.1589173  22.6124286  14.4080075
  40.8642927  24.3613643  10.0197029  40.0739002  24.1805103  10.3414364
  41.2603550  23.5840595  10.0027323  40.8059803  24.2201104  10.0649577
  41.4514579  19.4158445   9.4441180  40.9353068  18.7238636   9.5692759
  40.8908508  20.0829222   9.3903779  41.2921092  19.4121702   9.4547246
  37.5647359  28.7753448   9.0240964  36.7235365  28.6757322   9.2319858
  37.7737367  29.5448928   9.3755285  37.4712051  28.8745491   9.1068279
  35.0422926  26.3972985   6.8525715  34.6479624  26.4715996   6.0775825
  34.4863043  26.7830931   7.4034077  34.9025738  26.4654759   6.8193375
  41.3764024  26.7034847   8.2738562  41.0727161  26.1490835   8.8748970
  40.6743445  26.8827057   7.7866596  41.2280234  26.6479629   8.2908268
  39.4382375  33.9184568  12.9810660  39.3302730  33.9286630  13.8472718
  39.6478156  34.7439348  12.7915614  39.4532486  34.0425642  13.0814751
  37.4556167  31.1697210  10.4432597  36.8644100  31.8106708  10.4135612
  38.2177190  31.5934827  10.4163897  37.4804427  31.3273048  10.4347745
  37.8516790  22.3299208  11.1100615  38.3118271  22.4038137  11.8475739
  37.8972896  23.1280462  10.7600436  37.9267345  22.4593355  11.1673371
  39.5000139  22.9965903  15.6772642  39.1085704  22.3499250  16.1128420
  39.6686002  23.5877338  16.2966897  39.4671050  22.9880170  15.8335348
  34.6404567  25.9588398  13.4852331  35.5030180  25.8584108  13.3989661
  34.3096350  25.3783108  12.9237903  34.7189764  25.8580025  13.3897737
  38.0006353  24.7830847  10.1462749  37.3759424  24.7949239   9.5388702
  37.6651948  25.2591023  10.7953990  37.8591845  24.8549364  10.1519318
  34.7132029  32.8431308  11.5866514  34.1831953  32.1523746  11.6361488
  34.9857122  32.8341493  10.7579222  34.6756751  32.7398439  11.4713930
  37.2697099  26.3923995  12.3637618  37.4290585  25.6367319  12.7689340
  37.0889992  26.9414935  13.0178356  37.2662458  26.3617809  12.5200324
  29.9927871  29.5159072   8.9434862  29.8871320  29.4705916   8.0786946
  29.2428091  29.8612852   9.2249147  29.8663474  29.5599980   8.8572192
  38.7621604  20.9598395   8.8897462  38.8019975  21.4607602   9.6032170
  37.9371268  21.0508789   8.6203385  38.6461129  21.0480211   8.9548000
  40.9451216  30.5259135  16.9917757  40.0946847  30.6630849  17.1275402
  41.1079344  29.7922913  17.4365459  40.8435080  30.4373236  17.0773356
  40.1835967  27.4758905  11.1871361  39.3527897  27.6432723  10.9806609
  40.1287484  27.0994856  11.9720247  40.0525382  27.4448636  11.2719889
  37.9919750  20.9667798  16.8227772  38.6172454  20.4229930  17.0957204
  37.5370230  20.4862715  16.2535562  38.0168011  20.8157279  16.7789366
  40.3839372  26.3017684  13.5517012  39.8718275  25.6938867  13.9102043
  40.2118868  27.0174277  14.0190988  40.2829009  26.3180983  13.6733236
  35.2305087  24.7455259  16.2019374  35.0607677  25.4056634  15.6567581
  34.7871037  24.9561821  16.9231863  35.1404420  24.8741242  16.2281003
  32.1307151  27.6502125  11.4607864  31.5833871  26.9802771  11.5788732
  32.9199530  27.2831973  11.5251331  32.1659335  27.4967111  11.4876564
  30.8894121  26.8622933   8.6153887  30.7115882  26.4099542   9.3408802
  30.6013143  27.6649094   8.7992364  30.8207074  26.9145491   8.7497390
  32.6266591  29.3950657   5.7275646  31.7612110  29.3836347   5.6158417
  32.7265407  29.2080879   6.5746785  32.5140758  29.3656718   5.8364590
  39.7806062  19.3505248  12.0745552  40.3250475  19.0096374  12.6649894
  39.8342998  20.2090709  12.2166836  39.8695181  19.4260507  12.1827425
  30.8287903  32.0956281   8.8183283  30.7312181  31.2852553   9.1273340
  31.6116773  32.0748074   8.4329551  30.9304040  31.9723371   8.8070146
   2.6832290  20.8320971  22.7139465   2.6156790  20.8516930  21.8442052
   2.6687952  21.6751298  22.9395136   2.6711046  20.9594705  22.6191942
   7.7045835  34.7870369  15.9214787   7.6739839  35.6415005  16.0933057
   8.3027183  34.4865661  16.4800931   7.7882993  34.8686865  16.0289589
   4.8397714  24.7110608  17.8907711   4.5251155  25.4014087  18.3228134
   4.3224656  24.6555390  17.1893212   4.7162185  24.8045497  17.8504661
   4.1810148  34.7115109  14.0045122   3.6521619  34.9274743  14.6642428
   4.7035168  35.4051248  13.9246091   4.1798601  34.8458246  14.0900721
   9.1312159  32.9331814  23.1728588   8.2940580  33.0034001  23.4076182
   9.1000390  32.9356309  22.3002890   9.0030442  32.9442041  23.0788136
   6.8119999  27.9974596  21.7572310   7.4545907  28.0672700  22.3434225
   7.0643020  27.3303819  21.2551852   6.9442131  27.9100944  21.7699589
  10.0266862  37.6741688  18.4062519  10.6883296  37.1132356  18.3058428
   9.3858274  37.1793719  18.7315211  10.0295730  37.5178097  18.4394860
   3.3554039  35.3773639  16.6667692   3.4500893  36.1162933  17.1207318
   2.7312882  34.9491114  17.1002257   3.2763069  35.4234959  16.7975840
   2.0471282  29.0911567  19.4683263   1.3427608  28.6020753  19.6267182
   2.0956256  29.1034042  18.5971708   1.9501333  29.0201215  19.3622603
   9.2501501  32.7719233  17.4884274   8.9938066  31.9599175  17.2982156
  10.0930815  32.7796800  17.2614461   9.3367527  32.6531231  17.4269091
   3.4304594  26.7118857  22.2260428   3.8115105  26.0297028  22.6128302
   2.6267878  26.4228459  22.0436092   3.3681055  26.5685906  22.2564484
  13.6564873  36.3506279  22.7139465  13.5889374  36.3702238  21.8442052
  13.6420536  37.1936606  22.9395136  13.6443630  36.4780013  22.6191942
   4.0661220  27.7541436  26.0380554   4.8114812  27.5651247  25.6243980
   3.6498524  28.2799674  25.4794411   4.1146194  27.8043582  25.8945128
  11.4423491  35.1250665  20.9886059  11.9931412  34.4918734  21.2283151
  11.4267606  35.6566058  21.6801564  11.5208687  35.1099613  21.1264918
   5.1451897  33.3646998  20.0990656   4.8016663  32.6437334  20.4497905
   5.2444939  33.1560850  19.2569014   5.1093940  33.2271202  20.0262336
   3.6642862  31.2838583  21.9750199   2.8253963  31.3099862  21.7388462
   3.7347230  31.9309319  22.5555545   3.5511256  31.3834709  22.0259315
   2.1112141  28.1823960  16.7077814   2.8138493  27.9831709  16.2297773
   1.8456329  27.4099903  17.0146658   2.1758773  28.0386926  16.6823256
   7.5400386  36.4906570  19.2611440   7.4534361  36.6461996  20.1146219
   7.0850866  37.1344645  18.8870845   7.4603643  36.6082325  19.3318547
   1.4126202  33.8117317  17.8837000   1.1660916  33.7313068  18.7173789
   1.7411325  33.0270785  17.6899527   1.4247446  33.6843582  17.9784523
   4.2572250  22.8204630  19.8374361   4.3755818  23.2781093  19.1041664
   4.0834426  22.0149891  19.5510579   4.2491421  22.7698402  19.6875295
   1.8335085  31.5655497  25.7905680   2.0477054  30.9266411  25.2369034
   1.2168984  32.0101321  25.3613542   1.7740414  31.5365640  25.6456111
   3.9974173  33.1744562  26.7288987   3.1850855  32.8670452  26.8102160
   4.4564108  32.6943562  27.2931700   3.9454558  33.0581054  26.8243581
   6.2941167  33.7917276  22.6899048   5.8668775  33.7043624  21.9347148
   5.6567220  33.8995051  23.2753892   6.1370774  33.7949936  22.6644490
   3.4772248  26.6457495  19.3254908   3.6821841  26.5779803  20.1711905
   3.1498672  27.4516316  19.2576085   3.4587496  26.7543435  19.4414563
   6.7305935  27.1989259  18.8057673   6.1180249  27.6859661  19.1911405
   6.8270110  26.5232750  19.3495324   6.6543833  27.1707568  18.9436531
   0.7325016  28.9552100  13.9055173   1.1868763  29.1262661  14.6303017
   1.2065062  28.3420211  13.5052948   0.8693337  28.8902985  13.9528934
   1.0615912  31.2320108  20.9094099   0.5875867  30.7061870  21.4199410
   1.4334048  30.6849581  20.3408961   1.0465801  31.0736104  20.9009246
   7.3252643  36.2922483  22.3200880   7.0850866  35.4528899  22.3243306
   7.8044650  36.3722650  23.0441653   7.3604827  36.1803883  22.4275682
   2.9899412  32.1256662  13.9719853   2.4622431  32.2085406  13.2825562
   3.4495120  32.8674534  13.9684498   2.9801262  32.2477325  13.8694548
   9.3257830  33.0723941  20.2730139   9.0867600  33.0319775  19.4350923
   9.4891731  33.9195093  20.3995860   9.3148133  33.1916026  20.1683621
   2.0101777  25.8288447  25.7113721   1.5142338  26.0252121  25.0205288
   2.7670839  26.2281115  25.5402523   2.0488601  25.9166181  25.5833858
   8.3639174  36.4200301  24.7065734   8.9557014  37.0597552  24.7383932
   8.7998168  35.7223338  24.9957800   8.5157605  36.4118651  24.7546566
   2.3594746  29.2070993  24.1748291   2.7849818  28.7543519  23.5631817
   1.7451739  28.6531064  24.4513078   2.3323391  29.0584969  24.1253316
   5.3888315  33.6345519  17.0068876   4.7179505  34.1775222  16.8781942
   6.0828066  34.1040375  16.7650571   5.3917183  33.7843791  16.9524404
   5.5516443  30.0901403  19.9159249   5.9044053  29.6631126  20.5905048
   4.6931244  30.0052247  20.0460326   5.4765887  30.0146144  20.0354260
   3.5499709  33.3536772  23.8644092   3.5297636  33.1720067  24.7178870
   3.5978909  34.2248790  23.8403675   3.5534350  33.4553310  23.9867386
   6.9840503  25.2119815  20.8443562   6.4771368  24.5048954  20.7764739
   7.7807937  24.8813004  20.9744638   7.0267742  25.0592966  20.8542557
   2.9004519  31.7186427  16.7417226   2.6718212  31.7419129  15.8995584
   3.1602595  30.8943894  16.8612236   2.9050707  31.6002507  16.6342423
   1.0592818  31.4945145  28.7844581   1.6164248  31.2658954  28.1523047
   0.7353883  32.2550810  28.5079794   1.0939228  31.5728982  28.6501078
   5.6261225  30.7086364  16.9920384   5.6255451  30.5535021  17.8504660
   5.4217405  31.5549352  16.9361769   5.5961003  30.8106985  17.1108323
   3.3502077  35.3883866  20.6456591   3.8455742  34.6706861  20.6060611
   2.5401853  35.0854664  20.5311078   3.3045970  35.2381513  20.6230317
   1.9934345  23.5479615  23.2174065   1.1880309  23.4377344  23.5341903
   1.8641081  23.6492070  22.3603931   1.8554478  23.5463285  23.1382105
   5.4500306  29.7125107  23.8113762   4.8663295  30.2134313  23.3991329
   5.7704600  29.2054663  23.1778085   5.4113481  29.7116942  23.6572269
  15.2304833  38.3389938  19.8374361  15.3488401  38.7966401  19.1041664
  15.0567009  37.5335199  19.5510579  15.2224004  38.2883710  19.6875295
  17.9573086  40.7305123  20.8443562  17.4503951  40.0234262  20.7764739
  18.7540520  40.3998312  20.9744638  18.0000326  40.5778274  20.8542557
  12.9666929  39.0664923  23.2174065  12.1612893  38.9562652  23.5341903
  12.8373664  39.1677378  22.3603931  12.8287062  39.0648593  23.1382105
   3.9090060  17.0810676  17.2168221   4.6156827  16.5862707  17.3455155
   4.0977995  17.5219758  16.4870879   4.0417966  17.0729027  17.1277266
   3.4448165  12.8716195  10.2539416   3.9904125  13.5501281  10.3133386
   3.3865041  12.7303656   9.3940998   3.5164079  12.9508196  10.1351477
   9.3309025  17.2239545   6.3118213   8.5006728  17.4350188   6.4751630
   9.2818277  16.3976599   6.0360497   9.2015760  17.1329151   6.2955579
   1.0482354  20.5038213  15.1082296   1.1365700  20.3164353  15.9560506
   1.4772067  19.8575643  14.7087143   1.1244457  20.3801221  15.1754047
   8.8262983   9.8709945  10.1068635   7.9891404   9.9412132  10.3416229
   8.7951214   9.8734440   9.2342937   8.6981266   9.8820172  10.0128183
   6.5873340  17.8938899   6.4482929   6.1508572  17.8975642   7.2041900
   6.2536256  18.5744398   6.0162507   6.4735960  17.9951355   6.4963762
   1.1602414  19.9347232  17.7726079   1.9442830  20.0478080  18.1381821
   0.9599008  19.1088369  17.9684765   1.2468439  19.8293951  17.8560465
   9.7217686  14.6119819   5.3402566  10.3834120  14.0510488   5.2398475
   9.0809098  14.1171850   5.6655257   9.7246554  14.4556228   5.3734906
   1.3057337  15.4937983  14.2498020   1.8796198  14.8565227  14.4046584
   1.2272140  15.4942065  13.3807677   1.3790572  15.4003094  14.1444431
   6.6277485  16.8646960  14.2582873   6.3916122  16.0335025  14.1394934
   7.2720713  16.8132567  14.8437717   6.6872155  16.7344648  14.3268767
   7.6513905  16.6491409  10.3211168   7.3459722  17.3819466  10.6824483
   6.9320121  16.2429339  10.0403954   7.5001247  16.6973142  10.3324305
  13.3515697  13.2884410   9.6479512  13.2840198  13.3080369   8.7782098
  13.3371360  14.1314737   9.8735182  13.3394454  13.4158144   9.5531989
   3.7612044   4.6919567  12.9720601   4.5065636   4.5029378  12.5584027
   3.3449348   5.2177805  12.4134458   3.8097018   4.7421713  12.8285174
  11.1374315  12.0628796   7.9226106  11.6882236  11.4296865   8.1623198
  11.1218430  12.5944189   8.6141611  11.2159511  12.0477744   8.0604964
   7.2351210  13.4284701   6.1951487   7.1485185  13.5840127   7.0486266
   6.7801690  14.0722777   5.8210892   7.1554467  13.5460456   6.2658594
   5.0025075  17.4578808   8.6063828   4.8639434  18.1559853   9.1112570
   4.2225073  17.3027464   8.2500010   4.8668302  17.5378974   8.6290102
   3.3403160  13.7575183  14.8586210   3.3351199  12.8854999  14.8628636
   4.0464154  13.9563352  14.3855665   3.4448164  13.6579057  14.7893245
   2.7421812  16.2037420   7.4721835   2.0666814  15.9722652   7.9735222
   2.7514188  15.5958603   6.8463940   2.6440317  16.0796345   7.4537987
   4.2513747  17.8199971  19.7850339   5.0648612  17.5485120  19.9455471
   4.0908713  17.5207511  18.9810535   4.3483695  17.7354897  19.6895745
   1.5285909   8.5033628  12.7245727   1.7427878   7.8644542  12.1709081
   0.9119808   8.9479452  12.2953589   1.4691238   8.4743772  12.5796158
   2.9390577  21.4252376   4.1699948   2.5470368  21.1219091   3.4522814
   3.0943649  22.2621466   3.9804902   2.9044167  21.5036213   4.0356445
   3.6924997  10.1122693  13.6629034   2.8801679   9.8048583  13.7442207
   4.1514931   9.6321693  14.2271746   3.6405382   9.9959185  13.7583628
   0.7878504  11.5182764  18.4457736   1.2578136  12.1424881  18.8325611
   0.8340385  10.8499740  19.0050951   0.8646380  11.5117445  18.5857808
   4.2634991  18.8806261  15.0573179   4.9014711  18.3866457  14.7235635
   3.6209082  18.8083661  14.4725406   4.2629217  18.7965269  14.9215534
   5.9891991  10.7295407   9.6239095   5.5619599  10.6421756   8.8687195
   5.3518044  10.8373182  10.2093939   5.8321598  10.7328067   9.5984537
   4.3189247  19.5726069  11.6978536   5.1081626  19.2215134  11.8180618
   4.4932845  20.3862458  11.4355170   4.4609529  19.6411926  11.6766404
  10.0681787  15.2084327  11.1675236  10.1264911  15.6570976  11.9135213
   9.4348255  15.6183140  10.7305316   9.9833082  15.3358062  11.2127784
   3.7080882  20.8287869   7.6029982   3.5100571  21.3178683   6.9086194
   3.0868593  21.0329110   8.1814116   3.5868446  20.9304407   7.5853206
   7.0203467  13.2300615   9.2540926   6.7801690  12.3907030   9.2583353
   7.4995474  13.3100781   9.9781700   7.0555650  13.1182014   9.3615729
   5.6254684  14.3952021  13.1375231   6.3488883  13.9424548  12.9586251
   5.3604646  14.6756687  12.3547559   5.6935957  14.3702990  12.9953946
   1.4073473  14.4935899  11.2870246   0.7930467  13.9493950  11.5818881
   1.9240758  13.9800136  10.8076062   1.3929136  14.3372308  11.2594474
   8.0589998  13.3578432  11.6405780   8.6507838  13.9975683  11.6723978
   8.4948992  12.6601469  11.9297847   8.2108429  13.3496782  11.6886613
   3.2450533  10.2914903  10.7984138   3.2248460  10.1098198  11.6518917
   3.2929733  11.1626921  10.7743722   3.2485174  10.3931441  10.9207433
   1.1896862  16.8802095  16.7232615   1.1492717  16.2351772  16.1377771
   2.0020181  16.8238712  17.0358027   1.3040016  16.7761062  16.6829564
   1.1469624  22.0910906   7.3781382   0.7485907  22.2013176   6.6102203
   0.5320844  22.2992972   7.9607942   0.9968513  22.1384474   7.3512682
   5.1104720  15.0765685  10.2673766   5.5359791  14.5540107   9.7144191
   4.7461640  15.6746522   9.7462389   5.1191322  15.0875912  10.1082776
   1.6983319  18.7899949   6.5974924   2.1694497  19.5040212   6.7664909
   2.0343498  18.1898699   7.1334793   1.8178434  18.8071413   6.7007300
   3.7860304  20.4001263  18.7766996   3.8957269  19.6109823  19.1323743
   4.1151200  20.3107199  17.9741334   3.8512710  20.2707115  18.7109387
   2.3357266  18.5817883  13.3602616   1.7878212  17.9575767  13.0922682
   2.7970294  18.7712155  12.6446696   2.3224475  18.5176934  13.2153048
   1.9015592  19.5868956   9.8911958   2.7213966  19.4431922  10.1528253
   1.6209670  20.2115155  10.4328396   1.9812335  19.6579308  10.0099897
  18.3729242  27.2433808   2.8554834  18.3423247  28.0978444   3.0273103
  18.9710591  26.9429100   3.4140978  18.4566400  27.3250304   2.9629636
  11.5728927  26.3309459   7.6107764  10.7166823  26.4917957   7.6616881
  11.6196581  25.4601523   7.6312825  11.4528039  26.2260261   7.6213830
  14.8822644  32.5995984  17.2168221  15.5889411  32.1048015  17.3455155
  15.0710579  33.0405066  16.4870879  15.0150549  32.5914335  17.1277266
  14.4180748  28.3901503  10.2539416  14.9636708  29.0686589  10.3133386
  14.3597624  28.2488964   9.3940998  14.4896662  28.4693504  10.1351477
  16.1945817  29.8186110   1.1273144  16.0785343  30.5693796   1.5565282
  16.9901703  29.5610063   1.3769231  16.2950406  29.8920957   1.2277235
   3.0309955  24.0696586   8.1644410   2.4114986  23.4789233   7.9954425
   2.9293818  24.6608021   7.5308733   2.9247630  24.0700668   8.0449399
  10.1277850  25.8096128   2.4976873  10.8258015  25.9884255   2.9898336
  10.4430183  25.2866467   1.8747262  10.2773188  25.7589900   2.4778883
   2.7579088  27.6148868  10.4087979   2.6337785  28.2011313  11.0437798
   3.4097372  27.1209063  10.7100254   2.8352737  27.6287672  10.5473908
   7.7837429  30.7910585   9.6875490   8.4286431  30.2983028   9.3686438
   8.0239206  30.9335371  10.5141568   7.9148014  30.7388027   9.7625023
  10.3223520  33.6365490   9.3382382  10.6046763  32.8416896   9.1169138
  11.0509681  34.1146078   9.3587443  10.4713084  33.5900087   9.3085398
   8.3004714  21.1788524   6.5798148   7.9708044  21.6299668   5.9101846
   7.6249716  21.1004688   7.1271154   8.1515150  21.2339660   6.5621371
  13.9175122  30.5493754  -0.5612566  13.8326417  31.4054721  -0.4162998
  14.4059506  30.2738078   0.1069593  13.9764020  30.6351075  -0.4410485
  15.5081122  17.1674047   4.8247758  15.1934563  17.8577526   5.2568181
  14.9908063  17.1118830   4.1233259  15.3845592  17.2608936   4.7844707
  14.8493556  27.1678548   0.9385169  14.3205027  27.3838182   1.5982475
  15.3718575  27.8614687   0.8586138  14.8482008  27.3021685   1.0240768
  20.3041608  32.7424853   6.3118213  19.4739312  32.9535496   6.4751630
  20.2550861  31.9161907   6.0360497  20.1748344  32.6514459   6.2955579
   8.3651346  35.5728707   9.1466123   7.8478288  35.2136122   8.5427431
   9.0625737  35.0490881   9.1572189   8.3916927  35.4426395   9.0596381
  12.0214938  36.0223521  15.1082296  12.1098284  35.8349661  15.9560506
  12.4504651  35.3760950  14.7087143  12.0977040  35.8986529  15.1754047
   9.5885398  35.3054681  14.0899958   9.0256233  34.8927291  14.6139619
  10.3506421  35.2307587  14.5093101   9.6179846  35.2332081  14.2292958
  19.7995567  25.3895253  10.1068635  18.9623988  25.4597440  10.3416229
  19.7683798  25.3919748   9.2342937  19.6713849  25.4005480  10.0128183
   6.1960296  27.5328289  15.8217003   6.3680799  27.4234184  16.6702285
   6.7329653  28.1782694  15.5848196   6.3005300  27.6120291  15.9122100
   5.0984868  33.9059929  10.5035502   5.6383093  33.7631060  11.1738874
   4.4154814  34.3056680  10.8719528   5.0777022  33.9439600  10.6569923
  10.5417452  18.6497542   1.7948232  11.2703612  18.4713497   1.3486388
  10.6312345  19.4915622   2.0055410  10.6624114  18.7481421   1.7601750
  14.5225753  29.5850930   5.6980526  15.2783268  30.0182444   5.7369435
  14.6288077  28.9355700   6.2715162  14.6495923  29.5528414   5.7878552
  17.5605924  33.4124207   6.4482929  17.1241156  33.4160950   7.2041900
  17.2268839  34.0929706   6.0162507  17.4468544  33.5136663   6.4963762
  12.1334997  35.4532540  17.7726079  12.9175414  35.5663388  18.1381821
  11.9331592  34.6273677  17.9684765  12.2201023  35.3479259  17.8560465
  17.4803407  20.4538035   8.6912357  18.1229315  20.5236140   9.2774272
  17.7326427  19.7867258   8.1891899  17.6125539  20.3664384   8.7039636
   5.2520619  23.6638598  13.3036931   4.5592416  23.1935578  13.5497662
   5.8680946  23.4376903  13.8778638   5.2405149  23.5605730  13.4246084
  12.2905391  37.3642642  11.4192535  11.4920636  37.1242142  11.6766404
  12.7391402  37.4157035  12.1659583  12.2380002  37.3365033  11.5677459
  20.6950270  30.1305127   5.3402566  21.3566704  29.5695795   5.2398475
  20.0541682  29.6357158   5.6655257  20.6979137  29.9741536   5.3734906
  16.9815101  31.1470509   5.0814555  17.2170690  31.2915708   4.2541406
  17.1304664  31.9112917   5.4746069  17.0380904  31.2809564   5.0178159
   3.9761178  27.6304002  14.4463776   4.7001150  27.6157033  14.9328671
   4.0777315  28.3399358  13.9485744   4.0979387  27.7328705  14.4442563
  18.8105557  29.9872175   2.9184159  19.1413774  30.5199815   2.3124254
  19.3838645  30.0411063   3.5746110  18.9439236  30.0741744   2.9261941
  11.3506127  31.1103087  19.3112723  10.5579108  31.4246599  19.4965343
  11.4655055  31.3254555  18.4733508  11.2501538  31.1886924  19.2151058
  14.0237446  27.8337078   3.6007739  14.1184301  28.5726372   4.0547364
  13.3996290  27.4054553   4.0342304  13.9446477  27.8798399   3.7315887
  12.2789920  31.0123291  14.2498020  12.8528782  30.3750535  14.4046584
  12.2004724  31.0127373  13.3807677  12.3523155  30.9188402  14.1444431
   7.6353639  29.4446556   6.3019217   7.3772883  28.6118291   6.2750517
   7.6902122  29.6704169   5.4611718   7.6053417  29.3544327   6.1739354
  12.7154689  21.5475006   6.4023310  12.0111016  21.0584192   6.5607229
  12.7639663  21.5597481   5.5311754  12.6184741  21.4764654   6.2962650
   6.6088351  26.9984318   6.7884112   6.0337942  27.1576487   7.4248073
   6.2324027  26.3619727   6.3252563   6.4691163  26.9282131   6.8138670
  10.2761640  25.4707668  11.6476490   9.8876072  25.0461885  10.9928682
   9.6116338  25.7189817  12.1553517  10.1208567  25.4446389  11.6264358
  19.9184909  25.2282672   4.4224321  19.6621474  24.4162614   4.2322203
  20.7614223  25.2360239   4.1954508  20.0050934  25.1094670   4.3609138
  14.0988001  19.1682296   9.1600475  14.4798513  18.4860467   9.5468349
  13.2951286  18.8791898   8.9776139  14.0364463  19.0249345   9.1904531
  17.6010068  32.3832268  14.2582873  17.3648705  31.5520333  14.1394934
  18.2453297  32.3317875  14.8437717  17.6604739  32.2529956  14.3268767
   8.0579842  21.6736495  19.0263083   7.7433283  22.4436057  18.7632646
   7.7369774  21.1106751  18.4415310   7.9638761  21.7046763  18.9004433
  18.6246489  32.1676717  10.3211168  18.3192306  32.9004774  10.6824483
  17.9052704  31.7614646  10.0403954  18.4733831  32.2158450  10.3324305
   9.6329958  33.6500212   6.6519396   9.7068966  33.4875384   7.5061246
  10.4499464  33.8390402   6.4079877   9.7646317  33.6536955   6.7417421
  24.3248281  28.8069718   9.6479512  24.2572781  28.8265677   8.7782098
  24.3103943  29.6500045   9.8735182  24.3127037  28.9343452   9.5531989
   5.6111739  20.0627016   4.6409279   4.7434164  20.1349615   4.7066889
   5.8986943  20.8649095   4.8297255   5.5251487  20.1921163   4.6784046
  14.7344627  20.2104875  12.9720601  15.4798219  20.0214686  12.5584027
  14.3181932  20.7363113  12.4134458  14.7829602  20.2607021  12.8285174
  22.1106898  27.5814104   7.9226106  22.6614820  26.9482173   8.1623198
  22.0951014  28.1129497   8.6141611  22.1892095  27.5663052   8.0604964
   8.7629289  31.4152701  12.4686000   8.2640983  32.1268469  12.5470888
   9.5729513  31.7353368  12.4304162   8.8085396  31.5679550  12.4742568
   5.0257407  30.6775654   6.7148721   4.7370655  30.0513125   7.2494448
   5.8940755  30.6195942   6.7813401   5.1117659  30.5763198   6.8039675
  15.8135304  25.8210438   7.0330702  15.4700070  25.1000773   7.3837952
  15.9128347  25.6124289   6.1909061  15.7777347  25.6834641   6.9602382
  16.2748333  32.2836142   2.5754691  16.8406366  32.9429352   2.4913233
  15.6276237  32.6285840   3.0471093  16.2627090  32.4318083   2.6327447
   7.6896347  24.2733746  17.7648298   6.8796123  24.5791525  17.6538140
   8.1671034  24.9939328  17.8800882   7.6399826  24.4248347  17.7655369
   6.5487907  33.4879467   8.0131201   6.0268660  33.6279758   8.6983066
   6.9361927  32.7290131   8.2033318   6.5291608  33.3964990   8.1432278
  14.3326270  23.7402022   8.9090245  13.4937370  23.7663301   8.6728509
  14.4030637  24.3872758   9.4895592  14.2194663  23.8398148   8.9599362
   4.0240379  29.8096296  12.6347700   4.5361476  30.0880549  11.9856460
   3.7376722  30.5485590  13.0010513   4.0575242  29.9598650  12.5937578
  12.7795548  20.6387399   3.6417861  13.4821901  20.4395148   3.1637820
  12.5139737  19.8663342   3.9486705  12.8442180  20.4950365   3.6163303
  18.2083794  28.9470009   6.1951487  18.1217768  29.1025435   7.0486266
  17.7534274  29.5908085   5.8210892  18.1287050  29.0645764   6.2658594
   7.5424104  21.9022685  12.6948742   7.3507301  21.9177819  13.5448165
   8.3922700  22.0986359  12.6715397   7.6399826  21.9337036  12.8172037
   1.9271017  24.4313666  10.6732558   1.7856509  23.5797607  10.7977066
   2.2111581  24.4742327   9.8494764   1.9478863  24.3113416  10.5700182
  12.0809610  26.2680756   4.8177047  11.8344324  26.1876507   5.6513836
  12.4094733  25.4834224   4.6239574  12.0930853  26.1407022   4.9124570
  15.9757659  32.9764116   8.6063828  15.8372018  33.6745161   9.1112570
  15.1957656  32.8212772   8.2500010  15.8400885  33.0564282   8.6290102
  14.3135744  29.2760491  14.8586210  14.3083782  28.4040307  14.8628636
  15.0196738  29.4748660  14.3855665  14.4180748  29.1764365  14.7893245
   8.0406637  29.0037475  14.2300030   8.1850013  29.5838683  13.5943140
   8.3882286  29.3813771  14.9349884   8.1134098  29.1458179  14.2399025
  10.2126554  28.2027643  12.0125161   9.4649868  28.3958658  11.6073439
  10.3668080  27.3772863  11.7749283  10.1248982  28.1092755  11.9170567
   7.1134392  37.1940247  11.0961056   7.2623956  36.6343162  10.4434461
   7.8934394  37.2732248  11.4793575   7.2508486  37.1225812  11.0558006
   9.6387693  37.3654889  12.3745547   9.5631364  36.6963700  12.9296336
   9.5677552  38.0672678  12.8886214   9.6168300  37.3699797  12.5322395
  10.4528331  22.0978194  12.9020565  10.9100945  22.8302168  13.0293357
  10.5284660  21.6744659  13.6607821  10.5319301  22.1435432  13.0321641
   2.6961323  22.3444014  13.9910009   2.1603512  21.7324372  14.3070776
   2.7579087  22.9192150  14.6443675   2.6256955  22.3390941  14.1345435
  14.9255657  15.2768069   6.7714408  15.0439225  15.7344532   6.0381711
  14.7517833  14.4713330   6.4850626  14.9174828  15.2261841   6.6215342
   8.3310709  24.0880298   9.7462389   7.5406784  23.9071758  10.0679725
   8.7271332  23.3107250   9.7292683   8.2727586  23.9467759   9.7914937
  13.7154396  31.7222728   7.4721835  13.0399397  31.4907960   7.9735222
  13.7246772  31.1143911   6.8463940  13.6172900  31.5981653   7.4537987
  10.8448540  26.5640557  14.2285888  10.7807681  27.4250513  14.1006025
  10.9845727  26.2472550  13.4281439  10.8564010  26.6440724  14.0914101
   9.5267633  29.2572696   8.3702091   9.1029883  29.4577195   7.6341109
   9.3512489  28.4101544   8.4826391   9.4378514  29.1621478   8.2775781
  11.3529223  29.1282631   2.6723427  11.8944769  28.6253012   3.1362047
  11.6675782  29.0747826   1.8612912  11.4793620  29.0462052   2.6207239
  15.2246330  33.3385279  19.7850339  16.0381196  33.0670427  19.9455471
  15.0641297  33.0392819  18.9810535  15.3216279  33.2540205  19.6895745
  12.5018492  24.0218936  12.7245727  12.7160462  23.3829850  12.1709081
  11.8852392  24.4664760  12.2953589  12.4423822  23.9929079  12.5796158
  13.9123160  36.9437684   4.1699948  13.5202952  36.6404399   3.4522814
  14.0676233  37.7806774   3.9804902  13.8776750  37.0221521   4.0356445
  14.6657580  25.6308001  13.6629034  13.8534262  25.3233891  13.7442207
  15.1247515  25.1507001  14.2271746  14.6137965  25.5144493  13.7583628
  14.0762835  33.5087673   4.1105978  13.7177490  33.6802316   4.8870011
  13.5901546  33.9700879   3.5533977  13.9521532  33.6026644   4.1431248
  11.8933221  17.1318871   7.7133070  11.0226779  17.1057593   7.6666379
  12.1473562  16.9596064   6.8958916  11.8026781  17.1029015   7.5853207
  11.7611088  27.0368072  18.4457736  12.2310719  27.6610189  18.8325611
  11.8072968  26.3685048  19.0050951  11.8378964  27.0302753  18.5857808
   8.9182362  19.1425100   9.1706540   8.4020850  18.4505291   9.2958119
   8.3576290  19.8095877   9.1169139   8.7588875  19.1388357   9.1812606
  10.9874595  19.6818060  10.9999393  10.6006348  19.7067091  11.7812923
  10.5007532  19.1159739  10.5473909  10.8587104  19.6013811  11.0487296
  15.2367574  34.3991569  15.0573179  15.8747295  33.9051765  14.7235635
  14.5941666  34.3268969  14.4725406  15.2361801  34.3150577  14.9215534
  16.9624575  26.2480715   9.6239095  16.5352183  26.1607063   8.8687195
  16.3250628  26.3558490  10.2093939  16.8054182  26.2513375   9.5984537
  10.6531737  16.5685045  13.2909653  11.2824855  17.1045345  13.0130723
  10.8217599  16.4762404  14.1423218  10.7709531  16.6346408  13.3758181
  10.4545652  21.3556240  15.5636064  11.2819081  21.0841389  15.6194679
  10.4753498  22.1517082  15.9199882  10.5798502  21.4335994  15.6251247
  15.2921831  35.0911377  11.6978536  16.0814209  34.7400442  11.8180618
  15.4665429  35.9047766  11.4355170  15.4342113  35.1597234  11.6766404
   5.0315141  28.5020103   8.7506325   4.1903148  28.4023977   8.9585219
   5.2405149  29.2715583   9.1020646   4.9379834  28.6012146   8.8333640
  14.1455655  19.1020934   6.2594955  14.3505249  19.0343242   7.1051952
  13.8182079  19.9079755   6.1916132  14.1270903  19.2106874   6.3754610
   8.8431806  26.4301502   8.0003923   8.5394944  25.8757490   8.6014330
   8.1411227  26.6093712   7.5131957   8.6948016  26.3746284   8.0173628
   7.8997903  23.7402022   2.5648624   8.1757638  23.0220934   2.1526192
   8.4996573  24.3386942   2.3569730   8.0291168  23.7222393   2.4729386
   6.9050157  33.6451223  12.7076020   6.7970512  33.6553285  13.5738078
   7.1145939  34.4706003  12.5180974   6.9200268  33.7692298  12.8080112
  17.3989343  19.6552698   5.7397720  16.7863657  20.1423100   6.1251452
  17.4953518  18.9796189   6.2835371  17.3227241  19.6271007   5.8776578
  11.4008424  21.4115539   0.8395219  11.8552170  21.5826100   1.5643064
  11.8748470  20.7983650   0.4392995  11.5376744  21.3466424   0.8868981
   4.9223949  30.8963865  10.1697958   4.3311883  31.5373363  10.1400973
   5.6844973  31.3201482  10.1429257   4.9472210  31.0539704  10.1613105
   5.3184572  22.0565863  10.8365975   5.7786054  22.1304792  11.5741099
   5.3640679  22.8547117  10.4865797   5.3935127  22.1860010  10.8938732
   6.9667922  22.7232558  15.4038003   6.5753487  22.0765905  15.8393780
   7.1353785  23.3143993  16.0232258   6.9338832  22.7146826  15.5600709
  21.0414371  30.7269635  11.1675236  21.0997495  31.1756284  11.9135213
  20.4080838  31.1368448  10.7305316  20.9565666  30.8543370  11.2127784
  14.6813466  36.3473177   7.6029982  14.4833154  36.8363991   6.9086194
  14.0601177  36.5514418   8.1814116  14.5601030  36.4489715   7.5853206
   8.7421444  28.1158074   1.9440227   9.4863489  28.5032350   2.1823176
   8.8882140  27.2715499   2.1080714   8.8732029  28.0488546   2.0034196
  10.6601019  19.9108333   6.9772088   9.8137064  20.0831140   6.8513438
  10.6572152  19.1057676   7.3137916  10.5348169  19.8169361   7.0083215
  11.7299320  23.6883547   7.8434146  11.2559274  23.1625309   8.3539457
  12.1017456  23.1413020   7.2749007  11.7149209  23.5299544   7.8349293
   2.1072350  25.6855054  13.2117692   2.9697963  25.5850763  13.1255022
   1.7764133  25.1049763  12.6503264   2.1857546  25.5846680  13.1163098
  17.9936050  28.7485923   9.2540926  17.7534273  27.9092338   9.2583353
  18.4728058  28.8286089   9.9781700  18.0288234  28.6367322   9.3615729
  13.6582819  24.5820102   0.9059900  13.1305838  24.6648845   0.2165609
  14.1178528  25.3237973   0.9024544  13.6484670  24.7040764   0.8034595
  19.9941237  25.5287380   7.2070186  19.7551007  25.4883214   6.3690970
  20.1575139  26.3758532   7.3335907  19.9831541  25.6479465   7.1023667
  16.5987268  29.9137329  13.1375231  17.3221466  29.4609856  12.9586251
  16.3337230  30.1941995  12.3547559  16.6668541  29.8888298  12.9953946
   5.4674136  24.5097503   9.8728110   4.8427206  24.5215895   9.2654063
   5.1319731  24.9857678  10.5219350   5.3259628  24.5816020   9.8784678
   2.1799811  32.5697963  11.3131874   1.6499736  31.8790402  11.3626849
   2.4524905  32.5608148  10.4844583   2.1424534  32.4665095  11.1979290
  12.3806057  30.0121207  11.2870246  11.7663050  29.4679258  11.5818881
  12.8973342  29.4985444  10.8076062  12.3661719  29.8557616  11.2594474
  11.6202354  31.0825477   9.0214544  11.1929962  30.4575196   8.5879980
  11.6127299  30.8000399   9.8473552  11.5561495  30.9478258   9.0794372
   4.7364881  26.1190650  12.0902978   4.8958368  25.3633975  12.4954700
   4.5557775  26.6681590  12.7443716   4.7330240  26.0884464  12.2465684
  12.6785184  18.2851886  12.6453768  12.1825746  18.4815560  11.9545335
  13.4354246  18.6844554  12.4742570  12.7172009  18.3729620  12.5173905
   9.9488064  21.9594232   9.2357078   9.9730551  21.4254344   8.5469858
  10.1999537  21.4511541   9.8982669   9.9897983  21.8055136   9.2321723
   6.2289386  20.6865050   8.6162823   6.2687758  21.1874257   9.3297530
   5.4039051  20.7775444   8.3468746   6.1128912  20.7746866   8.6813361
   8.4118999  30.2525790  16.7183117   7.5614630  30.3897504  16.8540762
   8.5747127  29.5189568  17.1630819   8.3102863  30.1639891  16.8038716
   7.6503749  27.2025560  10.9136722   6.8195679  27.3699378  10.7071970
   7.5955267  26.8261511  11.6985607   7.5193164  27.1715291  10.9985250
   5.4587533  20.6934453  16.5493132   6.0840236  20.1496586  16.8222565
   5.0038013  20.2129370  15.9800923   5.4835793  20.5423934  16.5054726
  19.0322581  28.8763740  11.6405780  19.6240422  29.5160991  11.6723978
  19.4681576  28.1786777  11.9297847  19.1841013  28.8682090  11.6886613
  10.8615971  33.2981112  12.2663674  10.3541062  33.8516959  12.7104305
  10.5642618  33.3589402  11.4482449  10.7420856  33.3887423  12.2112131
  13.0278154  21.6634432  11.1088337  13.4533225  21.2106958  10.4971864
  12.4135147  21.1094503  11.3853125  13.0006799  21.5148408  11.0593363
  11.4672376  18.1349532   4.5178914  10.8240694  17.9847178   5.0864053
  11.1271783  17.8891877   3.7528019  11.3217454  18.0761654   4.4881929
  16.0571723  26.0908959   3.9408923  15.3862913  26.6338661   3.8121988
  16.7511473  26.5603814   3.6990618  16.0600590  26.2407230   3.8864451
  10.1058457  38.2305671   9.1720681   9.8824111  37.4724500   9.5404708
   9.6168300  38.2603692   8.4501121  10.0001906  38.1227895   9.1197422
  16.2199850  22.5464842   6.8499296  16.5727460  22.1194565   7.5245095
  15.3614652  22.4615686   6.9800373  16.1449295  22.4709583   6.9694307
   4.9183535  25.1772362   4.9082143   4.1995524  25.5936494   5.1755006
   5.2895898  25.7426601   4.3573781   4.8675467  25.3221643   4.8664950
  14.2183116  25.8100211  10.7984138  14.1981043  25.6283506  11.6518917
  14.2662317  26.6812229  10.7743722  14.2217757  25.9116749  10.9207433
  12.1629446  32.3987403  16.7232615  12.1225301  31.7537080  16.1377771
  12.9752764  32.3424020  17.0358027  12.2772600  32.2946370  16.6829564
  12.1202208  37.6096214   7.3781382  11.7218491  37.7198484   6.6102203
  11.5053427  37.8178280   7.9607942  11.9701097  37.6569782   7.3512682
  10.6930110  24.2170362   0.2455522  10.0994949  24.5387358  -0.3059911
  10.7305387  23.3711457   0.0376628  10.6104499  24.1394690   0.1338293
  17.6523910  17.6683254   7.7783609  17.1454775  16.9612394   7.7104786
  18.4491344  17.3376443   7.9084685  17.6951150  17.5156405   7.7882604
  13.5687926  24.1749866   3.6757272  13.3401619  24.1982568   2.8335631
  13.8286002  23.3507333   3.7952283  13.5734114  24.0565946   3.5682470
   7.8507155  26.0284339  13.2782373   7.3386058  25.4205522  13.6367404
   7.6786651  26.7440932  13.7456348   7.7496792  26.0447639  13.3998596
   2.6972869  24.4721915  15.9284734   2.5275460  25.1323289  15.3832941
   2.2538819  24.6828476  16.6497223   2.6072203  24.6007897  15.9546364
   6.6232689  22.7126413   4.9711468   7.0990055  23.0743492   4.3361649
   6.1221288  23.3682880   5.2511611   6.6198048  22.8620601   4.9188209
  11.7276225  23.9508584  15.7184628  12.2847655  23.7222393  15.0863094
  11.4037290  24.7114250  15.4419841  11.7622635  24.0292421  15.5841125
   9.4459342  27.0376237  16.6836635  10.1970669  27.3527914  16.9976189
   9.6381919  26.8355408  15.8570557   9.5850756  27.0543619  16.6080031
  16.2944632  23.1649804   3.9260431  16.2938859  23.0098460   4.7844707
  16.0900813  24.0112791   3.8701816  16.2644410  23.2670424   4.0448370
  14.0185485  27.8447305   7.5796638  14.5139150  27.1270300   7.5400658
  13.2085260  27.5418103   7.4651125  13.9729378  27.6944952   7.5570363
  16.0837303  30.5950993  10.2673766  16.5092375  30.0725415   9.7144191
  15.7194223  31.1931830   9.7462389  16.0923906  30.6061220  10.1082776
  12.6715903  34.3085257   6.5974924  13.1427081  35.0225520   6.7664909
  13.0076081  33.7084007   7.1334793  12.7911018  34.3256721   6.7007300
  14.7592887  35.9186570  18.7766996  14.8689853  35.1295131  19.1323743
  15.0883784  35.8292507  17.9741334  14.8245293  35.7892423  18.7109387
   9.5885398  19.0812728  13.5533019   9.7213303  18.2843721  13.8813994
   9.9730551  19.6079131  14.1331294   9.6641727  19.0412644  13.6876521
  13.3089849  34.1003191  13.3602616  12.7610795  33.4761075  13.0922682
  13.7702878  34.2897463  12.6446696  13.2957059  34.0362241  13.2153048
  12.6617753  16.0043054  10.1514112  11.8563717  15.8940783  10.4681950
  12.5324488  16.1055510   9.2943978  12.5237886  16.0026724  10.0722152
  16.1183713  22.1688546  10.7453809  15.5346702  22.6697752  10.3331376
  16.4388008  21.6618102  10.1118132  16.0796889  22.1680381  10.5912316
   7.2473845  19.0771903  11.8010912   7.7918258  18.7363030  12.3915254
   7.3010780  19.9357364  11.9432197   7.3362964  19.1527162  11.9092786
  12.8748175  35.1054264   9.8911958  13.6946549  34.9617230  10.1528253
  12.5942253  35.7300463  10.4328396  12.9544919  35.1764616  10.0099897
  19.2737298  36.6973832   6.5798148  18.9440628  37.1484976   5.9101846
  18.5982299  36.6189996   7.1271154  19.1247734  36.7524968   6.5621371
  28.4535990  35.9723343   8.6912357  29.0961899  36.0421447   9.2774272
  28.7059011  35.3052566   8.1891899  28.5858122  35.8849691   8.7039636
  16.2253203  39.1823906  13.3036931  15.5324999  38.7120886  13.5497662
  16.8413530  38.9562211  13.8778638  16.2137733  39.0791038  13.4246084
  21.2494223  40.9892975  11.6476490  20.8608656  40.5647193  10.9928682
  20.5848922  41.2375125  12.1553517  21.0941151  40.9631697  11.6264358
  25.0720585  34.6867604   9.1600475  25.4531097  34.0045775   9.5468349
  24.2683869  34.3977206   8.9776139  25.0097047  34.5434653   9.1904531
  19.0312425  37.1921802  19.0263083  18.7165866  37.9621365  18.7632646
  18.7102358  36.6292058  18.4415310  18.9371344  37.2232071  18.9004433
  16.5844322  35.5812324   4.6409279  15.7166748  35.6534923   4.7066889
  16.8719526  36.3834403   4.8297255  16.4984070  35.7106471   4.6784046
  25.7077211  35.7290183  12.9720601  26.4530803  35.5399994  12.5584027
  25.2914516  36.2548421  12.4134458  25.7562185  35.7792329  12.8285174
  18.6628931  39.7919053  17.7648298  17.8528706  40.0976833  17.6538140
  19.1403617  40.5124636  17.8800882  18.6132409  39.9433655  17.7655369
  25.3058853  39.2587330   8.9090245  24.4669954  39.2848609   8.6728509
  25.3763221  39.9058066   9.4895592  25.1927247  39.3583456   8.9599362
  18.5156688  37.4207992  12.6948742  18.3239885  37.4363127  13.5448165
  19.3655284  37.6171667  12.6715397  18.6132410  37.4522344  12.8172037
  21.4260915  37.6163502  12.9020565  21.8833529  38.3487476  13.0293357
  21.5017244  37.1929967  13.6607821  21.5051885  37.6620740  13.0321641
  13.6693906  37.8629322  13.9910009  13.1336096  37.2509680  14.3070776
  13.7311671  38.4377457  14.6443675  13.5989539  37.8576249  14.1345435
  25.8988241  30.7953377   6.7714408  26.0171809  31.2529840   6.0381711
  25.7250417  29.9898638   6.4850626  25.8907412  30.7447149   6.6215342
  19.3043293  39.6065606   9.7462389  18.5139368  39.4257066  10.0679725
  19.7003916  38.8292558   9.7292683  19.2460169  39.4653067   9.7914937
  23.4751076  39.5404244  12.7245727  23.6893046  38.9015158  12.1709081
  22.8584975  39.9850068  12.2953589  23.4156405  39.5114387  12.5796158
  25.6390164  41.1493309  13.6629034  24.8266846  40.8419199  13.7442207
  26.0980099  40.6692309  14.2271746  25.5870549  41.0329801  13.7583628
  22.8665805  32.6504179   7.7133070  21.9959363  32.6242900   7.6666379
  23.1206146  32.4781372   6.8958916  22.7759365  32.6214323   7.5853207
  22.7343672  42.5553380  18.4457736  23.2043303  43.1795497  18.8325611
  22.7805552  41.8870356  19.0050951  22.8111547  42.5488061  18.5857808
  19.8914945  34.6610408   9.1706540  19.3753434  33.9690599   9.2958119
  19.3308874  35.3281185   9.1169139  19.7321458  34.6573665   9.1812606
  21.9607179  35.2003368  10.9999393  21.5738932  35.2252399  11.7812923
  21.4740116  34.6345046  10.5473909  21.8319688  35.1199119  11.0487296
  21.6264320  32.0870353  13.2909653  22.2557438  32.6230653  13.0130723
  21.7950183  31.9947712  14.1423218  21.7442115  32.1531716  13.3758181
  21.4278235  36.8741548  15.5636064  22.2551665  36.6026697  15.6194679
  21.4486081  37.6702390  15.9199882  21.5531085  36.9521302  15.6251247
  25.1188239  34.6206242   6.2594955  25.3237832  34.5528550   7.1051952
  24.7914663  35.4265063   6.1916132  25.1003487  34.7292182   6.3754610
  16.2917156  37.5751171  10.8365975  16.7518637  37.6490100  11.5741099
  16.3373262  38.3732425  10.4865797  16.3667711  37.7045318  10.8938732
  17.9400505  38.2417866  15.4038003  17.5486071  37.5951213  15.8393780
  18.1086368  38.8329301  16.0232258  17.9071416  38.2332134  15.5600709
  21.6333603  35.4293640   6.9772088  20.7869648  35.6016448   6.8513438
  21.6304735  34.6242984   7.3137916  21.5080753  35.3354669   7.0083215
  22.7031903  39.2068855   7.8434146  22.2291858  38.6810617   8.3539457
  23.0750039  38.6598328   7.2749007  22.6881792  39.0484851   7.8349293
  16.4406719  40.0282811   9.8728110  15.8159790  40.0401203   9.2654063
  16.1052314  40.5042986  10.5219350  16.2992211  40.1001328   9.8784678
  23.6517768  33.8037194  12.6453768  23.1558329  34.0000868  11.9545335
  24.4086830  34.2029862  12.4742570  23.6904593  33.8914928  12.5173905
  20.9220647  37.4779540   9.2357078  20.9463135  36.9439652   8.5469858
  21.1732121  36.9696849   9.8982669  20.9630566  37.3240444   9.2321723
  17.2021970  36.2050358   8.6162823  17.2420341  36.7059565   9.3297530
  16.3771634  36.2960752   8.3468746  17.0861496  36.2932174   8.6813361
  16.4320116  36.2119761  16.5493132  17.0572820  35.6681894  16.8222565
  15.9770596  35.7314678  15.9800923  16.4568377  36.0609242  16.5054726
  24.0010737  37.1819740  11.1088337  24.4265809  36.7292266  10.4971864
  23.3867730  36.6279811  11.3853125  23.9739383  37.0333716  11.0593363
  22.4404960  33.6534840   4.5178914  21.7973278  33.5032486   5.0864053
  22.1004367  33.4077185   3.7528019  22.2950037  33.5946962   4.4881929
  25.1915700  41.3285519  10.7984138  25.1713627  41.1468814  11.6518917
  25.2394900  42.1997537  10.7743722  25.1950341  41.4302057  10.9207433
  28.6256494  33.1868562   7.7783609  28.1187359  32.4797702   7.7104786
  29.4223928  32.8561751   7.9084685  28.6683733  33.0341713   7.7882604
  22.7008809  39.4693892  15.7184628  23.2580239  39.2407701  15.0863094
  22.3769874  40.2299557  15.4419841  22.7355219  39.5477729  15.5841125
  20.5617981  34.5998036  13.5533019  20.6945887  33.8029029  13.8813994
  20.9463134  35.1264439  14.1331294  20.6374310  34.5597952  13.6876521
  23.6350337  31.5228362  10.1514112  22.8296300  31.4126091  10.4681950
  23.5057072  31.6240817   9.2943978  23.4970469  31.5212032  10.0722152
  27.0916297  37.6873854  10.7453809  26.5079286  38.1883060  10.3331376
  27.4120591  37.1803410  10.1118132  27.0529472  37.6865689  10.5912316
  18.2206428  34.5957211  11.8010912  18.7650841  34.2548337  12.3915254
  18.2743364  35.4542672  11.9432197  18.3095548  34.6712470  11.9092786
  11.8285821  12.3910671   4.7066126  12.6126238  12.5041519   5.0721868
  11.6282416  11.5651808   4.9024812  11.9151847  12.2857390   4.7900512
  14.9197154  10.2763410   6.7190386  15.7332020  10.0048559   6.8795518
  14.7592121   9.9770950   5.9150582  15.0167103  10.1918336   6.6235791
  14.4543711  12.8564702   5.7107043  14.5640677  12.0673262   6.0663790
  14.7834608  12.7670638   4.9081381  14.5196117  12.7270555   5.6449433
  25.5506051  25.0559423   4.1508267  26.2572818  24.5611454   4.2795202
  25.7393987  25.4968505   3.4210925  25.6833957  25.0477774   4.0617313
  18.4520836  23.2474024  -3.3784463  19.0969839  22.7546467  -3.6973515
  18.6922613  23.3898810  -2.5518385  18.5831421  23.1951466  -3.3034930
  22.6898345  28.4786960   2.0422343  22.7781691  28.2913100   2.8900553
  23.1188058  27.8324390   1.6427189  22.7660448  28.3549968   2.1094094
  20.2568805  27.7618120   1.0240005  19.6939640  27.3490730   1.5479666
  21.0189829  27.6871026   1.4433148  20.2863254  27.6895520   1.1633005
  16.8643703  19.9891728   2.7557050  17.0364207  19.8797623   3.6042331
  17.4013061  20.6346134   2.5188242  16.9688707  20.0683730   2.8462147
  15.7668275  26.3623368  -2.5624451  16.3066500  26.2194499  -1.8921079
  15.0838221  26.7620119  -2.1940425  15.7460429  26.4003039  -2.4090030
  22.8018405  27.9095979   4.7066126  23.5858821  28.0226827   5.0721868
  22.6014999  27.0837116   4.9024812  22.8884430  27.8042698   4.7900512
  14.6444586  20.0867441   1.3803823  15.3684558  20.0720472   1.8668718
  14.7460722  20.7962797   0.8825791  14.7662795  20.1892145   1.3782610
  22.0189535  23.5666526   6.2452770  21.2262516  23.8810038   6.4305390
  22.1338462  23.7817994   5.4073555  21.9184946  23.6450363   6.1491105
  22.9473328  23.4686730   1.1838067  23.5212189  22.8313974   1.3386631
  22.8688131  23.4690812   0.3147724  23.0206563  23.3751841   1.0784478
  20.9445047  17.9271107  -1.4183463  20.5559480  17.5025324  -2.0731272
  20.2799746  18.1753256  -0.9106436  20.7891975  17.9009828  -1.4395595
  28.2693476  24.8395707   1.1922920  28.0332113  24.0083772   1.0734981
  28.9136705  24.7881315   1.7777764  28.3288146  24.7093395   1.2608813
  18.7263249  14.1299934   5.9603130  18.4116690  14.8999496   5.6972693
  18.4053182  13.5670190   5.3755357  18.6322168  14.1610202   5.8344480
  25.4028035  12.6668314  -0.0939352  26.1481627  12.4778125  -0.5075927
  24.9865339  13.1926552  -0.6525496  25.4513009  12.7170460  -0.2374779
  19.4312697  23.8716140  -0.5973954  18.9324390  24.5831908  -0.5189065
  20.2412921  24.1916807  -0.6355791  19.4768803  24.0242989  -0.5917385
  18.3579755  16.7297185   4.6988345  17.5479530  17.0354964   4.5878187
  18.8354441  17.4502767   4.8140929  18.3083233  16.8811786   4.6995416
  14.6923786  22.2659735  -0.4312253  15.2044883  22.5443988  -1.0803493
  14.4060129  23.0049029  -0.0649440  14.7258650  22.4162089  -0.4722375
  24.9819151  21.7323930   1.7926256  24.9767190  20.8603747   1.7968683
  25.6880145  21.9312099   1.3195712  25.0864155  21.6327804   1.7233292
  18.7090045  21.4600914   1.1640076  18.8533420  22.0402122   0.5283186
  19.0565693  21.8377211   1.8689931  18.7817506  21.6021618   1.1739071
  20.8809962  20.6591082  -1.0534792  20.1333276  20.8522097  -1.4586514
  21.0351487  19.8336302  -1.2910671  20.7932389  20.5656194  -1.1489386
  21.1211739  14.5541633  -0.1639388  21.5784353  15.2865607  -0.0366596
  21.1968068  14.1308098   0.5947868  21.2002709  14.5998871  -0.0338312
  21.5131947  19.0203996   1.1625935  21.4491088  19.8813952   1.0346071
  21.6529135  18.7035989   0.3621486  21.5247417  19.1004163   1.0254148
  25.8929738  25.7948718   6.7190386  26.7064603  25.5233867   6.8795518
  25.7324704  25.4956258   5.9150582  25.9899686  25.7103644   6.6235791
  23.1701900  16.4782375  -0.3414226  23.3843870  15.8393289  -0.8950872
  22.5535799  16.9228199  -0.7706364  23.1107229  16.4492519  -0.4863795
  25.3340988  18.0871440   0.5969081  24.5217670  17.7797330   0.6782254
  25.7930923  17.6070440   1.1611793  25.2821373  17.9707932   0.6923675
  22.4294495  19.4931511   5.3797783  22.8994127  20.1173628   5.7665657
  22.4756376  18.8248487   5.9390998  22.5062371  19.4866192   5.5197855
  25.9050982  26.8555008   1.9913226  26.5430703  26.3615204   1.6575682
  25.2625074  26.7832408   1.4065453  25.9045209  26.7714016   1.8555581
  21.1229059  13.8119679   2.4976111  21.9502489  13.5404828   2.5534726
  21.1436905  14.6080521   2.8539929  21.2481909  13.8899433   2.5591294
  17.5733565  26.1014662  -0.3583933  17.4653920  26.1116724   0.5078125
  17.7829346  26.9269442  -0.5478979  17.5883676  26.2255737  -0.2579841
  15.5907357  23.3527304  -2.8961995  14.9995290  23.9936802  -2.9258980
  16.3528380  23.7764922  -2.9230696  15.6155617  23.5103143  -2.9046848
  17.6351329  15.1795997   2.3378049  17.2436895  14.5329344   2.7733827
  17.8037192  15.7707432   2.9572305  17.6022240  15.1710265   2.4940755
  12.8483219  25.0261402  -1.7528079  12.3183143  24.3353841  -1.7033104
  13.1208312  25.0171587  -2.5815370  12.8107941  24.9228534  -1.8680663
  23.0489465  22.4684646  -1.7789707  22.4346458  21.9242697  -1.4841072
  23.5656749  21.9548883  -2.2583891  23.0345127  22.3121055  -1.8065479
  19.0802407  22.7089229   3.6523164  18.2298037  22.8460943   3.7880809
  19.2430534  21.9753007   4.0970866  18.9786270  22.6203330   3.7378763
  16.1270940  13.1497892   3.4833179  16.7523644  12.6060025   3.7562611
  15.6721420  12.6692810   2.9140970  16.1519201  12.9987373   3.4394773
  24.8866524  18.2663650  -2.2675815  24.8664451  18.0846945  -1.4141036
  24.9345724  19.1375668  -2.2916231  24.8901165  18.3680188  -2.1452520
  22.8312854  24.8550842   3.6572662  22.7908708  24.2100519   3.0717818
  23.6436172  24.7987459   3.9698074  22.9456007  24.7509809   3.6169611
  18.5190562  18.4847778   0.2122419  18.0069465  17.8768961   0.5707451
  18.3470058  19.2004371   0.6796395  18.4180199  18.5011078   0.3338643
  13.3656277  16.9285354   2.8624781  13.1958867  17.5886729   2.3172988
  12.9222227  17.1391915   3.5837270  13.2755611  17.0571336   2.8886411
  22.3959633  16.4072023   2.6524675  22.9531063  16.1785833   2.0203140
  22.0720698  17.1677689   2.3759887  22.4306043  16.4855860   2.5181172
  20.1142750  19.4939676   3.6176682  20.8654077  19.8091353   3.9316236
  20.3065326  19.2918847   2.7910604  20.2534164  19.5107058   3.5420078
  25.4276295  28.3750010   5.7107043  25.5373260  27.5858570   6.0663790
  25.7567192  28.2855946   4.9081381  25.4928701  28.2455863   5.6449433
  29.6995833  29.6485242   5.9603130  29.3849274  30.4184804   5.6972693
  29.3785765  29.0855498   5.3755357  29.6054752  29.6795510   5.8344480
  27.1003524  28.6683200   3.4833179  27.7256227  28.1245333   3.7562611
  26.6454004  28.1878118   2.9140970  27.1251784  28.5172681   3.4394773
  41.9181490  41.9181490  41.9181490 109.4712190 109.4712190 109.4712190
