%VERSION  VERSION_STAMP = V0001.000  DATE = 07/13/26  12:29:41                  
%FLAG TITLE                                                                     
%FORMAT(20a4)                                                                   
ACE                                                                             
%FLAG POINTERS                                                                  
%FORMAT(10I8)                                                                   
    6486      10    4854    1632      54      30      97      82       0       0
   11511    1615    1632      30      82      15      27      22      11       0
       0       0       0       0       0       0       0       2      14       0
    1610
%FLAG ATOM_NAME                                                                 
%FORMAT(20a4)                                                                   
H1  CH3 H2  H3  C   O   N   H   CA  HA  CB  HB1 HB2 HB3 C   O   N   CD  HD2 HD3 
CG  HG2 HG3 CB  HB2 HB3 CA  HA  C   O   N   H   CA  HA  CB  HB1 HB2 HB3 C   O   
N   H   C   H1  H2  H3  O   H1  H2  EPW O   H1  H2  EPW O   H1  H2  EPW O   H1  
H2  EPW O   H1  H2  EPW O   H1  H2  EPW O   H1  H2  EPW O   H1  H2  EPW O   H1  
H2  EPW O   H1  H2  EPW O   H1  H2  EPW O   H1  H2  EPW O   H1  H2  EPW O   H1  
H2  EPW O   H1  H2  EPW O   H1  H2  EPW O   H1  H2  EPW O   H1  H2  EPW O   H1  
H2  EPW O   H1  H2  EPW O   H1  H2  EPW O   H1  H2  EPW O   H1  H2  EPW O   H1  
H2  EPW O   H1  H2  EPW O   H1  H2  EPW O   H1  H2  EPW O   H1  H2  EPW O   H1  
H2  EPW O   H1  H2  EPW O   H1  H2  EPW O   H1  H2  EPW O   H1  H2  EPW O   H1  
H2  EPW O   H1  H2  EPW O   H1  H2  EPW O   H1  H2  EPW O   H1  H2  EPW O   H1  
H2  EPW O   H1  H2  EPW O   H1  H2  EPW O   H1  H2  EPW O   H1  H2  EPW O   H1  
H2  EPW O   H1  H2  EPW O   H1  H2  EPW O   H1  H2  EPW O   H1  H2  EPW O   H1  
H2  EPW O   H1  H2  EPW O   H1  H2  EPW O   H1  H2  EPW O   H1  H2  EPW O   H1  
H2  EPW O   H1  H2  EPW O   H1  H2  EPW O   H1  H2  EPW O   H1  H2  EPW O   H1  
H2  EPW O   H1  H2  EPW O   H1  H2  EPW O   H1  H2  EPW O   H1  H2  EPW O   H1  
H2  EPW O   H1  H2  EPW O   H1  H2  EPW O   H1  H2  EPW O   H1  H2  EPW O   H1  
H2  EPW O   H1  H2  EPW O   H1  H2  EPW O   H1  H2  EPW O   H1  H2  EPW O   H1  
H2  EPW O   H1  H2  EPW O   H1  H2  EPW O   H1  H2  EPW O   H1  H2  EPW O   H1  
H2  EPW O   H1  H2  EPW O   H1  H2  EPW O   H1  H2  EPW O   H1  H2  EPW O   H1  
H2  EPW O   H1  H2  EPW O   H1  H2  EPW O   H1  H2  EPW O   H1  H2  EPW O   H1  
H2  EPW O   H1  H2  EPW O   H1  H2  EPW O   H1  H2  EPW O   H1  H2  EPW O   H1  
H2  EPW O   H1  H2  EPW O   H1  H2  EPW O   H1  H2  EPW O   H1  H2  EPW O   H1  
H2  EPW O   H1  H2  EPW O   H1  H2  EPW O   H1  H2  EPW O   H1  H2  EPW O   H1  
H2  EPW O   H1  H2  EPW O   H1  H2  EPW O   H1  H2  EPW O   H1  H2  EPW O   H1  
H2  EPW O   H1  H2  EPW O   H1  H2  EPW O   H1  H2  EPW O   H1  H2  EPW O   H1  
H2  EPW O   H1  H2  EPW O   H1  H2  EPW O   H1  H2  EPW O   H1  H2  EPW O   H1  
H2  EPW O   H1  H2  EPW O   H1  H2  EPW O   H1  H2  EPW O   H1  H2  EPW O   H1  
H2  EPW O   H1  H2  EPW O   H1  H2  EPW O   H1  H2  EPW O   H1  H2  EPW O   H1  
H2  EPW O   H1  H2  EPW O   H1  H2  EPW O   H1  H2  EPW O   H1  H2  EPW O   H1  
H2  EPW O   H1  H2  EPW O   H1  H2  EPW O   H1  H2  EPW O   H1  H2  EPW O   H1  
H2  EPW O   H1  H2  EPW O   H1  H2  EPW O   H1  H2  EPW O   H1  H2  EPW O   H1  
H2  EPW O   H1  H2  EPW O   H1  H2  EPW O   H1  H2  EPW O   H1  H2  EPW O   H1  
H2  EPW O   H1  H2  EPW O   H1  H2  EPW O   H1  H2  EPW O   H1  H2  EPW O   H1  
H2  EPW O   H1  H2  EPW O   H1  H2  EPW O   H1  H2  EPW O   H1  H2  EPW O   H1  
H2  EPW O   H1  H2  EPW O   H1  H2  EPW O   H1  H2  EPW O   H1  H2  EPW O   H1  
H2  EPW O   H1  H2  EPW O   H1  H2  EPW O   H1  H2  EPW O   H1  H2  EPW O   H1  
H2  EPW O   H1  H2  EPW O   H1  H2  EPW O   H1  H2  EPW O   H1  H2  EPW O   H1  
H2  EPW O   H1  H2  EPW O   H1  H2  EPW O   H1  H2  EPW O   H1  H2  EPW O   H1  
H2  EPW O   H1  H2  EPW O   H1  H2  EPW O   H1  H2  EPW O   H1  H2  EPW O   H1  
H2  EPW O   H1  H2  EPW O   H1  H2  EPW O   H1  H2  EPW O   H1  H2  EPW O   H1  
H2  EPW O   H1  H2  EPW O   H1  H2  EPW O   H1  H2  EPW O   H1  H2  EPW O   H1  
H2  EPW O   H1  H2  EPW O   H1  H2  EPW O   H1  H2  EPW O   H1  H2  EPW O   H1  
H2  EPW O   H1  H2  EPW O   H1  H2  EPW O   H1  H2  EPW O   H1  H2  EPW O   H1  
H2  EPW O   H1  H2  EPW O   H1  H2  EPW O   H1  H2  EPW O   H1  H2  EPW O   H1  
H2  EPW O   H1  H2  EPW O   H1  H2  EPW O   H1  H2  EPW O   H1  H2  EPW O   H1  
H2  EPW O   H1  H2  EPW O   H1  H2  EPW O   H1  H2  EPW O   H1  H2  EPW O   H1  
H2  EPW O   H1  H2  EPW O   H1  H2  EPW O   H1  H2  EPW O   H1  H2  EPW O   H1  
H2  EPW O   H1  H2  EPW O   H1  H2  EPW O   H1  H2  EPW O   H1  H2  EPW O   H1  
H2  EPW O   H1  H2  EPW O   H1  H2  EPW O   H1  H2  EPW O   H1  H2  EPW O   H1  
H2  EPW O   H1  H2  EPW O   H1  H2  EPW O   H1  H2  EPW O   H1  H2  EPW O   H1  
H2  EPW O   H1  H2  EPW O   H1  H2  EPW O   H1  H2  EPW O   H1  H2  EPW O   H1  
H2  EPW O   H1  H2  EPW O   H1  H2  EPW O   H1  H2  EPW O   H1  H2  EPW O   H1  
H2  EPW O   H1  H2  EPW O   H1  H2  EPW O   H1  H2  EPW O   H1  H2  EPW O   H1  
H2  EPW O   H1  H2  EPW O   H1  H2  EPW O   H1  H2  EPW O   H1  H2  EPW O   H1  
H2  EPW O   H1  H2  EPW O   H1  H2  EPW O   H1  H2  EPW O   H1  H2  EPW O   H1  
H2  EPW O   H1  H2  EPW O   H1  H2  EPW O   H1  H2  EPW O   H1  H2  EPW O   H1  
H2  EPW O   H1  H2  EPW O   H1  H2  EPW O   H1  H2  EPW O   H1  H2  EPW O   H1  
H2  EPW O   H1  H2  EPW O   H1  H2  EPW O   H1  H2  EPW O   H1  H2  EPW O   H1  
H2  EPW O   H1  H2  EPW O   H1  H2  EPW O   H1  H2  EPW O   H1  H2  EPW O   H1  
H2  EPW O   H1  H2  EPW O   H1  H2  EPW O   H1  H2  EPW O   H1  H2  EPW O   H1  
H2  EPW O   H1  H2  EPW O   H1  H2  EPW O   H1  H2  EPW O   H1  H2  EPW O   H1  
H2  EPW O   H1  H2  EPW O   H1  H2  EPW O   H1  H2  EPW O   H1  H2  EPW O   H1  
H2  EPW O   H1  H2  EPW O   H1  H2  EPW O   H1  H2  EPW O   H1  H2  EPW O   H1  
H2  EPW O   H1  H2  EPW O   H1  H2  EPW O   H1  H2  EPW O   H1  H2  EPW O   H1  
H2  EPW O   H1  H2  EPW O   H1  H2  EPW O   H1  H2  EPW O   H1  H2  EPW O   H1  
H2  EPW O   H1  H2  EPW O   H1  H2  EPW O   H1  H2  EPW O   H1  H2  EPW O   H1  
H2  EPW O   H1  H2  EPW O   H1  H2  EPW O   H1  H2  EPW O   H1  H2  EPW O   H1  
H2  EPW O   H1  H2  EPW O   H1  H2  EPW O   H1  H2  EPW O   H1  H2  EPW O   H1  
H2  EPW O   H1  H2  EPW O   H1  H2  EPW O   H1  H2  EPW O   H1  H2  EPW O   H1  
H2  EPW O   H1  H2  EPW O   H1  H2  EPW O   H1  H2  EPW O   H1  H2  EPW O   H1  
H2  EPW O   H1  H2  EPW O   H1  H2  EPW O   H1  H2  EPW O   H1  H2  EPW O   H1  
H2  EPW O   H1  H2  EPW O   H1  H2  EPW O   H1  H2  EPW O   H1  H2  EPW O   H1  
H2  EPW O   H1  H2  EPW O   H1  H2  EPW O   H1  H2  EPW O   H1  H2  EPW O   H1  
H2  EPW O   H1  H2  EPW O   H1  H2  EPW O   H1  H2  EPW O   H1  H2  EPW O   H1  
H2  EPW O   H1  H2  EPW O   H1  H2  EPW O   H1  H2  EPW O   H1  H2  EPW O   H1  
H2  EPW O   H1  H2  EPW O   H1  H2  EPW O   H1  H2  EPW O   H1  H2  EPW O   H1  
H2  EPW O   H1  H2  EPW O   H1  H2  EPW O   H1  H2  EPW O   H1  H2  EPW O   H1  
H2  EPW O   H1  H2  EPW O   H1  H2  EPW O   H1  H2  EPW O   H1  H2  EPW O   H1  
H2  EPW O   H1  H2  EPW O   H1  H2  EPW O   H1  H2  EPW O   H1  H2  EPW O   H1  
H2  EPW O   H1  H2  EPW O   H1  H2  EPW O   H1  H2  EPW O   H1  H2  EPW O   H1  
H2  EPW O   H1  H2  EPW O   H1  H2  EPW O   H1  H2  EPW O   H1  H2  EPW O   H1  
H2  EPW O   H1  H2  EPW O   H1  H2  EPW O   H1  H2  EPW O   H1  H2  EPW O   H1  
H2  EPW O   H1  H2  EPW O   H1  H2  EPW O   H1  H2  EPW O   H1  H2  EPW O   H1  
H2  EPW O   H1  H2  EPW O   H1  H2  EPW O   H1  H2  EPW O   H1  H2  EPW O   H1  
H2  EPW O   H1  H2  EPW O   H1  H2  EPW O   H1  H2  EPW O   H1  H2  EPW O   H1  
H2  EPW O   H1  H2  EPW O   H1  H2  EPW O   H1  H2  EPW O   H1  H2  EPW O   H1  
H2  EPW O   H1  H2  EPW O   H1  H2  EPW O   H1  H2  EPW O   H1  H2  EPW O   H1  
H2  EPW O   H1  H2  EPW O   H1  H2  EPW O   H1  H2  EPW O   H1  H2  EPW O   H1  
H2  EPW O   H1  H2  EPW O   H1  H2  EPW O   H1  H2  EPW O   H1  H2  EPW O   H1  
H2  EPW O   H1  H2  EPW O   H1  H2  EPW O   H1  H2  EPW O   H1  H2  EPW O   H1  
H2  EPW O   H1  H2  EPW O   H1  H2  EPW O   H1  H2  EPW O   H1  H2  EPW O   H1  
H2  EPW O   H1  H2  EPW O   H1  H2  EPW O   H1  H2  EPW O   H1  H2  EPW O   H1  
H2  EPW O   H1  H2  EPW O   H1  H2  EPW O   H1  H2  EPW O   H1  H2  EPW O   H1  
H2  EPW O   H1  H2  EPW O   H1  H2  EPW O   H1  H2  EPW O   H1  H2  EPW O   H1  
H2  EPW O   H1  H2  EPW O   H1  H2  EPW O   H1  H2  EPW O   H1  H2  EPW O   H1  
H2  EPW O   H1  H2  EPW O   H1  H2  EPW O   H1  H2  EPW O   H1  H2  EPW O   H1  
H2  EPW O   H1  H2  EPW O   H1  H2  EPW O   H1  H2  EPW O   H1  H2  EPW O   H1  
H2  EPW O   H1  H2  EPW O   H1  H2  EPW O   H1  H2  EPW O   H1  H2  EPW O   H1  
H2  EPW O   H1  H2  EPW O   H1  H2  EPW O   H1  H2  EPW O   H1  H2  EPW O   H1  
H2  EPW O   H1  H2  EPW O   H1  H2  EPW O   H1  H2  EPW O   H1  H2  EPW O   H1  
H2  EPW O   H1  H2  EPW O   H1  H2  EPW O   H1  H2  EPW O   H1  H2  EPW O   H1  
H2  EPW O   H1  H2  EPW O   H1  H2  EPW O   H1  H2  EPW O   H1  H2  EPW O   H1  
H2  EPW O   H1  H2  EPW O   H1  H2  EPW O   H1  H2  EPW O   H1  H2  EPW O   H1  
H2  EPW O   H1  H2  EPW O   H1  H2  EPW O   H1  H2  EPW O   H1  H2  EPW O   H1  
H2  EPW O   H1  H2  EPW O   H1  H2  EPW O   H1  H2  EPW O   H1  H2  EPW O   H1  
H2  EPW O   H1  H2  EPW O   H1  H2  EPW O   H1  H2  EPW O   H1  H2  EPW O   H1  
H2  EPW O   H1  H2  EPW O   H1  H2  EPW O   H1  H2  EPW O   H1  H2  EPW O   H1  
H2  EPW O   H1  H2  EPW O   H1  H2  EPW O   H1  H2  EPW O   H1  H2  EPW O   H1  
H2  EPW O   H1  H2  EPW O   H1  H2  EPW O   H1  H2  EPW O   H1  H2  EPW O   H1  
H2  EPW O   H1  H2  EPW O   H1  H2  EPW O   H1  H2  EPW O   H1  H2  EPW O   H1  
H2  EPW O   H1  H2  EPW O   H1  H2  EPW O   H1  H2  EPW O   H1  H2  EPW O   H1  
H2  EPW O   H1  H2  EPW O   H1  H2  EPW O   H1  H2  EPW O   H1  H2  EPW O   H1  
H2  EPW O   H1  H2  EPW O   H1  H2  EPW O   H1  H2  EPW O   H1  H2  EPW O   H1  
H2  EPW O   H1  H2  EPW O   H1  H2  EPW O   H1  H2  EPW O   H1  H2  EPW O   H1  
H2  EPW O   H1  H2  EPW O   H1  H2  EPW O   H1  H2  EPW O   H1  H2  EPW O   H1  
H2  EPW O   H1  H2  EPW O   H1  H2  EPW O   H1  H2  EPW O   H1  H2  EPW O   H1  
H2  EPW O   H1  H2  EPW O   H1  H2  EPW O   H1  H2  EPW O   H1  H2  EPW O   H1  
H2  EPW O   H1  H2  EPW O   H1  H2  EPW O   H1  H2  EPW O   H1  H2  EPW O   H1  
H2  EPW O   H1  H2  EPW O   H1  H2  EPW O   H1  H2  EPW O   H1  H2  EPW O   H1  
H2  EPW O   H1  H2  EPW O   H1  H2  EPW O   H1  H2  EPW O   H1  H2  EPW O   H1  
H2  EPW O   H1  H2  EPW O   H1  H2  EPW O   H1  H2  EPW O   H1  H2  EPW O   H1  
H2  EPW O   H1  H2  EPW O   H1  H2  EPW O   H1  H2  EPW O   H1  H2  EPW O   H1  
H2  EPW O   H1  H2  EPW O   H1  H2  EPW O   H1  H2  EPW O   H1  H2  EPW O   H1  
H2  EPW O   H1  H2  EPW O   H1  H2  EPW O   H1  H2  EPW O   H1  H2  EPW O   H1  
H2  EPW O   H1  H2  EPW O   H1  H2  EPW O   H1  H2  EPW O   H1  H2  EPW O   H1  
H2  EPW O   H1  H2  EPW O   H1  H2  EPW O   H1  H2  EPW O   H1  H2  EPW O   H1  
H2  EPW O   H1  H2  EPW O   H1  H2  EPW O   H1  H2  EPW O   H1  H2  EPW O   H1  
H2  EPW O   H1  H2  EPW O   H1  H2  EPW O   H1  H2  EPW O   H1  H2  EPW O   H1  
H2  EPW O   H1  H2  EPW O   H1  H2  EPW O   H1  H2  EPW O   H1  H2  EPW O   H1  
H2  EPW O   H1  H2  EPW O   H1  H2  EPW O   H1  H2  EPW O   H1  H2  EPW O   H1  
H2  EPW O   H1  H2  EPW O   H1  H2  EPW O   H1  H2  EPW O   H1  H2  EPW O   H1  
H2  EPW O   H1  H2  EPW O   H1  H2  EPW O   H1  H2  EPW O   H1  H2  EPW O   H1  
H2  EPW O   H1  H2  EPW O   H1  H2  EPW O   H1  H2  EPW O   H1  H2  EPW O   H1  
H2  EPW O   H1  H2  EPW O   H1  H2  EPW O   H1  H2  EPW O   H1  H2  EPW O   H1  
H2  EPW O   H1  H2  EPW O   H1  H2  EPW O   H1  H2  EPW O   H1  H2  EPW O   H1  
H2  EPW O   H1  H2  EPW O   H1  H2  EPW O   H1  H2  EPW O   H1  H2  EPW O   H1  
H2  EPW O   H1  H2  EPW O   H1  H2  EPW O   H1  H2  EPW O   H1  H2  EPW O   H1  
H2  EPW O   H1  H2  EPW O   H1  H2  EPW O   H1  H2  EPW O   H1  H2  EPW O   H1  
H2  EPW O   H1  H2  EPW O   H1  H2  EPW O   H1  H2  EPW O   H1  H2  EPW O   H1  
H2  EPW O   H1  H2  EPW O   H1  H2  EPW O   H1  H2  EPW O   H1  H2  EPW O   H1  
H2  EPW O   H1  H2  EPW O   H1  H2  EPW O   H1  H2  EPW O   H1  H2  EPW O   H1  
H2  EPW O   H1  H2  EPW O   H1  H2  EPW O   H1  H2  EPW O   H1  H2  EPW O   H1  
H2  EPW O   H1  H2  EPW O   H1  H2  EPW O   H1  H2  EPW O   H1  H2  EPW O   H1  
H2  EPW O   H1  H2  EPW O   H1  H2  EPW O   H1  H2  EPW O   H1  H2  EPW O   H1  
H2  EPW O   H1  H2  EPW O   H1  H2  EPW O   H1  H2  EPW O   H1  H2  EPW O   H1  
H2  EPW O   H1  H2  EPW O   H1  H2  EPW O   H1  H2  EPW O   H1  H2  EPW O   H1  
H2  EPW O   H1  H2  EPW O   H1  H2  EPW O   H1  H2  EPW O   H1  H2  EPW O   H1  
H2  EPW O   H1  H2  EPW O   H1  H2  EPW O   H1  H2  EPW O   H1  H2  EPW O   H1  
H2  EPW O   H1  H2  EPW O   H1  H2  EPW O   H1  H2  EPW O   H1  H2  EPW O   H1  
H2  EPW O   H1  H2  EPW O   H1  H2  EPW O   H1  H2  EPW O   H1  H2  EPW O   H1  
H2  EPW O   H1  H2  EPW O   H1  H2  EPW O   H1  H2  EPW O   H1  H2  EPW O   H1  
H2  EPW O   H1  H2  EPW O   H1  H2  EPW O   H1  H2  EPW O   H1  H2  EPW O   H1  
H2  EPW O   H1  H2  EPW O   H1  H2  EPW O   H1  H2  EPW O   H1  H2  EPW O   H1  
H2  EPW O   H1  H2  EPW O   H1  H2  EPW O   H1  H2  EPW O   H1  H2  EPW O   H1  
H2  EPW O   H1  H2  EPW O   H1  H2  EPW O   H1  H2  EPW O   H1  H2  EPW O   H1  
H2  EPW O   H1  H2  EPW O   H1  H2  EPW O   H1  H2  EPW O   H1  H2  EPW O   H1  
H2  EPW O   H1  H2  EPW O   H1  H2  EPW O   H1  H2  EPW O   H1  H2  EPW O   H1  
H2  EPW O   H1  H2  EPW O   H1  H2  EPW O   H1  H2  EPW O   H1  H2  EPW O   H1  
H2  EPW O   H1  H2  EPW O   H1  H2  EPW O   H1  H2  EPW O   H1  H2  EPW O   H1  
H2  EPW O   H1  H2  EPW O   H1  H2  EPW O   H1  H2  EPW O   H1  H2  EPW O   H1  
H2  EPW O   H1  H2  EPW O   H1  H2  EPW O   H1  H2  EPW O   H1  H2  EPW O   H1  
H2  EPW O   H1  H2  EPW O   H1  H2  EPW O   H1  H2  EPW O   H1  H2  EPW O   H1  
H2  EPW O   H1  H2  EPW O   H1  H2  EPW O   H1  H2  EPW O   H1  H2  EPW O   H1  
H2  EPW O   H1  H2  EPW O   H1  H2  EPW O   H1  H2  EPW O   H1  H2  EPW O   H1  
H2  EPW O   H1  H2  EPW O   H1  H2  EPW O   H1  H2  EPW O   H1  H2  EPW O   H1  
H2  EPW O   H1  H2  EPW O   H1  H2  EPW O   H1  H2  EPW O   H1  H2  EPW O   H1  
H2  EPW O   H1  H2  EPW O   H1  H2  EPW O   H1  H2  EPW O   H1  H2  EPW O   H1  
H2  EPW O   H1  H2  EPW O   H1  H2  EPW O   H1  H2  EPW O   H1  H2  EPW O   H1  
H2  EPW O   H1  H2  EPW O   H1  H2  EPW O   H1  H2  EPW O   H1  H2  EPW O   H1  
H2  EPW O   H1  H2  EPW O   H1  H2  EPW O   H1  H2  EPW O   H1  H2  EPW O   H1  
H2  EPW O   H1  H2  EPW O   H1  H2  EPW O   H1  H2  EPW O   H1  H2  EPW O   H1  
H2  EPW O   H1  H2  EPW O   H1  H2  EPW O   H1  H2  EPW O   H1  H2  EPW O   H1  
H2  EPW O   H1  H2  EPW O   H1  H2  EPW O   H1  H2  EPW O   H1  H2  EPW O   H1  
H2  EPW O   H1  H2  EPW O   H1  H2  EPW O   H1  H2  EPW O   H1  H2  EPW O   H1  
H2  EPW O   H1  H2  EPW O   H1  H2  EPW O   H1  H2  EPW O   H1  H2  EPW O   H1  
H2  EPW O   H1  H2  EPW O   H1  H2  EPW O   H1  H2  EPW O   H1  H2  EPW O   H1  
H2  EPW O   H1  H2  EPW O   H1  H2  EPW O   H1  H2  EPW O   H1  H2  EPW O   H1  
H2  EPW O   H1  H2  EPW O   H1  H2  EPW O   H1  H2  EPW O   H1  H2  EPW O   H1  
H2  EPW O   H1  H2  EPW O   H1  H2  EPW O   H1  H2  EPW O   H1  H2  EPW O   H1  
H2  EPW O   H1  H2  EPW O   H1  H2  EPW O   H1  H2  EPW O   H1  H2  EPW O   H1  
H2  EPW O   H1  H2  EPW O   H1  H2  EPW O   H1  H2  EPW O   H1  H2  EPW O   H1  
H2  EPW O   H1  H2  EPW O   H1  H2  EPW O   H1  H2  EPW O   H1  H2  EPW O   H1  
H2  EPW O   H1  H2  EPW O   H1  H2  EPW O   H1  H2  EPW O   H1  H2  EPW O   H1  
H2  EPW O   H1  H2  EPW O   H1  H2  EPW O   H1  H2  EPW O   H1  H2  EPW O   H1  
H2  EPW O   H1  H2  EPW O   H1  H2  EPW O   H1  H2  EPW O   H1  H2  EPW O   H1  
H2  EPW O   H1  H2  EPW O   H1  H2  EPW O   H1  H2  EPW O   H1  H2  EPW O   H1  
H2  EPW O   H1  H2  EPW O   H1  H2  EPW O   H1  H2  EPW O   H1  H2  EPW O   H1  
H2  EPW O   H1  H2  EPW O   H1  H2  EPW O   H1  H2  EPW O   H1  H2  EPW O   H1  
H2  EPW O   H1  H2  EPW O   H1  H2  EPW O   H1  H2  EPW O   H1  H2  EPW O   H1  
H2  EPW O   H1  H2  EPW O   H1  H2  EPW O   H1  H2  EPW O   H1  H2  EPW O   H1  
H2  EPW O   H1  H2  EPW O   H1  H2  EPW O   H1  H2  EPW O   H1  H2  EPW O   H1  
H2  EPW O   H1  H2  EPW O   H1  H2  EPW O   H1  H2  EPW O   H1  H2  EPW O   H1  
H2  EPW O   H1  H2  EPW O   H1  H2  EPW O   H1  H2  EPW O   H1  H2  EPW O   H1  
H2  EPW O   H1  H2  EPW O   H1  H2  EPW O   H1  H2  EPW O   H1  H2  EPW O   H1  
H2  EPW O   H1  H2  EPW O   H1  H2  EPW O   H1  H2  EPW O   H1  H2  EPW O   H1  
H2  EPW O   H1  H2  EPW O   H1  H2  EPW O   H1  H2  EPW O   H1  H2  EPW O   H1  
H2  EPW O   H1  H2  EPW O   H1  H2  EPW O   H1  H2  EPW O   H1  H2  EPW O   H1  
H2  EPW O   H1  H2  EPW O   H1  H2  EPW O   H1  H2  EPW O   H1  H2  EPW O   H1  
H2  EPW O   H1  H2  EPW O   H1  H2  EPW O   H1  H2  EPW O   H1  H2  EPW O   H1  
H2  EPW O   H1  H2  EPW O   H1  H2  EPW O   H1  H2  EPW O   H1  H2  EPW O   H1  
H2  EPW O   H1  H2  EPW O   H1  H2  EPW O   H1  H2  EPW O   H1  H2  EPW O   H1  
H2  EPW O   H1  H2  EPW O   H1  H2  EPW O   H1  H2  EPW O   H1  H2  EPW O   H1  
H2  EPW O   H1  H2  EPW O   H1  H2  EPW O   H1  H2  EPW O   H1  H2  EPW O   H1  
H2  EPW O   H1  H2  EPW O   H1  H2  EPW O   H1  H2  EPW O   H1  H2  EPW O   H1  
H2  EPW O   H1  H2  EPW O   H1  H2  EPW O   H1  H2  EPW O   H1  H2  EPW O   H1  
H2  EPW O   H1  H2  EPW O   H1  H2  EPW O   H1  H2  EPW O   H1  H2  EPW O   H1  
H2  EPW O   H1  H2  EPW O   H1  H2  EPW O   H1  H2  EPW O   H1  H2  EPW O   H1  
H2  EPW O   H1  H2  EPW O   H1  H2  EPW O   H1  H2  EPW O   H1  H2  EPW O   H1  
H2  EPW O   H1  H2  EPW O   H1  H2  EPW O   H1  H2  EPW O   H1  H2  EPW O   H1  
H2  EPW O   H1  H2  EPW O   H1  H2  EPW O   H1  H2  EPW O   H1  H2  EPW O   H1  
H2  EPW O   H1  H2  EPW O   H1  H2  EPW O   H1  H2  EPW O   H1  H2  EPW O   H1  
H2  EPW O   H1  H2  EPW O   H1  H2  EPW O   H1  H2  EPW O   H1  H2  EPW O   H1  
H2  EPW O   H1  H2  EPW O   H1  H2  EPW O   H1  H2  EPW O   H1  H2  EPW O   H1  
H2  EPW O   H1  H2  EPW O   H1  H2  EPW O   H1  H2  EPW O   H1  H2  EPW O   H1  
H2  EPW O   H1  H2  EPW O   H1  H2  EPW O   H1  H2  EPW O   H1  H2  EPW O   H1  
H2  EPW O   H1  H2  EPW O   H1  H2  EPW O   H1  H2  EPW O   H1  H2  EPW O   H1  
H2  EPW O   H1  H2  EPW O   H1  H2  EPW O   H1  H2  EPW O   H1  H2  EPW O   H1  
H2  EPW O   H1  H2  EPW O   H1  H2  EPW O   H1  H2  EPW O   H1  H2  EPW O   H1  
H2  EPW O   H1  H2  EPW O   H1  H2  EPW O   H1  H2  EPW O   H1  H2  EPW O   H1  
H2  EPW O   H1  H2  EPW O   H1  H2  EPW O   H1  H2  EPW O   H1  H2  EPW O   H1  
H2  EPW O   H1  H2  EPW O   H1  H2  EPW O   H1  H2  EPW O   H1  H2  EPW O   H1  
H2  EPW O   H1  H2  EPW O   H1  H2  EPW O   H1  H2  EPW O   H1  H2  EPW O   H1  
H2  EPW O   H1  H2  EPW O   H1  H2  EPW O   H1  H2  EPW O   H1  H2  EPW O   H1  
H2  EPW O   H1  H2  EPW O   H1  H2  EPW O   H1  H2  EPW O   H1  H2  EPW O   H1  
H2  EPW O   H1  H2  EPW O   H1  H2  EPW O   H1  H2  EPW O   H1  H2  EPW O   H1  
H2  EPW O   H1  H2  EPW O   H1  H2  EPW O   H1  H2  EPW O   H1  H2  EPW O   H1  
H2  EPW O   H1  H2  EPW O   H1  H2  EPW O   H1  H2  EPW O   H1  H2  EPW O   H1  
H2  EPW O   H1  H2  EPW O   H1  H2  EPW O   H1  H2  EPW O   H1  H2  EPW O   H1  
H2  EPW O   H1  H2  EPW O   H1  H2  EPW O   H1  H2  EPW O   H1  H2  EPW O   H1  
H2  EPW O   H1  H2  EPW O   H1  H2  EPW O   H1  H2  EPW O   H1  H2  EPW O   H1  
H2  EPW O   H1  H2  EPW O   H1  H2  EPW O   H1  H2  EPW O   H1  H2  EPW O   H1  
H2  EPW O   H1  H2  EPW O   H1  H2  EPW O   H1  H2  EPW O   H1  H2  EPW O   H1  
H2  EPW O   H1  H2  EPW O   H1  H2  EPW O   H1  H2  EPW O   H1  H2  EPW O   H1  
H2  EPW O   H1  H2  EPW O   H1  H2  EPW O   H1  H2  EPW O   H1  H2  EPW O   H1  
H2  EPW O   H1  H2  EPW O   H1  H2  EPW O   H1  H2  EPW O   H1  H2  EPW O   H1  
H2  EPW O   H1  H2  EPW O   H1  H2  EPW O   H1  H2  EPW O   H1  H2  EPW O   H1  
H2  EPW O   H1  H2  EPW O   H1  H2  EPW O   H1  H2  EPW O   H1  H2  EPW O   H1  
H2  EPW O   H1  H2  EPW O   H1  H2  EPW O   H1  H2  EPW O   H1  H2  EPW O   H1  
H2  EPW O   H1  H2  EPW O   H1  H2  EPW O   H1  H2  EPW O   H1  H2  EPW O   H1  
H2  EPW O   H1  H2  EPW O   H1  H2  EPW O   H1  H2  EPW O   H1  H2  EPW O   H1  
H2  EPW O   H1  H2  EPW O   H1  H2  EPW O   H1  H2  EPW O   H1  H2  EPW O   H1  
H2  EPW O   H1  H2  EPW O   H1  H2  EPW O   H1  H2  EPW O   H1  H2  EPW O   H1  
H2  EPW O   H1  H2  EPW O   H1  H2  EPW O   H1  H2  EPW O   H1  H2  EPW O   H1  
H2  EPW O   H1  H2  EPW O   H1  H2  EPW O   H1  H2  EPW O   H1  H2  EPW O   H1  
H2  EPW O   H1  H2  EPW O   H1  H2  EPW O   H1  H2  EPW O   H1  H2  EPW O   H1  
H2  EPW O   H1  H2  EPW O   H1  H2  EPW O   H1  H2  EPW O   H1  H2  EPW O   H1  
H2  EPW O   H1  H2  EPW O   H1  H2  EPW O   H1  H2  EPW O   H1  H2  EPW O   H1  
H2  EPW O   H1  H2  EPW O   H1  H2  EPW O   H1  H2  EPW O   H1  H2  EPW O   H1  
H2  EPW O   H1  H2  EPW O   H1  H2  EPW O   H1  H2  EPW O   H1  H2  EPW O   H1  
H2  EPW O   H1  H2  EPW O   H1  H2  EPW O   H1  H2  EPW O   H1  H2  EPW O   H1  
H2  EPW O   H1  H2  EPW O   H1  H2  EPW O   H1  H2  EPW O   H1  H2  EPW O   H1  
H2  EPW O   H1  H2  EPW O   H1  H2  EPW O   H1  H2  EPW O   H1  H2  EPW O   H1  
H2  EPW O   H1  H2  EPW O   H1  H2  EPW O   H1  H2  EPW O   H1  H2  EPW O   H1  
H2  EPW O   H1  H2  EPW O   H1  H2  EPW O   H1  H2  EPW O   H1  H2  EPW O   H1  
H2  EPW O   H1  H2  EPW O   H1  H2  EPW O   H1  H2  EPW O   H1  H2  EPW O   H1  
H2  EPW O   H1  H2  EPW O   H1  H2  EPW O   H1  H2  EPW O   H1  H2  EPW O   H1  
H2  EPW O   H1  H2  EPW O   H1  H2  EPW O   H1  H2  EPW O   H1  H2  EPW O   H1  
H2  EPW O   H1  H2  EPW O   H1  H2  EPW O   H1  H2  EPW O   H1  H2  EPW O   H1  
H2  EPW O   H1  H2  EPW O   H1  H2  EPW O   H1  H2  EPW O   H1  H2  EPW O   H1  
H2  EPW O   H1  H2  EPW O   H1  H2  EPW O   H1  H2  EPW O   H1  H2  EPW O   H1  
H2  EPW O   H1  H2  EPW O   H1  H2  EPW O   H1  H2  EPW O   H1  H2  EPW O   H1  
H2  EPW O   H1  H2  EPW O   H1  H2  EPW O   H1  H2  EPW O   H1  H2  EPW O   H1  
H2  EPW O   H1  H2  EPW O   H1  H2  EPW O   H1  H2  EPW O   H1  H2  EPW O   H1  
H2  EPW O   H1  H2  EPW O   H1  H2  EPW O   H1  H2  EPW O   H1  H2  EPW O   H1  
H2  EPW O   H1  H2  EPW O   H1  H2  EPW O   H1  H2  EPW O   H1  H2  EPW O   H1  
H2  EPW O   H1  H2  EPW O   H1  H2  EPW O   H1  H2  EPW O   H1  H2  EPW O   H1  
H2  EPW O   H1  H2  EPW O   H1  H2  EPW O   H1  H2  EPW O   H1  H2  EPW O   H1  
H2  EPW O   H1  H2  EPW O   H1  H2  EPW O   H1  H2  EPW O   H1  H2  EPW O   H1  
H2  EPW O   H1  H2  EPW O   H1  H2  EPW O   H1  H2  EPW O   H1  H2  EPW O   H1  
H2  EPW O   H1  H2  EPW O   H1  H2  EPW O   H1  H2  EPW O   H1  H2  EPW O   H1  
H2  EPW O   H1  H2  EPW O   H1  H2  EPW O   H1  H2  EPW O   H1  H2  EPW O   H1  
H2  EPW O   H1  H2  EPW O   H1  H2  EPW O   H1  H2  EPW O   H1  H2  EPW O   H1  
H2  EPW O   H1  H2  EPW O   H1  H2  EPW O   H1  H2  EPW O   H1  H2  EPW O   H1  
H2  EPW O   H1  H2  EPW O   H1  H2  EPW O   H1  H2  EPW O   H1  H2  EPW O   H1  
H2  EPW O   H1  H2  EPW O   H1  H2  EPW O   H1  H2  EPW O   H1  H2  EPW O   H1  
H2  EPW O   H1  H2  EPW O   H1  H2  EPW O   H1  H2  EPW O   H1  H2  EPW O   H1  
H2  EPW O   H1  H2  EPW O   H1  H2  EPW O   H1  H2  EPW O   H1  H2  EPW O   H1  
H2  EPW O   H1  H2  EPW O   H1  H2  EPW O   H1  H2  EPW O   H1  H2  EPW O   H1  
H2  EPW O   H1  H2  EPW O   H1  H2  EPW O   H1  H2  EPW O   H1  H2  EPW O   H1  
H2  EPW O   H1  H2  EPW O   H1  H2  EPW O   H1  H2  EPW O   H1  H2  EPW O   H1  
H2  EPW O   H1  H2  EPW O   H1  H2  EPW O   H1  H2  EPW O   H1  H2  EPW O   H1  
H2  EPW O   H1  H2  EPW O   H1  H2  EPW O   H1  H2  EPW O   H1  H2  EPW O   H1  
H2  EPW O   H1  H2  EPW O   H1  H2  EPW O   H1  H2  EPW O   H1  H2  EPW O   H1  
H2  EPW O   H1  H2  EPW O   H1  H2  EPW O   H1  H2  EPW O   H1  H2  EPW O   H1  
H2  EPW O   H1  H2  EPW O   H1  H2  EPW O   H1  H2  EPW O   H1  H2  EPW O   H1  
H2  EPW O   H1  H2  EPW O   H1  H2  EPW O   H1  H2  EPW O   H1  H2  EPW O   H1  
H2  EPW O   H1  H2  EPW O   H1  H2  EPW O   H1  H2  EPW O   H1  H2  EPW O   H1  
H2  EPW O   H1  H2  EPW O   H1  H2  EPW O   H1  H2  EPW O   H1  H2  EPW O   H1  
H2  EPW O   H1  H2  EPW O   H1  H2  EPW O   H1  H2  EPW O   H1  H2  EPW O   H1  
H2  EPW O   H1  H2  EPW O   H1  H2  EPW O   H1  H2  EPW O   H1  H2  EPW O   H1  
H2  EPW O   H1  H2  EPW O   H1  H2  EPW O   H1  H2  EPW O   H1  H2  EPW O   H1  
H2  EPW O   H1  H2  EPW O   H1  H2  EPW O   H1  H2  EPW O   H1  H2  EPW O   H1  
H2  EPW O   H1  H2  EPW O   H1  H2  EPW O   H1  H2  EPW O   H1  H2  EPW O   H1  
H2  EPW O   H1  H2  EPW O   H1  H2  EPW O   H1  H2  EPW O   H1  H2  EPW O   H1  
H2  EPW O   H1  H2  EPW O   H1  H2  EPW O   H1  H2  EPW O   H1  H2  EPW O   H1  
H2  EPW O   H1  H2  EPW O   H1  H2  EPW O   H1  H2  EPW O   H1  H2  EPW O   H1  
H2  EPW O   H1  H2  EPW O   H1  H2  EPW O   H1  H2  EPW O   H1  H2  EPW O   H1  
H2  EPW O   H1  H2  EPW O   H1  H2  EPW O   H1  H2  EPW O   H1  H2  EPW O   H1  
H2  EPW O   H1  H2  EPW O   H1  H2  EPW O   H1  H2  EPW O   H1  H2  EPW O   H1  
H2  EPW O   H1  H2  EPW O   H1  H2  EPW O   H1  H2  EPW O   H1  H2  EPW O   H1  
H2  EPW O   H1  H2  EPW O   H1  H2  EPW O   H1  H2  EPW O   H1  H2  EPW O   H1  
H2  EPW O   H1  H2  EPW O   H1  H2  EPW O   H1  H2  EPW O   H1  H2  EPW O   H1  
H2  EPW O   H1  H2  EPW O   H1  H2  EPW O   H1  H2  EPW O   H1  H2  EPW O   H1  
H2  EPW O   H1  H2  EPW O   H1  H2  EPW O   H1  H2  EPW O   H1  H2  EPW O   H1  
H2  EPW O   H1  H2  EPW O   H1  H2  EPW O   H1  H2  EPW O   H1  H2  EPW O   H1  
H2  EPW O   H1  H2  EPW O   H1  H2  EPW O   H1  H2  EPW O   H1  H2  EPW O   H1  
H2  EPW O   H1  H2  EPW O   H1  H2  EPW O   H1  H2  EPW O   H1  H2  EPW O   H1  
H2  EPW O   H1  H2  EPW O   H1  H2  EPW O   H1  H2  EPW O   H1  H2  EPW O   H1  
H2  EPW O   H1  H2  EPW O   H1  H2  EPW O   H1  H2  EPW O   H1  H2  EPW O   H1  
H2  EPW O   H1  H2  EPW O   H1  H2  EPW O   H1  H2  EPW O   H1  H2  EPW O   H1  
H2  EPW O   H1  H2  EPW O   H1  H2  EPW O   H1  H2  EPW O   H1  H2  EPW O   H1  
H2  EPW O   H1  H2  EPW O   H1  H2  EPW O   H1  H2  EPW O   H1  H2  EPW O   H1  
H2  EPW O   H1  H2  EPW O   H1  H2  EPW O   H1  H2  EPW O   H1  H2  EPW O   H1  
H2  EPW O   H1  H2  EPW O   H1  H2  EPW O   H1  H2  EPW O   H1  H2  EPW O   H1  
H2  EPW O   H1  H2  EPW O   H1  H2  EPW O   H1  H2  EPW O   H1  H2  EPW O   H1  
H2  EPW O   H1  H2  EPW O   H1  H2  EPW O   H1  H2  EPW O   H1  H2  EPW O   H1  
H2  EPW O   H1  H2  EPW O   H1  H2  EPW O   H1  H2  EPW O   H1  H2  EPW O   H1  
H2  EPW O   H1  H2  EPW O   H1  H2  EPW O   H1  H2  EPW O   H1  H2  EPW O   H1  
H2  EPW O   H1  H2  EPW O   H1  H2  EPW O   H1  H2  EPW O   H1  H2  EPW O   H1  
H2  EPW O   H1  H2  EPW O   H1  H2  EPW O   H1  H2  EPW O   H1  H2  EPW O   H1  
H2  EPW O   H1  H2  EPW O   H1  H2  EPW O   H1  H2  EPW O   H1  H2  EPW O   H1  
H2  EPW O   H1  H2  EPW O   H1  H2  EPW O   H1  H2  EPW O   H1  H2  EPW O   H1  
H2  EPW O   H1  H2  EPW O   H1  H2  EPW O   H1  H2  EPW O   H1  H2  EPW O   H1  
H2  EPW O   H1  H2  EPW O   H1  H2  EPW O   H1  H2  EPW O   H1  H2  EPW O   H1  
H2  EPW O   H1  H2  EPW 
%FLAG CHARGE                                                                    
%FORMAT(5E16.8)                                                                 
  2.04636429E+00 -6.67300626E+00  2.04636429E+00  2.04636429E+00  1.08823576E+01
 -1.03484442E+01 -7.57501011E+00  4.95464337E+00  6.14091510E-01  1.49969529E+00
 -3.32556975E+00  1.09880469E+00  1.09880469E+00  1.09880469E+00  1.08841798E+01
 -1.03484442E+01 -4.64304204E+00  3.49868160E-01  7.12491930E-01  7.12491930E-01
  3.44401470E-01  3.88134990E-01  3.88134990E-01 -1.27556100E-01  4.61024190E-01
  4.61024190E-01 -4.84713180E-01  1.16804943E+00  1.07438681E+01 -1.04741780E+01
 -7.57501011E+00  4.95464337E+00  6.14091510E-01  1.49969529E+00 -3.32556975E+00
  1.09880469E+00  1.09880469E+00  1.09880469E+00  1.08841798E+01 -1.03484442E+01
 -7.57501011E+00  4.95464337E+00 -2.71512270E+00  1.77849648E+00  1.77849648E+00
  1.77849648E+00  0.00000000E+00  1.23755293E+01  1.23755293E+01 -2.47510585E+01
  0.00000000E+00  1.23755293E+01  1.23755293E+01 -2.47510585E+01  0.00000000E+00
  1.23755293E+01  1.23755293E+01 -2.47510585E+01  0.00000000E+00  1.23755293E+01
  1.23755293E+01 -2.47510585E+01  0.00000000E+00  1.23755293E+01  1.23755293E+01
 -2.47510585E+01  0.00000000E+00  1.23755293E+01  1.23755293E+01 -2.47510585E+01
  0.00000000E+00  1.23755293E+01  1.23755293E+01 -2.47510585E+01  0.00000000E+00
  1.23755293E+01  1.23755293E+01 -2.47510585E+01  0.00000000E+00  1.23755293E+01
  1.23755293E+01 -2.47510585E+01  0.00000000E+00  1.23755293E+01  1.23755293E+01
 -2.47510585E+01  0.00000000E+00  1.23755293E+01  1.23755293E+01 -2.47510585E+01
  0.00000000E+00  1.23755293E+01  1.23755293E+01 -2.47510585E+01  0.00000000E+00
  1.23755293E+01  1.23755293E+01 -2.47510585E+01  0.00000000E+00  1.23755293E+01
  1.23755293E+01 -2.47510585E+01  0.00000000E+00  1.23755293E+01  1.23755293E+01
 -2.47510585E+01  0.00000000E+00  1.23755293E+01  1.23755293E+01 -2.47510585E+01
  0.00000000E+00  1.23755293E+01  1.23755293E+01 -2.47510585E+01  0.00000000E+00
  1.23755293E+01  1.23755293E+01 -2.47510585E+01  0.00000000E+00  1.23755293E+01
  1.23755293E+01 -2.47510585E+01  0.00000000E+00  1.23755293E+01  1.23755293E+01
 -2.47510585E+01  0.00000000E+00  1.23755293E+01  1.23755293E+01 -2.47510585E+01
  0.00000000E+00  1.23755293E+01  1.23755293E+01 -2.47510585E+01  0.00000000E+00
  1.23755293E+01  1.23755293E+01 -2.47510585E+01  0.00000000E+00  1.23755293E+01
  1.23755293E+01 -2.47510585E+01  0.00000000E+00  1.23755293E+01  1.23755293E+01
 -2.47510585E+01  0.00000000E+00  1.23755293E+01  1.23755293E+01 -2.47510585E+01
  0.00000000E+00  1.23755293E+01  1.23755293E+01 -2.47510585E+01  0.00000000E+00
  1.23755293E+01  1.23755293E+01 -2.47510585E+01  0.00000000E+00  1.23755293E+01
  1.23755293E+01 -2.47510585E+01  0.00000000E+00  1.23755293E+01  1.23755293E+01
 -2.47510585E+01  0.00000000E+00  1.23755293E+01  1.23755293E+01 -2.47510585E+01
  0.00000000E+00  1.23755293E+01  1.23755293E+01 -2.47510585E+01  0.00000000E+00
  1.23755293E+01  1.23755293E+01 -2.47510585E+01  0.00000000E+00  1.23755293E+01
  1.23755293E+01 -2.47510585E+01  0.00000000E+00  1.23755293E+01  1.23755293E+01
 -2.47510585E+01  0.00000000E+00  1.23755293E+01  1.23755293E+01 -2.47510585E+01
  0.00000000E+00  1.23755293E+01  1.23755293E+01 -2.47510585E+01  0.00000000E+00
  1.23755293E+01  1.23755293E+01 -2.47510585E+01  0.00000000E+00  1.23755293E+01
  1.23755293E+01 -2.47510585E+01  0.00000000E+00  1.23755293E+01  1.23755293E+01
 -2.47510585E+01  0.00000000E+00  1.23755293E+01  1.23755293E+01 -2.47510585E+01
  0.00000000E+00  1.23755293E+01  1.23755293E+01 -2.47510585E+01  0.00000000E+00
  1.23755293E+01  1.23755293E+01 -2.47510585E+01  0.00000000E+00  1.23755293E+01
  1.23755293E+01 -2.47510585E+01  0.00000000E+00  1.23755293E+01  1.23755293E+01
 -2.47510585E+01  0.00000000E+00  1.23755293E+01  1.23755293E+01 -2.47510585E+01
  0.00000000E+00  1.23755293E+01  1.23755293E+01 -2.47510585E+01  0.00000000E+00
  1.23755293E+01  1.23755293E+01 -2.47510585E+01  0.00000000E+00  1.23755293E+01
  1.23755293E+01 -2.47510585E+01  0.00000000E+00  1.23755293E+01  1.23755293E+01
 -2.47510585E+01  0.00000000E+00  1.23755293E+01  1.23755293E+01 -2.47510585E+01
  0.00000000E+00  1.23755293E+01  1.23755293E+01 -2.47510585E+01  0.00000000E+00
  1.23755293E+01  1.23755293E+01 -2.47510585E+01  0.00000000E+00  1.23755293E+01
  1.23755293E+01 -2.47510585E+01  0.00000000E+00  1.23755293E+01  1.23755293E+01
 -2.47510585E+01  0.00000000E+00  1.23755293E+01  1.23755293E+01 -2.47510585E+01
  0.00000000E+00  1.23755293E+01  1.23755293E+01 -2.47510585E+01  0.00000000E+00
  1.23755293E+01  1.23755293E+01 -2.47510585E+01  0.00000000E+00  1.23755293E+01
  1.23755293E+01 -2.47510585E+01  0.00000000E+00  1.23755293E+01  1.23755293E+01
 -2.47510585E+01  0.00000000E+00  1.23755293E+01  1.23755293E+01 -2.47510585E+01
  0.00000000E+00  1.23755293E+01  1.23755293E+01 -2.47510585E+01  0.00000000E+00
  1.23755293E+01  1.23755293E+01 -2.47510585E+01  0.00000000E+00  1.23755293E+01
  1.23755293E+01 -2.47510585E+01  0.00000000E+00  1.23755293E+01  1.23755293E+01
 -2.47510585E+01  0.00000000E+00  1.23755293E+01  1.23755293E+01 -2.47510585E+01
  0.00000000E+00  1.23755293E+01  1.23755293E+01 -2.47510585E+01  0.00000000E+00
  1.23755293E+01  1.23755293E+01 -2.47510585E+01  0.00000000E+00  1.23755293E+01
  1.23755293E+01 -2.47510585E+01  0.00000000E+00  1.23755293E+01  1.23755293E+01
 -2.47510585E+01  0.00000000E+00  1.23755293E+01  1.23755293E+01 -2.47510585E+01
  0.00000000E+00  1.23755293E+01  1.23755293E+01 -2.47510585E+01  0.00000000E+00
  1.23755293E+01  1.23755293E+01 -2.47510585E+01  0.00000000E+00  1.23755293E+01
  1.23755293E+01 -2.47510585E+01  0.00000000E+00  1.23755293E+01  1.23755293E+01
 -2.47510585E+01  0.00000000E+00  1.23755293E+01  1.23755293E+01 -2.47510585E+01
  0.00000000E+00  1.23755293E+01  1.23755293E+01 -2.47510585E+01  0.00000000E+00
  1.23755293E+01  1.23755293E+01 -2.47510585E+01  0.00000000E+00  1.23755293E+01
  1.23755293E+01 -2.47510585E+01  0.00000000E+00  1.23755293E+01  1.23755293E+01
 -2.47510585E+01  0.00000000E+00  1.23755293E+01  1.23755293E+01 -2.47510585E+01
  0.00000000E+00  1.23755293E+01  1.23755293E+01 -2.47510585E+01  0.00000000E+00
  1.23755293E+01  1.23755293E+01 -2.47510585E+01  0.00000000E+00  1.23755293E+01
  1.23755293E+01 -2.47510585E+01  0.00000000E+00  1.23755293E+01  1.23755293E+01
 -2.47510585E+01  0.00000000E+00  1.23755293E+01  1.23755293E+01 -2.47510585E+01
  0.00000000E+00  1.23755293E+01  1.23755293E+01 -2.47510585E+01  0.00000000E+00
  1.23755293E+01  1.23755293E+01 -2.47510585E+01  0.00000000E+00  1.23755293E+01
  1.23755293E+01 -2.47510585E+01  0.00000000E+00  1.23755293E+01  1.23755293E+01
 -2.47510585E+01  0.00000000E+00  1.23755293E+01  1.23755293E+01 -2.47510585E+01
  0.00000000E+00  1.23755293E+01  1.23755293E+01 -2.47510585E+01  0.00000000E+00
  1.23755293E+01  1.23755293E+01 -2.47510585E+01  0.00000000E+00  1.23755293E+01
  1.23755293E+01 -2.47510585E+01  0.00000000E+00  1.23755293E+01  1.23755293E+01
 -2.47510585E+01  0.00000000E+00  1.23755293E+01  1.23755293E+01 -2.47510585E+01
  0.00000000E+00  1.23755293E+01  1.23755293E+01 -2.47510585E+01  0.00000000E+00
  1.23755293E+01  1.23755293E+01 -2.47510585E+01  0.00000000E+00  1.23755293E+01
  1.23755293E+01 -2.47510585E+01  0.00000000E+00  1.23755293E+01  1.23755293E+01
 -2.47510585E+01  0.00000000E+00  1.23755293E+01  1.23755293E+01 -2.47510585E+01
  0.00000000E+00  1.23755293E+01  1.23755293E+01 -2.47510585E+01  0.00000000E+00
  1.23755293E+01  1.23755293E+01 -2.47510585E+01  0.00000000E+00  1.23755293E+01
  1.23755293E+01 -2.47510585E+01  0.00000000E+00  1.23755293E+01  1.23755293E+01
 -2.47510585E+01  0.00000000E+00  1.23755293E+01  1.23755293E+01 -2.47510585E+01
  0.00000000E+00  1.23755293E+01  1.23755293E+01 -2.47510585E+01  0.00000000E+00
  1.23755293E+01  1.23755293E+01 -2.47510585E+01  0.00000000E+00  1.23755293E+01
  1.23755293E+01 -2.47510585E+01  0.00000000E+00  1.23755293E+01  1.23755293E+01
 -2.47510585E+01  0.00000000E+00  1.23755293E+01  1.23755293E+01 -2.47510585E+01
  0.00000000E+00  1.23755293E+01  1.23755293E+01 -2.47510585E+01  0.00000000E+00
  1.23755293E+01  1.23755293E+01 -2.47510585E+01  0.00000000E+00  1.23755293E+01
  1.23755293E+01 -2.47510585E+01  0.00000000E+00  1.23755293E+01  1.23755293E+01
 -2.47510585E+01  0.00000000E+00  1.23755293E+01  1.23755293E+01 -2.47510585E+01
  0.00000000E+00  1.23755293E+01  1.23755293E+01 -2.47510585E+01  0.00000000E+00
  1.23755293E+01  1.23755293E+01 -2.47510585E+01  0.00000000E+00  1.23755293E+01
  1.23755293E+01 -2.47510585E+01  0.00000000E+00  1.23755293E+01  1.23755293E+01
 -2.47510585E+01  0.00000000E+00  1.23755293E+01  1.23755293E+01 -2.47510585E+01
  0.00000000E+00  1.23755293E+01  1.23755293E+01 -2.47510585E+01  0.00000000E+00
  1.23755293E+01  1.23755293E+01 -2.47510585E+01  0.00000000E+00  1.23755293E+01
  1.23755293E+01 -2.47510585E+01  0.00000000E+00  1.23755293E+01  1.23755293E+01
 -2.47510585E+01  0.00000000E+00  1.23755293E+01  1.23755293E+01 -2.47510585E+01
  0.00000000E+00  1.23755293E+01  1.23755293E+01 -2.47510585E+01  0.00000000E+00
  1.23755293E+01  1.23755293E+01 -2.47510585E+01  0.00000000E+00  1.23755293E+01
  1.23755293E+01 -2.47510585E+01  0.00000000E+00  1.23755293E+01  1.23755293E+01
 -2.47510585E+01  0.00000000E+00  1.23755293E+01  1.23755293E+01 -2.47510585E+01
  0.00000000E+00  1.23755293E+01  1.23755293E+01 -2.47510585E+01  0.00000000E+00
  1.23755293E+01  1.23755293E+01 -2.47510585E+01  0.00000000E+00  1.23755293E+01
  1.23755293E+01 -2.47510585E+01  0.00000000E+00  1.23755293E+01  1.23755293E+01
 -2.47510585E+01  0.00000000E+00  1.23755293E+01  1.23755293E+01 -2.47510585E+01
  0.00000000E+00  1.23755293E+01  1.23755293E+01 -2.47510585E+01  0.00000000E+00
  1.23755293E+01  1.23755293E+01 -2.47510585E+01  0.00000000E+00  1.23755293E+01
  1.23755293E+01 -2.47510585E+01  0.00000000E+00  1.23755293E+01  1.23755293E+01
 -2.47510585E+01  0.00000000E+00  1.23755293E+01  1.23755293E+01 -2.47510585E+01
  0.00000000E+00  1.23755293E+01  1.23755293E+01 -2.47510585E+01  0.00000000E+00
  1.23755293E+01  1.23755293E+01 -2.47510585E+01  0.00000000E+00  1.23755293E+01
  1.23755293E+01 -2.47510585E+01  0.00000000E+00  1.23755293E+01  1.23755293E+01
 -2.47510585E+01  0.00000000E+00  1.23755293E+01  1.23755293E+01 -2.47510585E+01
  0.00000000E+00  1.23755293E+01  1.23755293E+01 -2.47510585E+01  0.00000000E+00
  1.23755293E+01  1.23755293E+01 -2.47510585E+01  0.00000000E+00  1.23755293E+01
  1.23755293E+01 -2.47510585E+01  0.00000000E+00  1.23755293E+01  1.23755293E+01
 -2.47510585E+01  0.00000000E+00  1.23755293E+01  1.23755293E+01 -2.47510585E+01
  0.00000000E+00  1.23755293E+01  1.23755293E+01 -2.47510585E+01  0.00000000E+00
  1.23755293E+01  1.23755293E+01 -2.47510585E+01  0.00000000E+00  1.23755293E+01
  1.23755293E+01 -2.47510585E+01  0.00000000E+00  1.23755293E+01  1.23755293E+01
 -2.47510585E+01  0.00000000E+00  1.23755293E+01  1.23755293E+01 -2.47510585E+01
  0.00000000E+00  1.23755293E+01  1.23755293E+01 -2.47510585E+01  0.00000000E+00
  1.23755293E+01  1.23755293E+01 -2.47510585E+01  0.00000000E+00  1.23755293E+01
  1.23755293E+01 -2.47510585E+01  0.00000000E+00  1.23755293E+01  1.23755293E+01
 -2.47510585E+01  0.00000000E+00  1.23755293E+01  1.23755293E+01 -2.47510585E+01
  0.00000000E+00  1.23755293E+01  1.23755293E+01 -2.47510585E+01  0.00000000E+00
  1.23755293E+01  1.23755293E+01 -2.47510585E+01  0.00000000E+00  1.23755293E+01
  1.23755293E+01 -2.47510585E+01  0.00000000E+00  1.23755293E+01  1.23755293E+01
 -2.47510585E+01  0.00000000E+00  1.23755293E+01  1.23755293E+01 -2.47510585E+01
  0.00000000E+00  1.23755293E+01  1.23755293E+01 -2.47510585E+01  0.00000000E+00
  1.23755293E+01  1.23755293E+01 -2.47510585E+01  0.00000000E+00  1.23755293E+01
  1.23755293E+01 -2.47510585E+01  0.00000000E+00  1.23755293E+01  1.23755293E+01
 -2.47510585E+01  0.00000000E+00  1.23755293E+01  1.23755293E+01 -2.47510585E+01
  0.00000000E+00  1.23755293E+01  1.23755293E+01 -2.47510585E+01  0.00000000E+00
  1.23755293E+01  1.23755293E+01 -2.47510585E+01  0.00000000E+00  1.23755293E+01
  1.23755293E+01 -2.47510585E+01  0.00000000E+00  1.23755293E+01  1.23755293E+01
 -2.47510585E+01  0.00000000E+00  1.23755293E+01  1.23755293E+01 -2.47510585E+01
  0.00000000E+00  1.23755293E+01  1.23755293E+01 -2.47510585E+01  0.00000000E+00
  1.23755293E+01  1.23755293E+01 -2.47510585E+01  0.00000000E+00  1.23755293E+01
  1.23755293E+01 -2.47510585E+01  0.00000000E+00  1.23755293E+01  1.23755293E+01
 -2.47510585E+01  0.00000000E+00  1.23755293E+01  1.23755293E+01 -2.47510585E+01
  0.00000000E+00  1.23755293E+01  1.23755293E+01 -2.47510585E+01  0.00000000E+00
  1.23755293E+01  1.23755293E+01 -2.47510585E+01  0.00000000E+00  1.23755293E+01
  1.23755293E+01 -2.47510585E+01  0.00000000E+00  1.23755293E+01  1.23755293E+01
 -2.47510585E+01  0.00000000E+00  1.23755293E+01  1.23755293E+01 -2.47510585E+01
  0.00000000E+00  1.23755293E+01  1.23755293E+01 -2.47510585E+01  0.00000000E+00
  1.23755293E+01  1.23755293E+01 -2.47510585E+01  0.00000000E+00  1.23755293E+01
  1.23755293E+01 -2.47510585E+01  0.00000000E+00  1.23755293E+01  1.23755293E+01
 -2.47510585E+01  0.00000000E+00  1.23755293E+01  1.23755293E+01 -2.47510585E+01
  0.00000000E+00  1.23755293E+01  1.23755293E+01 -2.47510585E+01  0.00000000E+00
  1.23755293E+01  1.23755293E+01 -2.47510585E+01  0.00000000E+00  1.23755293E+01
  1.23755293E+01 -2.47510585E+01  0.00000000E+00  1.23755293E+01  1.23755293E+01
 -2.47510585E+01  0.00000000E+00  1.23755293E+01  1.23755293E+01 -2.47510585E+01
  0.00000000E+00  1.23755293E+01  1.23755293E+01 -2.47510585E+01  0.00000000E+00
  1.23755293E+01  1.23755293E+01 -2.47510585E+01  0.00000000E+00  1.23755293E+01
  1.23755293E+01 -2.47510585E+01  0.00000000E+00  1.23755293E+01  1.23755293E+01
 -2.47510585E+01  0.00000000E+00  1.23755293E+01  1.23755293E+01 -2.47510585E+01
  0.00000000E+00  1.23755293E+01  1.23755293E+01 -2.47510585E+01  0.00000000E+00
  1.23755293E+01  1.23755293E+01 -2.47510585E+01  0.00000000E+00  1.23755293E+01
  1.23755293E+01 -2.47510585E+01  0.00000000E+00  1.23755293E+01  1.23755293E+01
 -2.47510585E+01  0.00000000E+00  1.23755293E+01  1.23755293E+01 -2.47510585E+01
  0.00000000E+00  1.23755293E+01  1.23755293E+01 -2.47510585E+01  0.00000000E+00
  1.23755293E+01  1.23755293E+01 -2.47510585E+01  0.00000000E+00  1.23755293E+01
  1.23755293E+01 -2.47510585E+01  0.00000000E+00  1.23755293E+01  1.23755293E+01
 -2.47510585E+01  0.00000000E+00  1.23755293E+01  1.23755293E+01 -2.47510585E+01
  0.00000000E+00  1.23755293E+01  1.23755293E+01 -2.47510585E+01  0.00000000E+00
  1.23755293E+01  1.23755293E+01 -2.47510585E+01  0.00000000E+00  1.23755293E+01
  1.23755293E+01 -2.47510585E+01  0.00000000E+00  1.23755293E+01  1.23755293E+01
 -2.47510585E+01  0.00000000E+00  1.23755293E+01  1.23755293E+01 -2.47510585E+01
  0.00000000E+00  1.23755293E+01  1.23755293E+01 -2.47510585E+01  0.00000000E+00
  1.23755293E+01  1.23755293E+01 -2.47510585E+01  0.00000000E+00  1.23755293E+01
  1.23755293E+01 -2.47510585E+01  0.00000000E+00  1.23755293E+01  1.23755293E+01
 -2.47510585E+01  0.00000000E+00  1.23755293E+01  1.23755293E+01 -2.47510585E+01
  0.00000000E+00  1.23755293E+01  1.23755293E+01 -2.47510585E+01  0.00000000E+00
  1.23755293E+01  1.23755293E+01 -2.47510585E+01  0.00000000E+00  1.23755293E+01
  1.23755293E+01 -2.47510585E+01  0.00000000E+00  1.23755293E+01  1.23755293E+01
 -2.47510585E+01  0.00000000E+00  1.23755293E+01  1.23755293E+01 -2.47510585E+01
  0.00000000E+00  1.23755293E+01  1.23755293E+01 -2.47510585E+01  0.00000000E+00
  1.23755293E+01  1.23755293E+01 -2.47510585E+01  0.00000000E+00  1.23755293E+01
  1.23755293E+01 -2.47510585E+01  0.00000000E+00  1.23755293E+01  1.23755293E+01
 -2.47510585E+01  0.00000000E+00  1.23755293E+01  1.23755293E+01 -2.47510585E+01
  0.00000000E+00  1.23755293E+01  1.23755293E+01 -2.47510585E+01  0.00000000E+00
  1.23755293E+01  1.23755293E+01 -2.47510585E+01  0.00000000E+00  1.23755293E+01
  1.23755293E+01 -2.47510585E+01  0.00000000E+00  1.23755293E+01  1.23755293E+01
 -2.47510585E+01  0.00000000E+00  1.23755293E+01  1.23755293E+01 -2.47510585E+01
  0.00000000E+00  1.23755293E+01  1.23755293E+01 -2.47510585E+01  0.00000000E+00
  1.23755293E+01  1.23755293E+01 -2.47510585E+01  0.00000000E+00  1.23755293E+01
  1.23755293E+01 -2.47510585E+01  0.00000000E+00  1.23755293E+01  1.23755293E+01
 -2.47510585E+01  0.00000000E+00  1.23755293E+01  1.23755293E+01 -2.47510585E+01
  0.00000000E+00  1.23755293E+01  1.23755293E+01 -2.47510585E+01  0.00000000E+00
  1.23755293E+01  1.23755293E+01 -2.47510585E+01  0.00000000E+00  1.23755293E+01
  1.23755293E+01 -2.47510585E+01  0.00000000E+00  1.23755293E+01  1.23755293E+01
 -2.47510585E+01  0.00000000E+00  1.23755293E+01  1.23755293E+01 -2.47510585E+01
  0.00000000E+00  1.23755293E+01  1.23755293E+01 -2.47510585E+01  0.00000000E+00
  1.23755293E+01  1.23755293E+01 -2.47510585E+01  0.00000000E+00  1.23755293E+01
  1.23755293E+01 -2.47510585E+01  0.00000000E+00  1.23755293E+01  1.23755293E+01
 -2.47510585E+01  0.00000000E+00  1.23755293E+01  1.23755293E+01 -2.47510585E+01
  0.00000000E+00  1.23755293E+01  1.23755293E+01 -2.47510585E+01  0.00000000E+00
  1.23755293E+01  1.23755293E+01 -2.47510585E+01  0.00000000E+00  1.23755293E+01
  1.23755293E+01 -2.47510585E+01  0.00000000E+00  1.23755293E+01  1.23755293E+01
 -2.47510585E+01  0.00000000E+00  1.23755293E+01  1.23755293E+01 -2.47510585E+01
  0.00000000E+00  1.23755293E+01  1.23755293E+01 -2.47510585E+01  0.00000000E+00
  1.23755293E+01  1.23755293E+01 -2.47510585E+01  0.00000000E+00  1.23755293E+01
  1.23755293E+01 -2.47510585E+01  0.00000000E+00  1.23755293E+01  1.23755293E+01
 -2.47510585E+01  0.00000000E+00  1.23755293E+01  1.23755293E+01 -2.47510585E+01
  0.00000000E+00  1.23755293E+01  1.23755293E+01 -2.47510585E+01  0.00000000E+00
  1.23755293E+01  1.23755293E+01 -2.47510585E+01  0.00000000E+00  1.23755293E+01
  1.23755293E+01 -2.47510585E+01  0.00000000E+00  1.23755293E+01  1.23755293E+01
 -2.47510585E+01  0.00000000E+00  1.23755293E+01  1.23755293E+01 -2.47510585E+01
  0.00000000E+00  1.23755293E+01  1.23755293E+01 -2.47510585E+01  0.00000000E+00
  1.23755293E+01  1.23755293E+01 -2.47510585E+01  0.00000000E+00  1.23755293E+01
  1.23755293E+01 -2.47510585E+01  0.00000000E+00  1.23755293E+01  1.23755293E+01
 -2.47510585E+01  0.00000000E+00  1.23755293E+01  1.23755293E+01 -2.47510585E+01
  0.00000000E+00  1.23755293E+01  1.23755293E+01 -2.47510585E+01  0.00000000E+00
  1.23755293E+01  1.23755293E+01 -2.47510585E+01  0.00000000E+00  1.23755293E+01
  1.23755293E+01 -2.47510585E+01  0.00000000E+00  1.23755293E+01  1.23755293E+01
 -2.47510585E+01  0.00000000E+00  1.23755293E+01  1.23755293E+01 -2.47510585E+01
  0.00000000E+00  1.23755293E+01  1.23755293E+01 -2.47510585E+01  0.00000000E+00
  1.23755293E+01  1.23755293E+01 -2.47510585E+01  0.00000000E+00  1.23755293E+01
  1.23755293E+01 -2.47510585E+01  0.00000000E+00  1.23755293E+01  1.23755293E+01
 -2.47510585E+01  0.00000000E+00  1.23755293E+01  1.23755293E+01 -2.47510585E+01
  0.00000000E+00  1.23755293E+01  1.23755293E+01 -2.47510585E+01  0.00000000E+00
  1.23755293E+01  1.23755293E+01 -2.47510585E+01  0.00000000E+00  1.23755293E+01
  1.23755293E+01 -2.47510585E+01  0.00000000E+00  1.23755293E+01  1.23755293E+01
 -2.47510585E+01  0.00000000E+00  1.23755293E+01  1.23755293E+01 -2.47510585E+01
  0.00000000E+00  1.23755293E+01  1.23755293E+01 -2.47510585E+01  0.00000000E+00
  1.23755293E+01  1.23755293E+01 -2.47510585E+01  0.00000000E+00  1.23755293E+01
  1.23755293E+01 -2.47510585E+01  0.00000000E+00  1.23755293E+01  1.23755293E+01
 -2.47510585E+01  0.00000000E+00  1.23755293E+01  1.23755293E+01 -2.47510585E+01
  0.00000000E+00  1.23755293E+01  1.23755293E+01 -2.47510585E+01  0.00000000E+00
  1.23755293E+01  1.23755293E+01 -2.47510585E+01  0.00000000E+00  1.23755293E+01
  1.23755293E+01 -2.47510585E+01  0.00000000E+00  1.23755293E+01  1.23755293E+01
 -2.47510585E+01  0.00000000E+00  1.23755293E+01  1.23755293E+01 -2.47510585E+01
  0.00000000E+00  1.23755293E+01  1.23755293E+01 -2.47510585E+01  0.00000000E+00
  1.23755293E+01  1.23755293E+01 -2.47510585E+01  0.00000000E+00  1.23755293E+01
  1.23755293E+01 -2.47510585E+01  0.00000000E+00  1.23755293E+01  1.23755293E+01
 -2.47510585E+01  0.00000000E+00  1.23755293E+01  1.23755293E+01 -2.47510585E+01
  0.00000000E+00  1.23755293E+01  1.23755293E+01 -2.47510585E+01  0.00000000E+00
  1.23755293E+01  1.23755293E+01 -2.47510585E+01  0.00000000E+00  1.23755293E+01
  1.23755293E+01 -2.47510585E+01  0.00000000E+00  1.23755293E+01  1.23755293E+01
 -2.47510585E+01  0.00000000E+00  1.23755293E+01  1.23755293E+01 -2.47510585E+01
  0.00000000E+00  1.23755293E+01  1.23755293E+01 -2.47510585E+01  0.00000000E+00
  1.23755293E+01  1.23755293E+01 -2.47510585E+01  0.00000000E+00  1.23755293E+01
  1.23755293E+01 -2.47510585E+01  0.00000000E+00  1.23755293E+01  1.23755293E+01
 -2.47510585E+01  0.00000000E+00  1.23755293E+01  1.23755293E+01 -2.47510585E+01
  0.00000000E+00  1.23755293E+01  1.23755293E+01 -2.47510585E+01  0.00000000E+00
  1.23755293E+01  1.23755293E+01 -2.47510585E+01  0.00000000E+00  1.23755293E+01
  1.23755293E+01 -2.47510585E+01  0.00000000E+00  1.23755293E+01  1.23755293E+01
 -2.47510585E+01  0.00000000E+00  1.23755293E+01  1.23755293E+01 -2.47510585E+01
  0.00000000E+00  1.23755293E+01  1.23755293E+01 -2.47510585E+01  0.00000000E+00
  1.23755293E+01  1.23755293E+01 -2.47510585E+01  0.00000000E+00  1.23755293E+01
  1.23755293E+01 -2.47510585E+01  0.00000000E+00  1.23755293E+01  1.23755293E+01
 -2.47510585E+01  0.00000000E+00  1.23755293E+01  1.23755293E+01 -2.47510585E+01
  0.00000000E+00  1.23755293E+01  1.23755293E+01 -2.47510585E+01  0.00000000E+00
  1.23755293E+01  1.23755293E+01 -2.47510585E+01  0.00000000E+00  1.23755293E+01
  1.23755293E+01 -2.47510585E+01  0.00000000E+00  1.23755293E+01  1.23755293E+01
 -2.47510585E+01  0.00000000E+00  1.23755293E+01  1.23755293E+01 -2.47510585E+01
  0.00000000E+00  1.23755293E+01  1.23755293E+01 -2.47510585E+01  0.00000000E+00
  1.23755293E+01  1.23755293E+01 -2.47510585E+01  0.00000000E+00  1.23755293E+01
  1.23755293E+01 -2.47510585E+01  0.00000000E+00  1.23755293E+01  1.23755293E+01
 -2.47510585E+01  0.00000000E+00  1.23755293E+01  1.23755293E+01 -2.47510585E+01
  0.00000000E+00  1.23755293E+01  1.23755293E+01 -2.47510585E+01  0.00000000E+00
  1.23755293E+01  1.23755293E+01 -2.47510585E+01  0.00000000E+00  1.23755293E+01
  1.23755293E+01 -2.47510585E+01  0.00000000E+00  1.23755293E+01  1.23755293E+01
 -2.47510585E+01  0.00000000E+00  1.23755293E+01  1.23755293E+01 -2.47510585E+01
  0.00000000E+00  1.23755293E+01  1.23755293E+01 -2.47510585E+01  0.00000000E+00
  1.23755293E+01  1.23755293E+01 -2.47510585E+01  0.00000000E+00  1.23755293E+01
  1.23755293E+01 -2.47510585E+01  0.00000000E+00  1.23755293E+01  1.23755293E+01
 -2.47510585E+01  0.00000000E+00  1.23755293E+01  1.23755293E+01 -2.47510585E+01
  0.00000000E+00  1.23755293E+01  1.23755293E+01 -2.47510585E+01  0.00000000E+00
  1.23755293E+01  1.23755293E+01 -2.47510585E+01  0.00000000E+00  1.23755293E+01
  1.23755293E+01 -2.47510585E+01  0.00000000E+00  1.23755293E+01  1.23755293E+01
 -2.47510585E+01  0.00000000E+00  1.23755293E+01  1.23755293E+01 -2.47510585E+01
  0.00000000E+00  1.23755293E+01  1.23755293E+01 -2.47510585E+01  0.00000000E+00
  1.23755293E+01  1.23755293E+01 -2.47510585E+01  0.00000000E+00  1.23755293E+01
  1.23755293E+01 -2.47510585E+01  0.00000000E+00  1.23755293E+01  1.23755293E+01
 -2.47510585E+01  0.00000000E+00  1.23755293E+01  1.23755293E+01 -2.47510585E+01
  0.00000000E+00  1.23755293E+01  1.23755293E+01 -2.47510585E+01  0.00000000E+00
  1.23755293E+01  1.23755293E+01 -2.47510585E+01  0.00000000E+00  1.23755293E+01
  1.23755293E+01 -2.47510585E+01  0.00000000E+00  1.23755293E+01  1.23755293E+01
 -2.47510585E+01  0.00000000E+00  1.23755293E+01  1.23755293E+01 -2.47510585E+01
  0.00000000E+00  1.23755293E+01  1.23755293E+01 -2.47510585E+01  0.00000000E+00
  1.23755293E+01  1.23755293E+01 -2.47510585E+01  0.00000000E+00  1.23755293E+01
  1.23755293E+01 -2.47510585E+01  0.00000000E+00  1.23755293E+01  1.23755293E+01
 -2.47510585E+01  0.00000000E+00  1.23755293E+01  1.23755293E+01 -2.47510585E+01
  0.00000000E+00  1.23755293E+01  1.23755293E+01 -2.47510585E+01  0.00000000E+00
  1.23755293E+01  1.23755293E+01 -2.47510585E+01  0.00000000E+00  1.23755293E+01
  1.23755293E+01 -2.47510585E+01  0.00000000E+00  1.23755293E+01  1.23755293E+01
 -2.47510585E+01  0.00000000E+00  1.23755293E+01  1.23755293E+01 -2.47510585E+01
  0.00000000E+00  1.23755293E+01  1.23755293E+01 -2.47510585E+01  0.00000000E+00
  1.23755293E+01  1.23755293E+01 -2.47510585E+01  0.00000000E+00  1.23755293E+01
  1.23755293E+01 -2.47510585E+01  0.00000000E+00  1.23755293E+01  1.23755293E+01
 -2.47510585E+01  0.00000000E+00  1.23755293E+01  1.23755293E+01 -2.47510585E+01
  0.00000000E+00  1.23755293E+01  1.23755293E+01 -2.47510585E+01  0.00000000E+00
  1.23755293E+01  1.23755293E+01 -2.47510585E+01  0.00000000E+00  1.23755293E+01
  1.23755293E+01 -2.47510585E+01  0.00000000E+00  1.23755293E+01  1.23755293E+01
 -2.47510585E+01  0.00000000E+00  1.23755293E+01  1.23755293E+01 -2.47510585E+01
  0.00000000E+00  1.23755293E+01  1.23755293E+01 -2.47510585E+01  0.00000000E+00
  1.23755293E+01  1.23755293E+01 -2.47510585E+01  0.00000000E+00  1.23755293E+01
  1.23755293E+01 -2.47510585E+01  0.00000000E+00  1.23755293E+01  1.23755293E+01
 -2.47510585E+01  0.00000000E+00  1.23755293E+01  1.23755293E+01 -2.47510585E+01
  0.00000000E+00  1.23755293E+01  1.23755293E+01 -2.47510585E+01  0.00000000E+00
  1.23755293E+01  1.23755293E+01 -2.47510585E+01  0.00000000E+00  1.23755293E+01
  1.23755293E+01 -2.47510585E+01  0.00000000E+00  1.23755293E+01  1.23755293E+01
 -2.47510585E+01  0.00000000E+00  1.23755293E+01  1.23755293E+01 -2.47510585E+01
  0.00000000E+00  1.23755293E+01  1.23755293E+01 -2.47510585E+01  0.00000000E+00
  1.23755293E+01  1.23755293E+01 -2.47510585E+01  0.00000000E+00  1.23755293E+01
  1.23755293E+01 -2.47510585E+01  0.00000000E+00  1.23755293E+01  1.23755293E+01
 -2.47510585E+01  0.00000000E+00  1.23755293E+01  1.23755293E+01 -2.47510585E+01
  0.00000000E+00  1.23755293E+01  1.23755293E+01 -2.47510585E+01  0.00000000E+00
  1.23755293E+01  1.23755293E+01 -2.47510585E+01  0.00000000E+00  1.23755293E+01
  1.23755293E+01 -2.47510585E+01  0.00000000E+00  1.23755293E+01  1.23755293E+01
 -2.47510585E+01  0.00000000E+00  1.23755293E+01  1.23755293E+01 -2.47510585E+01
  0.00000000E+00  1.23755293E+01  1.23755293E+01 -2.47510585E+01  0.00000000E+00
  1.23755293E+01  1.23755293E+01 -2.47510585E+01  0.00000000E+00  1.23755293E+01
  1.23755293E+01 -2.47510585E+01  0.00000000E+00  1.23755293E+01  1.23755293E+01
 -2.47510585E+01  0.00000000E+00  1.23755293E+01  1.23755293E+01 -2.47510585E+01
  0.00000000E+00  1.23755293E+01  1.23755293E+01 -2.47510585E+01  0.00000000E+00
  1.23755293E+01  1.23755293E+01 -2.47510585E+01  0.00000000E+00  1.23755293E+01
  1.23755293E+01 -2.47510585E+01  0.00000000E+00  1.23755293E+01  1.23755293E+01
 -2.47510585E+01  0.00000000E+00  1.23755293E+01  1.23755293E+01 -2.47510585E+01
  0.00000000E+00  1.23755293E+01  1.23755293E+01 -2.47510585E+01  0.00000000E+00
  1.23755293E+01  1.23755293E+01 -2.47510585E+01  0.00000000E+00  1.23755293E+01
  1.23755293E+01 -2.47510585E+01  0.00000000E+00  1.23755293E+01  1.23755293E+01
 -2.47510585E+01  0.00000000E+00  1.23755293E+01  1.23755293E+01 -2.47510585E+01
  0.00000000E+00  1.23755293E+01  1.23755293E+01 -2.47510585E+01  0.00000000E+00
  1.23755293E+01  1.23755293E+01 -2.47510585E+01  0.00000000E+00  1.23755293E+01
  1.23755293E+01 -2.47510585E+01  0.00000000E+00  1.23755293E+01  1.23755293E+01
 -2.47510585E+01  0.00000000E+00  1.23755293E+01  1.23755293E+01 -2.47510585E+01
  0.00000000E+00  1.23755293E+01  1.23755293E+01 -2.47510585E+01  0.00000000E+00
  1.23755293E+01  1.23755293E+01 -2.47510585E+01  0.00000000E+00  1.23755293E+01
  1.23755293E+01 -2.47510585E+01  0.00000000E+00  1.23755293E+01  1.23755293E+01
 -2.47510585E+01  0.00000000E+00  1.23755293E+01  1.23755293E+01 -2.47510585E+01
  0.00000000E+00  1.23755293E+01  1.23755293E+01 -2.47510585E+01  0.00000000E+00
  1.23755293E+01  1.23755293E+01 -2.47510585E+01  0.00000000E+00  1.23755293E+01
  1.23755293E+01 -2.47510585E+01  0.00000000E+00  1.23755293E+01  1.23755293E+01
 -2.47510585E+01  0.00000000E+00  1.23755293E+01  1.23755293E+01 -2.47510585E+01
  0.00000000E+00  1.23755293E+01  1.23755293E+01 -2.47510585E+01  0.00000000E+00
  1.23755293E+01  1.23755293E+01 -2.47510585E+01  0.00000000E+00  1.23755293E+01
  1.23755293E+01 -2.47510585E+01  0.00000000E+00  1.23755293E+01  1.23755293E+01
 -2.47510585E+01  0.00000000E+00  1.23755293E+01  1.23755293E+01 -2.47510585E+01
  0.00000000E+00  1.23755293E+01  1.23755293E+01 -2.47510585E+01  0.00000000E+00
  1.23755293E+01  1.23755293E+01 -2.47510585E+01  0.00000000E+00  1.23755293E+01
  1.23755293E+01 -2.47510585E+01  0.00000000E+00  1.23755293E+01  1.23755293E+01
 -2.47510585E+01  0.00000000E+00  1.23755293E+01  1.23755293E+01 -2.47510585E+01
  0.00000000E+00  1.23755293E+01  1.23755293E+01 -2.47510585E+01  0.00000000E+00
  1.23755293E+01  1.23755293E+01 -2.47510585E+01  0.00000000E+00  1.23755293E+01
  1.23755293E+01 -2.47510585E+01  0.00000000E+00  1.23755293E+01  1.23755293E+01
 -2.47510585E+01  0.00000000E+00  1.23755293E+01  1.23755293E+01 -2.47510585E+01
  0.00000000E+00  1.23755293E+01  1.23755293E+01 -2.47510585E+01  0.00000000E+00
  1.23755293E+01  1.23755293E+01 -2.47510585E+01  0.00000000E+00  1.23755293E+01
  1.23755293E+01 -2.47510585E+01  0.00000000E+00  1.23755293E+01  1.23755293E+01
 -2.47510585E+01  0.00000000E+00  1.23755293E+01  1.23755293E+01 -2.47510585E+01
  0.00000000E+00  1.23755293E+01  1.23755293E+01 -2.47510585E+01  0.00000000E+00
  1.23755293E+01  1.23755293E+01 -2.47510585E+01  0.00000000E+00  1.23755293E+01
  1.23755293E+01 -2.47510585E+01  0.00000000E+00  1.23755293E+01  1.23755293E+01
 -2.47510585E+01  0.00000000E+00  1.23755293E+01  1.23755293E+01 -2.47510585E+01
  0.00000000E+00  1.23755293E+01  1.23755293E+01 -2.47510585E+01  0.00000000E+00
  1.23755293E+01  1.23755293E+01 -2.47510585E+01  0.00000000E+00  1.23755293E+01
  1.23755293E+01 -2.47510585E+01  0.00000000E+00  1.23755293E+01  1.23755293E+01
 -2.47510585E+01  0.00000000E+00  1.23755293E+01  1.23755293E+01 -2.47510585E+01
  0.00000000E+00  1.23755293E+01  1.23755293E+01 -2.47510585E+01  0.00000000E+00
  1.23755293E+01  1.23755293E+01 -2.47510585E+01  0.00000000E+00  1.23755293E+01
  1.23755293E+01 -2.47510585E+01  0.00000000E+00  1.23755293E+01  1.23755293E+01
 -2.47510585E+01  0.00000000E+00  1.23755293E+01  1.23755293E+01 -2.47510585E+01
  0.00000000E+00  1.23755293E+01  1.23755293E+01 -2.47510585E+01  0.00000000E+00
  1.23755293E+01  1.23755293E+01 -2.47510585E+01  0.00000000E+00  1.23755293E+01
  1.23755293E+01 -2.47510585E+01  0.00000000E+00  1.23755293E+01  1.23755293E+01
 -2.47510585E+01  0.00000000E+00  1.23755293E+01  1.23755293E+01 -2.47510585E+01
  0.00000000E+00  1.23755293E+01  1.23755293E+01 -2.47510585E+01  0.00000000E+00
  1.23755293E+01  1.23755293E+01 -2.47510585E+01  0.00000000E+00  1.23755293E+01
  1.23755293E+01 -2.47510585E+01  0.00000000E+00  1.23755293E+01  1.23755293E+01
 -2.47510585E+01  0.00000000E+00  1.23755293E+01  1.23755293E+01 -2.47510585E+01
  0.00000000E+00  1.23755293E+01  1.23755293E+01 -2.47510585E+01  0.00000000E+00
  1.23755293E+01  1.23755293E+01 -2.47510585E+01  0.00000000E+00  1.23755293E+01
  1.23755293E+01 -2.47510585E+01  0.00000000E+00  1.23755293E+01  1.23755293E+01
 -2.47510585E+01  0.00000000E+00  1.23755293E+01  1.23755293E+01 -2.47510585E+01
  0.00000000E+00  1.23755293E+01  1.23755293E+01 -2.47510585E+01  0.00000000E+00
  1.23755293E+01  1.23755293E+01 -2.47510585E+01  0.00000000E+00  1.23755293E+01
  1.23755293E+01 -2.47510585E+01  0.00000000E+00  1.23755293E+01  1.23755293E+01
 -2.47510585E+01  0.00000000E+00  1.23755293E+01  1.23755293E+01 -2.47510585E+01
  0.00000000E+00  1.23755293E+01  1.23755293E+01 -2.47510585E+01  0.00000000E+00
  1.23755293E+01  1.23755293E+01 -2.47510585E+01  0.00000000E+00  1.23755293E+01
  1.23755293E+01 -2.47510585E+01  0.00000000E+00  1.23755293E+01  1.23755293E+01
 -2.47510585E+01  0.00000000E+00  1.23755293E+01  1.23755293E+01 -2.47510585E+01
  0.00000000E+00  1.23755293E+01  1.23755293E+01 -2.47510585E+01  0.00000000E+00
  1.23755293E+01  1.23755293E+01 -2.47510585E+01  0.00000000E+00  1.23755293E+01
  1.23755293E+01 -2.47510585E+01  0.00000000E+00  1.23755293E+01  1.23755293E+01
 -2.47510585E+01  0.00000000E+00  1.23755293E+01  1.23755293E+01 -2.47510585E+01
  0.00000000E+00  1.23755293E+01  1.23755293E+01 -2.47510585E+01  0.00000000E+00
  1.23755293E+01  1.23755293E+01 -2.47510585E+01  0.00000000E+00  1.23755293E+01
  1.23755293E+01 -2.47510585E+01  0.00000000E+00  1.23755293E+01  1.23755293E+01
 -2.47510585E+01  0.00000000E+00  1.23755293E+01  1.23755293E+01 -2.47510585E+01
  0.00000000E+00  1.23755293E+01  1.23755293E+01 -2.47510585E+01  0.00000000E+00
  1.23755293E+01  1.23755293E+01 -2.47510585E+01  0.00000000E+00  1.23755293E+01
  1.23755293E+01 -2.47510585E+01  0.00000000E+00  1.23755293E+01  1.23755293E+01
 -2.47510585E+01  0.00000000E+00  1.23755293E+01  1.23755293E+01 -2.47510585E+01
  0.00000000E+00  1.23755293E+01  1.23755293E+01 -2.47510585E+01  0.00000000E+00
  1.23755293E+01  1.23755293E+01 -2.47510585E+01  0.00000000E+00  1.23755293E+01
  1.23755293E+01 -2.47510585E+01  0.00000000E+00  1.23755293E+01  1.23755293E+01
 -2.47510585E+01  0.00000000E+00  1.23755293E+01  1.23755293E+01 -2.47510585E+01
  0.00000000E+00  1.23755293E+01  1.23755293E+01 -2.47510585E+01  0.00000000E+00
  1.23755293E+01  1.23755293E+01 -2.47510585E+01  0.00000000E+00  1.23755293E+01
  1.23755293E+01 -2.47510585E+01  0.00000000E+00  1.23755293E+01  1.23755293E+01
 -2.47510585E+01  0.00000000E+00  1.23755293E+01  1.23755293E+01 -2.47510585E+01
  0.00000000E+00  1.23755293E+01  1.23755293E+01 -2.47510585E+01  0.00000000E+00
  1.23755293E+01  1.23755293E+01 -2.47510585E+01  0.00000000E+00  1.23755293E+01
  1.23755293E+01 -2.47510585E+01  0.00000000E+00  1.23755293E+01  1.23755293E+01
 -2.47510585E+01  0.00000000E+00  1.23755293E+01  1.23755293E+01 -2.47510585E+01
  0.00000000E+00  1.23755293E+01  1.23755293E+01 -2.47510585E+01  0.00000000E+00
  1.23755293E+01  1.23755293E+01 -2.47510585E+01  0.00000000E+00  1.23755293E+01
  1.23755293E+01 -2.47510585E+01  0.00000000E+00  1.23755293E+01  1.23755293E+01
 -2.47510585E+01  0.00000000E+00  1.23755293E+01  1.23755293E+01 -2.47510585E+01
  0.00000000E+00  1.23755293E+01  1.23755293E+01 -2.47510585E+01  0.00000000E+00
  1.23755293E+01  1.23755293E+01 -2.47510585E+01  0.00000000E+00  1.23755293E+01
  1.23755293E+01 -2.47510585E+01  0.00000000E+00  1.23755293E+01  1.23755293E+01
 -2.47510585E+01  0.00000000E+00  1.23755293E+01  1.23755293E+01 -2.47510585E+01
  0.00000000E+00  1.23755293E+01  1.23755293E+01 -2.47510585E+01  0.00000000E+00
  1.23755293E+01  1.23755293E+01 -2.47510585E+01  0.00000000E+00  1.23755293E+01
  1.23755293E+01 -2.47510585E+01  0.00000000E+00  1.23755293E+01  1.23755293E+01
 -2.47510585E+01  0.00000000E+00  1.23755293E+01  1.23755293E+01 -2.47510585E+01
  0.00000000E+00  1.23755293E+01  1.23755293E+01 -2.47510585E+01  0.00000000E+00
  1.23755293E+01  1.23755293E+01 -2.47510585E+01  0.00000000E+00  1.23755293E+01
  1.23755293E+01 -2.47510585E+01  0.00000000E+00  1.23755293E+01  1.23755293E+01
 -2.47510585E+01  0.00000000E+00  1.23755293E+01  1.23755293E+01 -2.47510585E+01
  0.00000000E+00  1.23755293E+01  1.23755293E+01 -2.47510585E+01  0.00000000E+00
  1.23755293E+01  1.23755293E+01 -2.47510585E+01  0.00000000E+00  1.23755293E+01
  1.23755293E+01 -2.47510585E+01  0.00000000E+00  1.23755293E+01  1.23755293E+01
 -2.47510585E+01  0.00000000E+00  1.23755293E+01  1.23755293E+01 -2.47510585E+01
  0.00000000E+00  1.23755293E+01  1.23755293E+01 -2.47510585E+01  0.00000000E+00
  1.23755293E+01  1.23755293E+01 -2.47510585E+01  0.00000000E+00  1.23755293E+01
  1.23755293E+01 -2.47510585E+01  0.00000000E+00  1.23755293E+01  1.23755293E+01
 -2.47510585E+01  0.00000000E+00  1.23755293E+01  1.23755293E+01 -2.47510585E+01
  0.00000000E+00  1.23755293E+01  1.23755293E+01 -2.47510585E+01  0.00000000E+00
  1.23755293E+01  1.23755293E+01 -2.47510585E+01  0.00000000E+00  1.23755293E+01
  1.23755293E+01 -2.47510585E+01  0.00000000E+00  1.23755293E+01  1.23755293E+01
 -2.47510585E+01  0.00000000E+00  1.23755293E+01  1.23755293E+01 -2.47510585E+01
  0.00000000E+00  1.23755293E+01  1.23755293E+01 -2.47510585E+01  0.00000000E+00
  1.23755293E+01  1.23755293E+01 -2.47510585E+01  0.00000000E+00  1.23755293E+01
  1.23755293E+01 -2.47510585E+01  0.00000000E+00  1.23755293E+01  1.23755293E+01
 -2.47510585E+01  0.00000000E+00  1.23755293E+01  1.23755293E+01 -2.47510585E+01
  0.00000000E+00  1.23755293E+01  1.23755293E+01 -2.47510585E+01  0.00000000E+00
  1.23755293E+01  1.23755293E+01 -2.47510585E+01  0.00000000E+00  1.23755293E+01
  1.23755293E+01 -2.47510585E+01  0.00000000E+00  1.23755293E+01  1.23755293E+01
 -2.47510585E+01  0.00000000E+00  1.23755293E+01  1.23755293E+01 -2.47510585E+01
  0.00000000E+00  1.23755293E+01  1.23755293E+01 -2.47510585E+01  0.00000000E+00
  1.23755293E+01  1.23755293E+01 -2.47510585E+01  0.00000000E+00  1.23755293E+01
  1.23755293E+01 -2.47510585E+01  0.00000000E+00  1.23755293E+01  1.23755293E+01
 -2.47510585E+01  0.00000000E+00  1.23755293E+01  1.23755293E+01 -2.47510585E+01
  0.00000000E+00  1.23755293E+01  1.23755293E+01 -2.47510585E+01  0.00000000E+00
  1.23755293E+01  1.23755293E+01 -2.47510585E+01  0.00000000E+00  1.23755293E+01
  1.23755293E+01 -2.47510585E+01  0.00000000E+00  1.23755293E+01  1.23755293E+01
 -2.47510585E+01  0.00000000E+00  1.23755293E+01  1.23755293E+01 -2.47510585E+01
  0.00000000E+00  1.23755293E+01  1.23755293E+01 -2.47510585E+01  0.00000000E+00
  1.23755293E+01  1.23755293E+01 -2.47510585E+01  0.00000000E+00  1.23755293E+01
  1.23755293E+01 -2.47510585E+01  0.00000000E+00  1.23755293E+01  1.23755293E+01
 -2.47510585E+01  0.00000000E+00  1.23755293E+01  1.23755293E+01 -2.47510585E+01
  0.00000000E+00  1.23755293E+01  1.23755293E+01 -2.47510585E+01  0.00000000E+00
  1.23755293E+01  1.23755293E+01 -2.47510585E+01  0.00000000E+00  1.23755293E+01
  1.23755293E+01 -2.47510585E+01  0.00000000E+00  1.23755293E+01  1.23755293E+01
 -2.47510585E+01  0.00000000E+00  1.23755293E+01  1.23755293E+01 -2.47510585E+01
  0.00000000E+00  1.23755293E+01  1.23755293E+01 -2.47510585E+01  0.00000000E+00
  1.23755293E+01  1.23755293E+01 -2.47510585E+01  0.00000000E+00  1.23755293E+01
  1.23755293E+01 -2.47510585E+01  0.00000000E+00  1.23755293E+01  1.23755293E+01
 -2.47510585E+01  0.00000000E+00  1.23755293E+01  1.23755293E+01 -2.47510585E+01
  0.00000000E+00  1.23755293E+01  1.23755293E+01 -2.47510585E+01  0.00000000E+00
  1.23755293E+01  1.23755293E+01 -2.47510585E+01  0.00000000E+00  1.23755293E+01
  1.23755293E+01 -2.47510585E+01  0.00000000E+00  1.23755293E+01  1.23755293E+01
 -2.47510585E+01  0.00000000E+00  1.23755293E+01  1.23755293E+01 -2.47510585E+01
  0.00000000E+00  1.23755293E+01  1.23755293E+01 -2.47510585E+01  0.00000000E+00
  1.23755293E+01  1.23755293E+01 -2.47510585E+01  0.00000000E+00  1.23755293E+01
  1.23755293E+01 -2.47510585E+01  0.00000000E+00  1.23755293E+01  1.23755293E+01
 -2.47510585E+01  0.00000000E+00  1.23755293E+01  1.23755293E+01 -2.47510585E+01
  0.00000000E+00  1.23755293E+01  1.23755293E+01 -2.47510585E+01  0.00000000E+00
  1.23755293E+01  1.23755293E+01 -2.47510585E+01  0.00000000E+00  1.23755293E+01
  1.23755293E+01 -2.47510585E+01  0.00000000E+00  1.23755293E+01  1.23755293E+01
 -2.47510585E+01  0.00000000E+00  1.23755293E+01  1.23755293E+01 -2.47510585E+01
  0.00000000E+00  1.23755293E+01  1.23755293E+01 -2.47510585E+01  0.00000000E+00
  1.23755293E+01  1.23755293E+01 -2.47510585E+01  0.00000000E+00  1.23755293E+01
  1.23755293E+01 -2.47510585E+01  0.00000000E+00  1.23755293E+01  1.23755293E+01
 -2.47510585E+01  0.00000000E+00  1.23755293E+01  1.23755293E+01 -2.47510585E+01
  0.00000000E+00  1.23755293E+01  1.23755293E+01 -2.47510585E+01  0.00000000E+00
  1.23755293E+01  1.23755293E+01 -2.47510585E+01  0.00000000E+00  1.23755293E+01
  1.23755293E+01 -2.47510585E+01  0.00000000E+00  1.23755293E+01  1.23755293E+01
 -2.47510585E+01  0.00000000E+00  1.23755293E+01  1.23755293E+01 -2.47510585E+01
  0.00000000E+00  1.23755293E+01  1.23755293E+01 -2.47510585E+01  0.00000000E+00
  1.23755293E+01  1.23755293E+01 -2.47510585E+01  0.00000000E+00  1.23755293E+01
  1.23755293E+01 -2.47510585E+01  0.00000000E+00  1.23755293E+01  1.23755293E+01
 -2.47510585E+01  0.00000000E+00  1.23755293E+01  1.23755293E+01 -2.47510585E+01
  0.00000000E+00  1.23755293E+01  1.23755293E+01 -2.47510585E+01  0.00000000E+00
  1.23755293E+01  1.23755293E+01 -2.47510585E+01  0.00000000E+00  1.23755293E+01
  1.23755293E+01 -2.47510585E+01  0.00000000E+00  1.23755293E+01  1.23755293E+01
 -2.47510585E+01  0.00000000E+00  1.23755293E+01  1.23755293E+01 -2.47510585E+01
  0.00000000E+00  1.23755293E+01  1.23755293E+01 -2.47510585E+01  0.00000000E+00
  1.23755293E+01  1.23755293E+01 -2.47510585E+01  0.00000000E+00  1.23755293E+01
  1.23755293E+01 -2.47510585E+01  0.00000000E+00  1.23755293E+01  1.23755293E+01
 -2.47510585E+01  0.00000000E+00  1.23755293E+01  1.23755293E+01 -2.47510585E+01
  0.00000000E+00  1.23755293E+01  1.23755293E+01 -2.47510585E+01  0.00000000E+00
  1.23755293E+01  1.23755293E+01 -2.47510585E+01  0.00000000E+00  1.23755293E+01
  1.23755293E+01 -2.47510585E+01  0.00000000E+00  1.23755293E+01  1.23755293E+01
 -2.47510585E+01  0.00000000E+00  1.23755293E+01  1.23755293E+01 -2.47510585E+01
  0.00000000E+00  1.23755293E+01  1.23755293E+01 -2.47510585E+01  0.00000000E+00
  1.23755293E+01  1.23755293E+01 -2.47510585E+01  0.00000000E+00  1.23755293E+01
  1.23755293E+01 -2.47510585E+01  0.00000000E+00  1.23755293E+01  1.23755293E+01
 -2.47510585E+01  0.00000000E+00  1.23755293E+01  1.23755293E+01 -2.47510585E+01
  0.00000000E+00  1.23755293E+01  1.23755293E+01 -2.47510585E+01  0.00000000E+00
  1.23755293E+01  1.23755293E+01 -2.47510585E+01  0.00000000E+00  1.23755293E+01
  1.23755293E+01 -2.47510585E+01  0.00000000E+00  1.23755293E+01  1.23755293E+01
 -2.47510585E+01  0.00000000E+00  1.23755293E+01  1.23755293E+01 -2.47510585E+01
  0.00000000E+00  1.23755293E+01  1.23755293E+01 -2.47510585E+01  0.00000000E+00
  1.23755293E+01  1.23755293E+01 -2.47510585E+01  0.00000000E+00  1.23755293E+01
  1.23755293E+01 -2.47510585E+01  0.00000000E+00  1.23755293E+01  1.23755293E+01
 -2.47510585E+01  0.00000000E+00  1.23755293E+01  1.23755293E+01 -2.47510585E+01
  0.00000000E+00  1.23755293E+01  1.23755293E+01 -2.47510585E+01  0.00000000E+00
  1.23755293E+01  1.23755293E+01 -2.47510585E+01  0.00000000E+00  1.23755293E+01
  1.23755293E+01 -2.47510585E+01  0.00000000E+00  1.23755293E+01  1.23755293E+01
 -2.47510585E+01  0.00000000E+00  1.23755293E+01  1.23755293E+01 -2.47510585E+01
  0.00000000E+00  1.23755293E+01  1.23755293E+01 -2.47510585E+01  0.00000000E+00
  1.23755293E+01  1.23755293E+01 -2.47510585E+01  0.00000000E+00  1.23755293E+01
  1.23755293E+01 -2.47510585E+01  0.00000000E+00  1.23755293E+01  1.23755293E+01
 -2.47510585E+01  0.00000000E+00  1.23755293E+01  1.23755293E+01 -2.47510585E+01
  0.00000000E+00  1.23755293E+01  1.23755293E+01 -2.47510585E+01  0.00000000E+00
  1.23755293E+01  1.23755293E+01 -2.47510585E+01  0.00000000E+00  1.23755293E+01
  1.23755293E+01 -2.47510585E+01  0.00000000E+00  1.23755293E+01  1.23755293E+01
 -2.47510585E+01  0.00000000E+00  1.23755293E+01  1.23755293E+01 -2.47510585E+01
  0.00000000E+00  1.23755293E+01  1.23755293E+01 -2.47510585E+01  0.00000000E+00
  1.23755293E+01  1.23755293E+01 -2.47510585E+01  0.00000000E+00  1.23755293E+01
  1.23755293E+01 -2.47510585E+01  0.00000000E+00  1.23755293E+01  1.23755293E+01
 -2.47510585E+01  0.00000000E+00  1.23755293E+01  1.23755293E+01 -2.47510585E+01
  0.00000000E+00  1.23755293E+01  1.23755293E+01 -2.47510585E+01  0.00000000E+00
  1.23755293E+01  1.23755293E+01 -2.47510585E+01  0.00000000E+00  1.23755293E+01
  1.23755293E+01 -2.47510585E+01  0.00000000E+00  1.23755293E+01  1.23755293E+01
 -2.47510585E+01  0.00000000E+00  1.23755293E+01  1.23755293E+01 -2.47510585E+01
  0.00000000E+00  1.23755293E+01  1.23755293E+01 -2.47510585E+01  0.00000000E+00
  1.23755293E+01  1.23755293E+01 -2.47510585E+01  0.00000000E+00  1.23755293E+01
  1.23755293E+01 -2.47510585E+01  0.00000000E+00  1.23755293E+01  1.23755293E+01
 -2.47510585E+01  0.00000000E+00  1.23755293E+01  1.23755293E+01 -2.47510585E+01
  0.00000000E+00  1.23755293E+01  1.23755293E+01 -2.47510585E+01  0.00000000E+00
  1.23755293E+01  1.23755293E+01 -2.47510585E+01  0.00000000E+00  1.23755293E+01
  1.23755293E+01 -2.47510585E+01  0.00000000E+00  1.23755293E+01  1.23755293E+01
 -2.47510585E+01  0.00000000E+00  1.23755293E+01  1.23755293E+01 -2.47510585E+01
  0.00000000E+00  1.23755293E+01  1.23755293E+01 -2.47510585E+01  0.00000000E+00
  1.23755293E+01  1.23755293E+01 -2.47510585E+01  0.00000000E+00  1.23755293E+01
  1.23755293E+01 -2.47510585E+01  0.00000000E+00  1.23755293E+01  1.23755293E+01
 -2.47510585E+01  0.00000000E+00  1.23755293E+01  1.23755293E+01 -2.47510585E+01
  0.00000000E+00  1.23755293E+01  1.23755293E+01 -2.47510585E+01  0.00000000E+00
  1.23755293E+01  1.23755293E+01 -2.47510585E+01  0.00000000E+00  1.23755293E+01
  1.23755293E+01 -2.47510585E+01  0.00000000E+00  1.23755293E+01  1.23755293E+01
 -2.47510585E+01  0.00000000E+00  1.23755293E+01  1.23755293E+01 -2.47510585E+01
  0.00000000E+00  1.23755293E+01  1.23755293E+01 -2.47510585E+01  0.00000000E+00
  1.23755293E+01  1.23755293E+01 -2.47510585E+01  0.00000000E+00  1.23755293E+01
  1.23755293E+01 -2.47510585E+01  0.00000000E+00  1.23755293E+01  1.23755293E+01
 -2.47510585E+01  0.00000000E+00  1.23755293E+01  1.23755293E+01 -2.47510585E+01
  0.00000000E+00  1.23755293E+01  1.23755293E+01 -2.47510585E+01  0.00000000E+00
  1.23755293E+01  1.23755293E+01 -2.47510585E+01  0.00000000E+00  1.23755293E+01
  1.23755293E+01 -2.47510585E+01  0.00000000E+00  1.23755293E+01  1.23755293E+01
 -2.47510585E+01  0.00000000E+00  1.23755293E+01  1.23755293E+01 -2.47510585E+01
  0.00000000E+00  1.23755293E+01  1.23755293E+01 -2.47510585E+01  0.00000000E+00
  1.23755293E+01  1.23755293E+01 -2.47510585E+01  0.00000000E+00  1.23755293E+01
  1.23755293E+01 -2.47510585E+01  0.00000000E+00  1.23755293E+01  1.23755293E+01
 -2.47510585E+01  0.00000000E+00  1.23755293E+01  1.23755293E+01 -2.47510585E+01
  0.00000000E+00  1.23755293E+01  1.23755293E+01 -2.47510585E+01  0.00000000E+00
  1.23755293E+01  1.23755293E+01 -2.47510585E+01  0.00000000E+00  1.23755293E+01
  1.23755293E+01 -2.47510585E+01  0.00000000E+00  1.23755293E+01  1.23755293E+01
 -2.47510585E+01  0.00000000E+00  1.23755293E+01  1.23755293E+01 -2.47510585E+01
  0.00000000E+00  1.23755293E+01  1.23755293E+01 -2.47510585E+01  0.00000000E+00
  1.23755293E+01  1.23755293E+01 -2.47510585E+01  0.00000000E+00  1.23755293E+01
  1.23755293E+01 -2.47510585E+01  0.00000000E+00  1.23755293E+01  1.23755293E+01
 -2.47510585E+01  0.00000000E+00  1.23755293E+01  1.23755293E+01 -2.47510585E+01
  0.00000000E+00  1.23755293E+01  1.23755293E+01 -2.47510585E+01  0.00000000E+00
  1.23755293E+01  1.23755293E+01 -2.47510585E+01  0.00000000E+00  1.23755293E+01
  1.23755293E+01 -2.47510585E+01  0.00000000E+00  1.23755293E+01  1.23755293E+01
 -2.47510585E+01  0.00000000E+00  1.23755293E+01  1.23755293E+01 -2.47510585E+01
  0.00000000E+00  1.23755293E+01  1.23755293E+01 -2.47510585E+01  0.00000000E+00
  1.23755293E+01  1.23755293E+01 -2.47510585E+01  0.00000000E+00  1.23755293E+01
  1.23755293E+01 -2.47510585E+01  0.00000000E+00  1.23755293E+01  1.23755293E+01
 -2.47510585E+01  0.00000000E+00  1.23755293E+01  1.23755293E+01 -2.47510585E+01
  0.00000000E+00  1.23755293E+01  1.23755293E+01 -2.47510585E+01  0.00000000E+00
  1.23755293E+01  1.23755293E+01 -2.47510585E+01  0.00000000E+00  1.23755293E+01
  1.23755293E+01 -2.47510585E+01  0.00000000E+00  1.23755293E+01  1.23755293E+01
 -2.47510585E+01  0.00000000E+00  1.23755293E+01  1.23755293E+01 -2.47510585E+01
  0.00000000E+00  1.23755293E+01  1.23755293E+01 -2.47510585E+01  0.00000000E+00
  1.23755293E+01  1.23755293E+01 -2.47510585E+01  0.00000000E+00  1.23755293E+01
  1.23755293E+01 -2.47510585E+01  0.00000000E+00  1.23755293E+01  1.23755293E+01
 -2.47510585E+01  0.00000000E+00  1.23755293E+01  1.23755293E+01 -2.47510585E+01
  0.00000000E+00  1.23755293E+01  1.23755293E+01 -2.47510585E+01  0.00000000E+00
  1.23755293E+01  1.23755293E+01 -2.47510585E+01  0.00000000E+00  1.23755293E+01
  1.23755293E+01 -2.47510585E+01  0.00000000E+00  1.23755293E+01  1.23755293E+01
 -2.47510585E+01  0.00000000E+00  1.23755293E+01  1.23755293E+01 -2.47510585E+01
  0.00000000E+00  1.23755293E+01  1.23755293E+01 -2.47510585E+01  0.00000000E+00
  1.23755293E+01  1.23755293E+01 -2.47510585E+01  0.00000000E+00  1.23755293E+01
  1.23755293E+01 -2.47510585E+01  0.00000000E+00  1.23755293E+01  1.23755293E+01
 -2.47510585E+01  0.00000000E+00  1.23755293E+01  1.23755293E+01 -2.47510585E+01
  0.00000000E+00  1.23755293E+01  1.23755293E+01 -2.47510585E+01  0.00000000E+00
  1.23755293E+01  1.23755293E+01 -2.47510585E+01  0.00000000E+00  1.23755293E+01
  1.23755293E+01 -2.47510585E+01  0.00000000E+00  1.23755293E+01  1.23755293E+01
 -2.47510585E+01  0.00000000E+00  1.23755293E+01  1.23755293E+01 -2.47510585E+01
  0.00000000E+00  1.23755293E+01  1.23755293E+01 -2.47510585E+01  0.00000000E+00
  1.23755293E+01  1.23755293E+01 -2.47510585E+01  0.00000000E+00  1.23755293E+01
  1.23755293E+01 -2.47510585E+01  0.00000000E+00  1.23755293E+01  1.23755293E+01
 -2.47510585E+01  0.00000000E+00  1.23755293E+01  1.23755293E+01 -2.47510585E+01
  0.00000000E+00  1.23755293E+01  1.23755293E+01 -2.47510585E+01  0.00000000E+00
  1.23755293E+01  1.23755293E+01 -2.47510585E+01  0.00000000E+00  1.23755293E+01
  1.23755293E+01 -2.47510585E+01  0.00000000E+00  1.23755293E+01  1.23755293E+01
 -2.47510585E+01  0.00000000E+00  1.23755293E+01  1.23755293E+01 -2.47510585E+01
  0.00000000E+00  1.23755293E+01  1.23755293E+01 -2.47510585E+01  0.00000000E+00
  1.23755293E+01  1.23755293E+01 -2.47510585E+01  0.00000000E+00  1.23755293E+01
  1.23755293E+01 -2.47510585E+01  0.00000000E+00  1.23755293E+01  1.23755293E+01
 -2.47510585E+01  0.00000000E+00  1.23755293E+01  1.23755293E+01 -2.47510585E+01
  0.00000000E+00  1.23755293E+01  1.23755293E+01 -2.47510585E+01  0.00000000E+00
  1.23755293E+01  1.23755293E+01 -2.47510585E+01  0.00000000E+00  1.23755293E+01
  1.23755293E+01 -2.47510585E+01  0.00000000E+00  1.23755293E+01  1.23755293E+01
 -2.47510585E+01  0.00000000E+00  1.23755293E+01  1.23755293E+01 -2.47510585E+01
  0.00000000E+00  1.23755293E+01  1.23755293E+01 -2.47510585E+01  0.00000000E+00
  1.23755293E+01  1.23755293E+01 -2.47510585E+01  0.00000000E+00  1.23755293E+01
  1.23755293E+01 -2.47510585E+01  0.00000000E+00  1.23755293E+01  1.23755293E+01
 -2.47510585E+01  0.00000000E+00  1.23755293E+01  1.23755293E+01 -2.47510585E+01
  0.00000000E+00  1.23755293E+01  1.23755293E+01 -2.47510585E+01  0.00000000E+00
  1.23755293E+01  1.23755293E+01 -2.47510585E+01  0.00000000E+00  1.23755293E+01
  1.23755293E+01 -2.47510585E+01  0.00000000E+00  1.23755293E+01  1.23755293E+01
 -2.47510585E+01  0.00000000E+00  1.23755293E+01  1.23755293E+01 -2.47510585E+01
  0.00000000E+00  1.23755293E+01  1.23755293E+01 -2.47510585E+01  0.00000000E+00
  1.23755293E+01  1.23755293E+01 -2.47510585E+01  0.00000000E+00  1.23755293E+01
  1.23755293E+01 -2.47510585E+01  0.00000000E+00  1.23755293E+01  1.23755293E+01
 -2.47510585E+01  0.00000000E+00  1.23755293E+01  1.23755293E+01 -2.47510585E+01
  0.00000000E+00  1.23755293E+01  1.23755293E+01 -2.47510585E+01  0.00000000E+00
  1.23755293E+01  1.23755293E+01 -2.47510585E+01  0.00000000E+00  1.23755293E+01
  1.23755293E+01 -2.47510585E+01  0.00000000E+00  1.23755293E+01  1.23755293E+01
 -2.47510585E+01  0.00000000E+00  1.23755293E+01  1.23755293E+01 -2.47510585E+01
  0.00000000E+00  1.23755293E+01  1.23755293E+01 -2.47510585E+01  0.00000000E+00
  1.23755293E+01  1.23755293E+01 -2.47510585E+01  0.00000000E+00  1.23755293E+01
  1.23755293E+01 -2.47510585E+01  0.00000000E+00  1.23755293E+01  1.23755293E+01
 -2.47510585E+01  0.00000000E+00  1.23755293E+01  1.23755293E+01 -2.47510585E+01
  0.00000000E+00  1.23755293E+01  1.23755293E+01 -2.47510585E+01  0.00000000E+00
  1.23755293E+01  1.23755293E+01 -2.47510585E+01  0.00000000E+00  1.23755293E+01
  1.23755293E+01 -2.47510585E+01  0.00000000E+00  1.23755293E+01  1.23755293E+01
 -2.47510585E+01  0.00000000E+00  1.23755293E+01  1.23755293E+01 -2.47510585E+01
  0.00000000E+00  1.23755293E+01  1.23755293E+01 -2.47510585E+01  0.00000000E+00
  1.23755293E+01  1.23755293E+01 -2.47510585E+01  0.00000000E+00  1.23755293E+01
  1.23755293E+01 -2.47510585E+01  0.00000000E+00  1.23755293E+01  1.23755293E+01
 -2.47510585E+01  0.00000000E+00  1.23755293E+01  1.23755293E+01 -2.47510585E+01
  0.00000000E+00  1.23755293E+01  1.23755293E+01 -2.47510585E+01  0.00000000E+00
  1.23755293E+01  1.23755293E+01 -2.47510585E+01  0.00000000E+00  1.23755293E+01
  1.23755293E+01 -2.47510585E+01  0.00000000E+00  1.23755293E+01  1.23755293E+01
 -2.47510585E+01  0.00000000E+00  1.23755293E+01  1.23755293E+01 -2.47510585E+01
  0.00000000E+00  1.23755293E+01  1.23755293E+01 -2.47510585E+01  0.00000000E+00
  1.23755293E+01  1.23755293E+01 -2.47510585E+01  0.00000000E+00  1.23755293E+01
  1.23755293E+01 -2.47510585E+01  0.00000000E+00  1.23755293E+01  1.23755293E+01
 -2.47510585E+01  0.00000000E+00  1.23755293E+01  1.23755293E+01 -2.47510585E+01
  0.00000000E+00  1.23755293E+01  1.23755293E+01 -2.47510585E+01  0.00000000E+00
  1.23755293E+01  1.23755293E+01 -2.47510585E+01  0.00000000E+00  1.23755293E+01
  1.23755293E+01 -2.47510585E+01  0.00000000E+00  1.23755293E+01  1.23755293E+01
 -2.47510585E+01  0.00000000E+00  1.23755293E+01  1.23755293E+01 -2.47510585E+01
  0.00000000E+00  1.23755293E+01  1.23755293E+01 -2.47510585E+01  0.00000000E+00
  1.23755293E+01  1.23755293E+01 -2.47510585E+01  0.00000000E+00  1.23755293E+01
  1.23755293E+01 -2.47510585E+01  0.00000000E+00  1.23755293E+01  1.23755293E+01
 -2.47510585E+01  0.00000000E+00  1.23755293E+01  1.23755293E+01 -2.47510585E+01
  0.00000000E+00  1.23755293E+01  1.23755293E+01 -2.47510585E+01  0.00000000E+00
  1.23755293E+01  1.23755293E+01 -2.47510585E+01  0.00000000E+00  1.23755293E+01
  1.23755293E+01 -2.47510585E+01  0.00000000E+00  1.23755293E+01  1.23755293E+01
 -2.47510585E+01  0.00000000E+00  1.23755293E+01  1.23755293E+01 -2.47510585E+01
  0.00000000E+00  1.23755293E+01  1.23755293E+01 -2.47510585E+01  0.00000000E+00
  1.23755293E+01  1.23755293E+01 -2.47510585E+01  0.00000000E+00  1.23755293E+01
  1.23755293E+01 -2.47510585E+01  0.00000000E+00  1.23755293E+01  1.23755293E+01
 -2.47510585E+01  0.00000000E+00  1.23755293E+01  1.23755293E+01 -2.47510585E+01
  0.00000000E+00  1.23755293E+01  1.23755293E+01 -2.47510585E+01  0.00000000E+00
  1.23755293E+01  1.23755293E+01 -2.47510585E+01  0.00000000E+00  1.23755293E+01
  1.23755293E+01 -2.47510585E+01  0.00000000E+00  1.23755293E+01  1.23755293E+01
 -2.47510585E+01  0.00000000E+00  1.23755293E+01  1.23755293E+01 -2.47510585E+01
  0.00000000E+00  1.23755293E+01  1.23755293E+01 -2.47510585E+01  0.00000000E+00
  1.23755293E+01  1.23755293E+01 -2.47510585E+01  0.00000000E+00  1.23755293E+01
  1.23755293E+01 -2.47510585E+01  0.00000000E+00  1.23755293E+01  1.23755293E+01
 -2.47510585E+01  0.00000000E+00  1.23755293E+01  1.23755293E+01 -2.47510585E+01
  0.00000000E+00  1.23755293E+01  1.23755293E+01 -2.47510585E+01  0.00000000E+00
  1.23755293E+01  1.23755293E+01 -2.47510585E+01  0.00000000E+00  1.23755293E+01
  1.23755293E+01 -2.47510585E+01  0.00000000E+00  1.23755293E+01  1.23755293E+01
 -2.47510585E+01  0.00000000E+00  1.23755293E+01  1.23755293E+01 -2.47510585E+01
  0.00000000E+00  1.23755293E+01  1.23755293E+01 -2.47510585E+01  0.00000000E+00
  1.23755293E+01  1.23755293E+01 -2.47510585E+01  0.00000000E+00  1.23755293E+01
  1.23755293E+01 -2.47510585E+01  0.00000000E+00  1.23755293E+01  1.23755293E+01
 -2.47510585E+01  0.00000000E+00  1.23755293E+01  1.23755293E+01 -2.47510585E+01
  0.00000000E+00  1.23755293E+01  1.23755293E+01 -2.47510585E+01  0.00000000E+00
  1.23755293E+01  1.23755293E+01 -2.47510585E+01  0.00000000E+00  1.23755293E+01
  1.23755293E+01 -2.47510585E+01  0.00000000E+00  1.23755293E+01  1.23755293E+01
 -2.47510585E+01  0.00000000E+00  1.23755293E+01  1.23755293E+01 -2.47510585E+01
  0.00000000E+00  1.23755293E+01  1.23755293E+01 -2.47510585E+01  0.00000000E+00
  1.23755293E+01  1.23755293E+01 -2.47510585E+01  0.00000000E+00  1.23755293E+01
  1.23755293E+01 -2.47510585E+01  0.00000000E+00  1.23755293E+01  1.23755293E+01
 -2.47510585E+01  0.00000000E+00  1.23755293E+01  1.23755293E+01 -2.47510585E+01
  0.00000000E+00  1.23755293E+01  1.23755293E+01 -2.47510585E+01  0.00000000E+00
  1.23755293E+01  1.23755293E+01 -2.47510585E+01  0.00000000E+00  1.23755293E+01
  1.23755293E+01 -2.47510585E+01  0.00000000E+00  1.23755293E+01  1.23755293E+01
 -2.47510585E+01  0.00000000E+00  1.23755293E+01  1.23755293E+01 -2.47510585E+01
  0.00000000E+00  1.23755293E+01  1.23755293E+01 -2.47510585E+01  0.00000000E+00
  1.23755293E+01  1.23755293E+01 -2.47510585E+01  0.00000000E+00  1.23755293E+01
  1.23755293E+01 -2.47510585E+01  0.00000000E+00  1.23755293E+01  1.23755293E+01
 -2.47510585E+01  0.00000000E+00  1.23755293E+01  1.23755293E+01 -2.47510585E+01
  0.00000000E+00  1.23755293E+01  1.23755293E+01 -2.47510585E+01  0.00000000E+00
  1.23755293E+01  1.23755293E+01 -2.47510585E+01  0.00000000E+00  1.23755293E+01
  1.23755293E+01 -2.47510585E+01  0.00000000E+00  1.23755293E+01  1.23755293E+01
 -2.47510585E+01  0.00000000E+00  1.23755293E+01  1.23755293E+01 -2.47510585E+01
  0.00000000E+00  1.23755293E+01  1.23755293E+01 -2.47510585E+01  0.00000000E+00
  1.23755293E+01  1.23755293E+01 -2.47510585E+01  0.00000000E+00  1.23755293E+01
  1.23755293E+01 -2.47510585E+01  0.00000000E+00  1.23755293E+01  1.23755293E+01
 -2.47510585E+01  0.00000000E+00  1.23755293E+01  1.23755293E+01 -2.47510585E+01
  0.00000000E+00  1.23755293E+01  1.23755293E+01 -2.47510585E+01  0.00000000E+00
  1.23755293E+01  1.23755293E+01 -2.47510585E+01  0.00000000E+00  1.23755293E+01
  1.23755293E+01 -2.47510585E+01  0.00000000E+00  1.23755293E+01  1.23755293E+01
 -2.47510585E+01  0.00000000E+00  1.23755293E+01  1.23755293E+01 -2.47510585E+01
  0.00000000E+00  1.23755293E+01  1.23755293E+01 -2.47510585E+01  0.00000000E+00
  1.23755293E+01  1.23755293E+01 -2.47510585E+01  0.00000000E+00  1.23755293E+01
  1.23755293E+01 -2.47510585E+01  0.00000000E+00  1.23755293E+01  1.23755293E+01
 -2.47510585E+01  0.00000000E+00  1.23755293E+01  1.23755293E+01 -2.47510585E+01
  0.00000000E+00  1.23755293E+01  1.23755293E+01 -2.47510585E+01  0.00000000E+00
  1.23755293E+01  1.23755293E+01 -2.47510585E+01  0.00000000E+00  1.23755293E+01
  1.23755293E+01 -2.47510585E+01  0.00000000E+00  1.23755293E+01  1.23755293E+01
 -2.47510585E+01  0.00000000E+00  1.23755293E+01  1.23755293E+01 -2.47510585E+01
  0.00000000E+00  1.23755293E+01  1.23755293E+01 -2.47510585E+01  0.00000000E+00
  1.23755293E+01  1.23755293E+01 -2.47510585E+01  0.00000000E+00  1.23755293E+01
  1.23755293E+01 -2.47510585E+01  0.00000000E+00  1.23755293E+01  1.23755293E+01
 -2.47510585E+01  0.00000000E+00  1.23755293E+01  1.23755293E+01 -2.47510585E+01
  0.00000000E+00  1.23755293E+01  1.23755293E+01 -2.47510585E+01  0.00000000E+00
  1.23755293E+01  1.23755293E+01 -2.47510585E+01  0.00000000E+00  1.23755293E+01
  1.23755293E+01 -2.47510585E+01  0.00000000E+00  1.23755293E+01  1.23755293E+01
 -2.47510585E+01  0.00000000E+00  1.23755293E+01  1.23755293E+01 -2.47510585E+01
  0.00000000E+00  1.23755293E+01  1.23755293E+01 -2.47510585E+01  0.00000000E+00
  1.23755293E+01  1.23755293E+01 -2.47510585E+01  0.00000000E+00  1.23755293E+01
  1.23755293E+01 -2.47510585E+01  0.00000000E+00  1.23755293E+01  1.23755293E+01
 -2.47510585E+01  0.00000000E+00  1.23755293E+01  1.23755293E+01 -2.47510585E+01
  0.00000000E+00  1.23755293E+01  1.23755293E+01 -2.47510585E+01  0.00000000E+00
  1.23755293E+01  1.23755293E+01 -2.47510585E+01  0.00000000E+00  1.23755293E+01
  1.23755293E+01 -2.47510585E+01  0.00000000E+00  1.23755293E+01  1.23755293E+01
 -2.47510585E+01  0.00000000E+00  1.23755293E+01  1.23755293E+01 -2.47510585E+01
  0.00000000E+00  1.23755293E+01  1.23755293E+01 -2.47510585E+01  0.00000000E+00
  1.23755293E+01  1.23755293E+01 -2.47510585E+01  0.00000000E+00  1.23755293E+01
  1.23755293E+01 -2.47510585E+01  0.00000000E+00  1.23755293E+01  1.23755293E+01
 -2.47510585E+01  0.00000000E+00  1.23755293E+01  1.23755293E+01 -2.47510585E+01
  0.00000000E+00  1.23755293E+01  1.23755293E+01 -2.47510585E+01  0.00000000E+00
  1.23755293E+01  1.23755293E+01 -2.47510585E+01  0.00000000E+00  1.23755293E+01
  1.23755293E+01 -2.47510585E+01  0.00000000E+00  1.23755293E+01  1.23755293E+01
 -2.47510585E+01  0.00000000E+00  1.23755293E+01  1.23755293E+01 -2.47510585E+01
  0.00000000E+00  1.23755293E+01  1.23755293E+01 -2.47510585E+01  0.00000000E+00
  1.23755293E+01  1.23755293E+01 -2.47510585E+01  0.00000000E+00  1.23755293E+01
  1.23755293E+01 -2.47510585E+01  0.00000000E+00  1.23755293E+01  1.23755293E+01
 -2.47510585E+01  0.00000000E+00  1.23755293E+01  1.23755293E+01 -2.47510585E+01
  0.00000000E+00  1.23755293E+01  1.23755293E+01 -2.47510585E+01  0.00000000E+00
  1.23755293E+01  1.23755293E+01 -2.47510585E+01  0.00000000E+00  1.23755293E+01
  1.23755293E+01 -2.47510585E+01  0.00000000E+00  1.23755293E+01  1.23755293E+01
 -2.47510585E+01  0.00000000E+00  1.23755293E+01  1.23755293E+01 -2.47510585E+01
  0.00000000E+00  1.23755293E+01  1.23755293E+01 -2.47510585E+01  0.00000000E+00
  1.23755293E+01  1.23755293E+01 -2.47510585E+01  0.00000000E+00  1.23755293E+01
  1.23755293E+01 -2.47510585E+01  0.00000000E+00  1.23755293E+01  1.23755293E+01
 -2.47510585E+01  0.00000000E+00  1.23755293E+01  1.23755293E+01 -2.47510585E+01
  0.00000000E+00  1.23755293E+01  1.23755293E+01 -2.47510585E+01  0.00000000E+00
  1.23755293E+01  1.23755293E+01 -2.47510585E+01  0.00000000E+00  1.23755293E+01
  1.23755293E+01 -2.47510585E+01  0.00000000E+00  1.23755293E+01  1.23755293E+01
 -2.47510585E+01  0.00000000E+00  1.23755293E+01  1.23755293E+01 -2.47510585E+01
  0.00000000E+00  1.23755293E+01  1.23755293E+01 -2.47510585E+01  0.00000000E+00
  1.23755293E+01  1.23755293E+01 -2.47510585E+01  0.00000000E+00  1.23755293E+01
  1.23755293E+01 -2.47510585E+01  0.00000000E+00  1.23755293E+01  1.23755293E+01
 -2.47510585E+01  0.00000000E+00  1.23755293E+01  1.23755293E+01 -2.47510585E+01
  0.00000000E+00  1.23755293E+01  1.23755293E+01 -2.47510585E+01  0.00000000E+00
  1.23755293E+01  1.23755293E+01 -2.47510585E+01  0.00000000E+00  1.23755293E+01
  1.23755293E+01 -2.47510585E+01  0.00000000E+00  1.23755293E+01  1.23755293E+01
 -2.47510585E+01  0.00000000E+00  1.23755293E+01  1.23755293E+01 -2.47510585E+01
  0.00000000E+00  1.23755293E+01  1.23755293E+01 -2.47510585E+01  0.00000000E+00
  1.23755293E+01  1.23755293E+01 -2.47510585E+01  0.00000000E+00  1.23755293E+01
  1.23755293E+01 -2.47510585E+01  0.00000000E+00  1.23755293E+01  1.23755293E+01
 -2.47510585E+01  0.00000000E+00  1.23755293E+01  1.23755293E+01 -2.47510585E+01
  0.00000000E+00  1.23755293E+01  1.23755293E+01 -2.47510585E+01  0.00000000E+00
  1.23755293E+01  1.23755293E+01 -2.47510585E+01  0.00000000E+00  1.23755293E+01
  1.23755293E+01 -2.47510585E+01  0.00000000E+00  1.23755293E+01  1.23755293E+01
 -2.47510585E+01  0.00000000E+00  1.23755293E+01  1.23755293E+01 -2.47510585E+01
  0.00000000E+00  1.23755293E+01  1.23755293E+01 -2.47510585E+01  0.00000000E+00
  1.23755293E+01  1.23755293E+01 -2.47510585E+01  0.00000000E+00  1.23755293E+01
  1.23755293E+01 -2.47510585E+01  0.00000000E+00  1.23755293E+01  1.23755293E+01
 -2.47510585E+01  0.00000000E+00  1.23755293E+01  1.23755293E+01 -2.47510585E+01
  0.00000000E+00  1.23755293E+01  1.23755293E+01 -2.47510585E+01  0.00000000E+00
  1.23755293E+01  1.23755293E+01 -2.47510585E+01  0.00000000E+00  1.23755293E+01
  1.23755293E+01 -2.47510585E+01  0.00000000E+00  1.23755293E+01  1.23755293E+01
 -2.47510585E+01  0.00000000E+00  1.23755293E+01  1.23755293E+01 -2.47510585E+01
  0.00000000E+00  1.23755293E+01  1.23755293E+01 -2.47510585E+01  0.00000000E+00
  1.23755293E+01  1.23755293E+01 -2.47510585E+01  0.00000000E+00  1.23755293E+01
  1.23755293E+01 -2.47510585E+01  0.00000000E+00  1.23755293E+01  1.23755293E+01
 -2.47510585E+01  0.00000000E+00  1.23755293E+01  1.23755293E+01 -2.47510585E+01
  0.00000000E+00  1.23755293E+01  1.23755293E+01 -2.47510585E+01  0.00000000E+00
  1.23755293E+01  1.23755293E+01 -2.47510585E+01  0.00000000E+00  1.23755293E+01
  1.23755293E+01 -2.47510585E+01  0.00000000E+00  1.23755293E+01  1.23755293E+01
 -2.47510585E+01  0.00000000E+00  1.23755293E+01  1.23755293E+01 -2.47510585E+01
  0.00000000E+00  1.23755293E+01  1.23755293E+01 -2.47510585E+01  0.00000000E+00
  1.23755293E+01  1.23755293E+01 -2.47510585E+01  0.00000000E+00  1.23755293E+01
  1.23755293E+01 -2.47510585E+01  0.00000000E+00  1.23755293E+01  1.23755293E+01
 -2.47510585E+01  0.00000000E+00  1.23755293E+01  1.23755293E+01 -2.47510585E+01
  0.00000000E+00  1.23755293E+01  1.23755293E+01 -2.47510585E+01  0.00000000E+00
  1.23755293E+01  1.23755293E+01 -2.47510585E+01  0.00000000E+00  1.23755293E+01
  1.23755293E+01 -2.47510585E+01  0.00000000E+00  1.23755293E+01  1.23755293E+01
 -2.47510585E+01  0.00000000E+00  1.23755293E+01  1.23755293E+01 -2.47510585E+01
  0.00000000E+00  1.23755293E+01  1.23755293E+01 -2.47510585E+01  0.00000000E+00
  1.23755293E+01  1.23755293E+01 -2.47510585E+01  0.00000000E+00  1.23755293E+01
  1.23755293E+01 -2.47510585E+01  0.00000000E+00  1.23755293E+01  1.23755293E+01
 -2.47510585E+01  0.00000000E+00  1.23755293E+01  1.23755293E+01 -2.47510585E+01
  0.00000000E+00  1.23755293E+01  1.23755293E+01 -2.47510585E+01  0.00000000E+00
  1.23755293E+01  1.23755293E+01 -2.47510585E+01  0.00000000E+00  1.23755293E+01
  1.23755293E+01 -2.47510585E+01  0.00000000E+00  1.23755293E+01  1.23755293E+01
 -2.47510585E+01  0.00000000E+00  1.23755293E+01  1.23755293E+01 -2.47510585E+01
  0.00000000E+00  1.23755293E+01  1.23755293E+01 -2.47510585E+01  0.00000000E+00
  1.23755293E+01  1.23755293E+01 -2.47510585E+01  0.00000000E+00  1.23755293E+01
  1.23755293E+01 -2.47510585E+01  0.00000000E+00  1.23755293E+01  1.23755293E+01
 -2.47510585E+01  0.00000000E+00  1.23755293E+01  1.23755293E+01 -2.47510585E+01
  0.00000000E+00  1.23755293E+01  1.23755293E+01 -2.47510585E+01  0.00000000E+00
  1.23755293E+01  1.23755293E+01 -2.47510585E+01  0.00000000E+00  1.23755293E+01
  1.23755293E+01 -2.47510585E+01  0.00000000E+00  1.23755293E+01  1.23755293E+01
 -2.47510585E+01  0.00000000E+00  1.23755293E+01  1.23755293E+01 -2.47510585E+01
  0.00000000E+00  1.23755293E+01  1.23755293E+01 -2.47510585E+01  0.00000000E+00
  1.23755293E+01  1.23755293E+01 -2.47510585E+01  0.00000000E+00  1.23755293E+01
  1.23755293E+01 -2.47510585E+01  0.00000000E+00  1.23755293E+01  1.23755293E+01
 -2.47510585E+01  0.00000000E+00  1.23755293E+01  1.23755293E+01 -2.47510585E+01
  0.00000000E+00  1.23755293E+01  1.23755293E+01 -2.47510585E+01  0.00000000E+00
  1.23755293E+01  1.23755293E+01 -2.47510585E+01  0.00000000E+00  1.23755293E+01
  1.23755293E+01 -2.47510585E+01  0.00000000E+00  1.23755293E+01  1.23755293E+01
 -2.47510585E+01  0.00000000E+00  1.23755293E+01  1.23755293E+01 -2.47510585E+01
  0.00000000E+00  1.23755293E+01  1.23755293E+01 -2.47510585E+01  0.00000000E+00
  1.23755293E+01  1.23755293E+01 -2.47510585E+01  0.00000000E+00  1.23755293E+01
  1.23755293E+01 -2.47510585E+01  0.00000000E+00  1.23755293E+01  1.23755293E+01
 -2.47510585E+01  0.00000000E+00  1.23755293E+01  1.23755293E+01 -2.47510585E+01
  0.00000000E+00  1.23755293E+01  1.23755293E+01 -2.47510585E+01  0.00000000E+00
  1.23755293E+01  1.23755293E+01 -2.47510585E+01  0.00000000E+00  1.23755293E+01
  1.23755293E+01 -2.47510585E+01  0.00000000E+00  1.23755293E+01  1.23755293E+01
 -2.47510585E+01  0.00000000E+00  1.23755293E+01  1.23755293E+01 -2.47510585E+01
  0.00000000E+00  1.23755293E+01  1.23755293E+01 -2.47510585E+01  0.00000000E+00
  1.23755293E+01  1.23755293E+01 -2.47510585E+01  0.00000000E+00  1.23755293E+01
  1.23755293E+01 -2.47510585E+01  0.00000000E+00  1.23755293E+01  1.23755293E+01
 -2.47510585E+01  0.00000000E+00  1.23755293E+01  1.23755293E+01 -2.47510585E+01
  0.00000000E+00  1.23755293E+01  1.23755293E+01 -2.47510585E+01  0.00000000E+00
  1.23755293E+01  1.23755293E+01 -2.47510585E+01  0.00000000E+00  1.23755293E+01
  1.23755293E+01 -2.47510585E+01  0.00000000E+00  1.23755293E+01  1.23755293E+01
 -2.47510585E+01  0.00000000E+00  1.23755293E+01  1.23755293E+01 -2.47510585E+01
  0.00000000E+00  1.23755293E+01  1.23755293E+01 -2.47510585E+01  0.00000000E+00
  1.23755293E+01  1.23755293E+01 -2.47510585E+01  0.00000000E+00  1.23755293E+01
  1.23755293E+01 -2.47510585E+01  0.00000000E+00  1.23755293E+01  1.23755293E+01
 -2.47510585E+01  0.00000000E+00  1.23755293E+01  1.23755293E+01 -2.47510585E+01
  0.00000000E+00  1.23755293E+01  1.23755293E+01 -2.47510585E+01  0.00000000E+00
  1.23755293E+01  1.23755293E+01 -2.47510585E+01  0.00000000E+00  1.23755293E+01
  1.23755293E+01 -2.47510585E+01  0.00000000E+00  1.23755293E+01  1.23755293E+01
 -2.47510585E+01  0.00000000E+00  1.23755293E+01  1.23755293E+01 -2.47510585E+01
  0.00000000E+00  1.23755293E+01  1.23755293E+01 -2.47510585E+01  0.00000000E+00
  1.23755293E+01  1.23755293E+01 -2.47510585E+01  0.00000000E+00  1.23755293E+01
  1.23755293E+01 -2.47510585E+01  0.00000000E+00  1.23755293E+01  1.23755293E+01
 -2.47510585E+01  0.00000000E+00  1.23755293E+01  1.23755293E+01 -2.47510585E+01
  0.00000000E+00  1.23755293E+01  1.23755293E+01 -2.47510585E+01  0.00000000E+00
  1.23755293E+01  1.23755293E+01 -2.47510585E+01  0.00000000E+00  1.23755293E+01
  1.23755293E+01 -2.47510585E+01  0.00000000E+00  1.23755293E+01  1.23755293E+01
 -2.47510585E+01  0.00000000E+00  1.23755293E+01  1.23755293E+01 -2.47510585E+01
  0.00000000E+00  1.23755293E+01  1.23755293E+01 -2.47510585E+01  0.00000000E+00
  1.23755293E+01  1.23755293E+01 -2.47510585E+01  0.00000000E+00  1.23755293E+01
  1.23755293E+01 -2.47510585E+01  0.00000000E+00  1.23755293E+01  1.23755293E+01
 -2.47510585E+01  0.00000000E+00  1.23755293E+01  1.23755293E+01 -2.47510585E+01
  0.00000000E+00  1.23755293E+01  1.23755293E+01 -2.47510585E+01  0.00000000E+00
  1.23755293E+01  1.23755293E+01 -2.47510585E+01  0.00000000E+00  1.23755293E+01
  1.23755293E+01 -2.47510585E+01  0.00000000E+00  1.23755293E+01  1.23755293E+01
 -2.47510585E+01  0.00000000E+00  1.23755293E+01  1.23755293E+01 -2.47510585E+01
  0.00000000E+00  1.23755293E+01  1.23755293E+01 -2.47510585E+01  0.00000000E+00
  1.23755293E+01  1.23755293E+01 -2.47510585E+01  0.00000000E+00  1.23755293E+01
  1.23755293E+01 -2.47510585E+01  0.00000000E+00  1.23755293E+01  1.23755293E+01
 -2.47510585E+01  0.00000000E+00  1.23755293E+01  1.23755293E+01 -2.47510585E+01
  0.00000000E+00  1.23755293E+01  1.23755293E+01 -2.47510585E+01  0.00000000E+00
  1.23755293E+01  1.23755293E+01 -2.47510585E+01  0.00000000E+00  1.23755293E+01
  1.23755293E+01 -2.47510585E+01  0.00000000E+00  1.23755293E+01  1.23755293E+01
 -2.47510585E+01  0.00000000E+00  1.23755293E+01  1.23755293E+01 -2.47510585E+01
  0.00000000E+00  1.23755293E+01  1.23755293E+01 -2.47510585E+01  0.00000000E+00
  1.23755293E+01  1.23755293E+01 -2.47510585E+01  0.00000000E+00  1.23755293E+01
  1.23755293E+01 -2.47510585E+01  0.00000000E+00  1.23755293E+01  1.23755293E+01
 -2.47510585E+01  0.00000000E+00  1.23755293E+01  1.23755293E+01 -2.47510585E+01
  0.00000000E+00  1.23755293E+01  1.23755293E+01 -2.47510585E+01  0.00000000E+00
  1.23755293E+01  1.23755293E+01 -2.47510585E+01  0.00000000E+00  1.23755293E+01
  1.23755293E+01 -2.47510585E+01  0.00000000E+00  1.23755293E+01  1.23755293E+01
 -2.47510585E+01  0.00000000E+00  1.23755293E+01  1.23755293E+01 -2.47510585E+01
  0.00000000E+00  1.23755293E+01  1.23755293E+01 -2.47510585E+01  0.00000000E+00
  1.23755293E+01  1.23755293E+01 -2.47510585E+01  0.00000000E+00  1.23755293E+01
  1.23755293E+01 -2.47510585E+01  0.00000000E+00  1.23755293E+01  1.23755293E+01
 -2.47510585E+01  0.00000000E+00  1.23755293E+01  1.23755293E+01 -2.47510585E+01
  0.00000000E+00  1.23755293E+01  1.23755293E+01 -2.47510585E+01  0.00000000E+00
  1.23755293E+01  1.23755293E+01 -2.47510585E+01  0.00000000E+00  1.23755293E+01
  1.23755293E+01 -2.47510585E+01  0.00000000E+00  1.23755293E+01  1.23755293E+01
 -2.47510585E+01  0.00000000E+00  1.23755293E+01  1.23755293E+01 -2.47510585E+01
  0.00000000E+00  1.23755293E+01  1.23755293E+01 -2.47510585E+01  0.00000000E+00
  1.23755293E+01  1.23755293E+01 -2.47510585E+01  0.00000000E+00  1.23755293E+01
  1.23755293E+01 -2.47510585E+01  0.00000000E+00  1.23755293E+01  1.23755293E+01
 -2.47510585E+01  0.00000000E+00  1.23755293E+01  1.23755293E+01 -2.47510585E+01
  0.00000000E+00  1.23755293E+01  1.23755293E+01 -2.47510585E+01  0.00000000E+00
  1.23755293E+01  1.23755293E+01 -2.47510585E+01  0.00000000E+00  1.23755293E+01
  1.23755293E+01 -2.47510585E+01  0.00000000E+00  1.23755293E+01  1.23755293E+01
 -2.47510585E+01  0.00000000E+00  1.23755293E+01  1.23755293E+01 -2.47510585E+01
  0.00000000E+00  1.23755293E+01  1.23755293E+01 -2.47510585E+01  0.00000000E+00
  1.23755293E+01  1.23755293E+01 -2.47510585E+01  0.00000000E+00  1.23755293E+01
  1.23755293E+01 -2.47510585E+01  0.00000000E+00  1.23755293E+01  1.23755293E+01
 -2.47510585E+01  0.00000000E+00  1.23755293E+01  1.23755293E+01 -2.47510585E+01
  0.00000000E+00  1.23755293E+01  1.23755293E+01 -2.47510585E+01  0.00000000E+00
  1.23755293E+01  1.23755293E+01 -2.47510585E+01  0.00000000E+00  1.23755293E+01
  1.23755293E+01 -2.47510585E+01  0.00000000E+00  1.23755293E+01  1.23755293E+01
 -2.47510585E+01  0.00000000E+00  1.23755293E+01  1.23755293E+01 -2.47510585E+01
  0.00000000E+00  1.23755293E+01  1.23755293E+01 -2.47510585E+01  0.00000000E+00
  1.23755293E+01  1.23755293E+01 -2.47510585E+01  0.00000000E+00  1.23755293E+01
  1.23755293E+01 -2.47510585E+01  0.00000000E+00  1.23755293E+01  1.23755293E+01
 -2.47510585E+01  0.00000000E+00  1.23755293E+01  1.23755293E+01 -2.47510585E+01
  0.00000000E+00  1.23755293E+01  1.23755293E+01 -2.47510585E+01  0.00000000E+00
  1.23755293E+01  1.23755293E+01 -2.47510585E+01  0.00000000E+00  1.23755293E+01
  1.23755293E+01 -2.47510585E+01  0.00000000E+00  1.23755293E+01  1.23755293E+01
 -2.47510585E+01  0.00000000E+00  1.23755293E+01  1.23755293E+01 -2.47510585E+01
  0.00000000E+00  1.23755293E+01  1.23755293E+01 -2.47510585E+01  0.00000000E+00
  1.23755293E+01  1.23755293E+01 -2.47510585E+01  0.00000000E+00  1.23755293E+01
  1.23755293E+01 -2.47510585E+01  0.00000000E+00  1.23755293E+01  1.23755293E+01
 -2.47510585E+01  0.00000000E+00  1.23755293E+01  1.23755293E+01 -2.47510585E+01
  0.00000000E+00  1.23755293E+01  1.23755293E+01 -2.47510585E+01  0.00000000E+00
  1.23755293E+01  1.23755293E+01 -2.47510585E+01  0.00000000E+00  1.23755293E+01
  1.23755293E+01 -2.47510585E+01  0.00000000E+00  1.23755293E+01  1.23755293E+01
 -2.47510585E+01  0.00000000E+00  1.23755293E+01  1.23755293E+01 -2.47510585E+01
  0.00000000E+00  1.23755293E+01  1.23755293E+01 -2.47510585E+01  0.00000000E+00
  1.23755293E+01  1.23755293E+01 -2.47510585E+01  0.00000000E+00  1.23755293E+01
  1.23755293E+01 -2.47510585E+01  0.00000000E+00  1.23755293E+01  1.23755293E+01
 -2.47510585E+01  0.00000000E+00  1.23755293E+01  1.23755293E+01 -2.47510585E+01
  0.00000000E+00  1.23755293E+01  1.23755293E+01 -2.47510585E+01  0.00000000E+00
  1.23755293E+01  1.23755293E+01 -2.47510585E+01  0.00000000E+00  1.23755293E+01
  1.23755293E+01 -2.47510585E+01  0.00000000E+00  1.23755293E+01  1.23755293E+01
 -2.47510585E+01  0.00000000E+00  1.23755293E+01  1.23755293E+01 -2.47510585E+01
  0.00000000E+00  1.23755293E+01  1.23755293E+01 -2.47510585E+01  0.00000000E+00
  1.23755293E+01  1.23755293E+01 -2.47510585E+01  0.00000000E+00  1.23755293E+01
  1.23755293E+01 -2.47510585E+01  0.00000000E+00  1.23755293E+01  1.23755293E+01
 -2.47510585E+01  0.00000000E+00  1.23755293E+01  1.23755293E+01 -2.47510585E+01
  0.00000000E+00  1.23755293E+01  1.23755293E+01 -2.47510585E+01  0.00000000E+00
  1.23755293E+01  1.23755293E+01 -2.47510585E+01  0.00000000E+00  1.23755293E+01
  1.23755293E+01 -2.47510585E+01  0.00000000E+00  1.23755293E+01  1.23755293E+01
 -2.47510585E+01  0.00000000E+00  1.23755293E+01  1.23755293E+01 -2.47510585E+01
  0.00000000E+00  1.23755293E+01  1.23755293E+01 -2.47510585E+01  0.00000000E+00
  1.23755293E+01  1.23755293E+01 -2.47510585E+01  0.00000000E+00  1.23755293E+01
  1.23755293E+01 -2.47510585E+01  0.00000000E+00  1.23755293E+01  1.23755293E+01
 -2.47510585E+01  0.00000000E+00  1.23755293E+01  1.23755293E+01 -2.47510585E+01
  0.00000000E+00  1.23755293E+01  1.23755293E+01 -2.47510585E+01  0.00000000E+00
  1.23755293E+01  1.23755293E+01 -2.47510585E+01  0.00000000E+00  1.23755293E+01
  1.23755293E+01 -2.47510585E+01  0.00000000E+00  1.23755293E+01  1.23755293E+01
 -2.47510585E+01  0.00000000E+00  1.23755293E+01  1.23755293E+01 -2.47510585E+01
  0.00000000E+00  1.23755293E+01  1.23755293E+01 -2.47510585E+01  0.00000000E+00
  1.23755293E+01  1.23755293E+01 -2.47510585E+01  0.00000000E+00  1.23755293E+01
  1.23755293E+01 -2.47510585E+01  0.00000000E+00  1.23755293E+01  1.23755293E+01
 -2.47510585E+01  0.00000000E+00  1.23755293E+01  1.23755293E+01 -2.47510585E+01
  0.00000000E+00  1.23755293E+01  1.23755293E+01 -2.47510585E+01  0.00000000E+00
  1.23755293E+01  1.23755293E+01 -2.47510585E+01  0.00000000E+00  1.23755293E+01
  1.23755293E+01 -2.47510585E+01  0.00000000E+00  1.23755293E+01  1.23755293E+01
 -2.47510585E+01  0.00000000E+00  1.23755293E+01  1.23755293E+01 -2.47510585E+01
  0.00000000E+00  1.23755293E+01  1.23755293E+01 -2.47510585E+01  0.00000000E+00
  1.23755293E+01  1.23755293E+01 -2.47510585E+01  0.00000000E+00  1.23755293E+01
  1.23755293E+01 -2.47510585E+01  0.00000000E+00  1.23755293E+01  1.23755293E+01
 -2.47510585E+01  0.00000000E+00  1.23755293E+01  1.23755293E+01 -2.47510585E+01
  0.00000000E+00  1.23755293E+01  1.23755293E+01 -2.47510585E+01  0.00000000E+00
  1.23755293E+01  1.23755293E+01 -2.47510585E+01  0.00000000E+00  1.23755293E+01
  1.23755293E+01 -2.47510585E+01  0.00000000E+00  1.23755293E+01  1.23755293E+01
 -2.47510585E+01  0.00000000E+00  1.23755293E+01  1.23755293E+01 -2.47510585E+01
  0.00000000E+00  1.23755293E+01  1.23755293E+01 -2.47510585E+01  0.00000000E+00
  1.23755293E+01  1.23755293E+01 -2.47510585E+01  0.00000000E+00  1.23755293E+01
  1.23755293E+01 -2.47510585E+01  0.00000000E+00  1.23755293E+01  1.23755293E+01
 -2.47510585E+01  0.00000000E+00  1.23755293E+01  1.23755293E+01 -2.47510585E+01
  0.00000000E+00  1.23755293E+01  1.23755293E+01 -2.47510585E+01  0.00000000E+00
  1.23755293E+01  1.23755293E+01 -2.47510585E+01  0.00000000E+00  1.23755293E+01
  1.23755293E+01 -2.47510585E+01  0.00000000E+00  1.23755293E+01  1.23755293E+01
 -2.47510585E+01  0.00000000E+00  1.23755293E+01  1.23755293E+01 -2.47510585E+01
  0.00000000E+00  1.23755293E+01  1.23755293E+01 -2.47510585E+01  0.00000000E+00
  1.23755293E+01  1.23755293E+01 -2.47510585E+01  0.00000000E+00  1.23755293E+01
  1.23755293E+01 -2.47510585E+01  0.00000000E+00  1.23755293E+01  1.23755293E+01
 -2.47510585E+01  0.00000000E+00  1.23755293E+01  1.23755293E+01 -2.47510585E+01
  0.00000000E+00  1.23755293E+01  1.23755293E+01 -2.47510585E+01  0.00000000E+00
  1.23755293E+01  1.23755293E+01 -2.47510585E+01  0.00000000E+00  1.23755293E+01
  1.23755293E+01 -2.47510585E+01  0.00000000E+00  1.23755293E+01  1.23755293E+01
 -2.47510585E+01  0.00000000E+00  1.23755293E+01  1.23755293E+01 -2.47510585E+01
  0.00000000E+00  1.23755293E+01  1.23755293E+01 -2.47510585E+01  0.00000000E+00
  1.23755293E+01  1.23755293E+01 -2.47510585E+01  0.00000000E+00  1.23755293E+01
  1.23755293E+01 -2.47510585E+01  0.00000000E+00  1.23755293E+01  1.23755293E+01
 -2.47510585E+01  0.00000000E+00  1.23755293E+01  1.23755293E+01 -2.47510585E+01
  0.00000000E+00  1.23755293E+01  1.23755293E+01 -2.47510585E+01  0.00000000E+00
  1.23755293E+01  1.23755293E+01 -2.47510585E+01  0.00000000E+00  1.23755293E+01
  1.23755293E+01 -2.47510585E+01  0.00000000E+00  1.23755293E+01  1.23755293E+01
 -2.47510585E+01  0.00000000E+00  1.23755293E+01  1.23755293E+01 -2.47510585E+01
  0.00000000E+00  1.23755293E+01  1.23755293E+01 -2.47510585E+01  0.00000000E+00
  1.23755293E+01  1.23755293E+01 -2.47510585E+01  0.00000000E+00  1.23755293E+01
  1.23755293E+01 -2.47510585E+01  0.00000000E+00  1.23755293E+01  1.23755293E+01
 -2.47510585E+01  0.00000000E+00  1.23755293E+01  1.23755293E+01 -2.47510585E+01
  0.00000000E+00  1.23755293E+01  1.23755293E+01 -2.47510585E+01  0.00000000E+00
  1.23755293E+01  1.23755293E+01 -2.47510585E+01  0.00000000E+00  1.23755293E+01
  1.23755293E+01 -2.47510585E+01  0.00000000E+00  1.23755293E+01  1.23755293E+01
 -2.47510585E+01  0.00000000E+00  1.23755293E+01  1.23755293E+01 -2.47510585E+01
  0.00000000E+00  1.23755293E+01  1.23755293E+01 -2.47510585E+01  0.00000000E+00
  1.23755293E+01  1.23755293E+01 -2.47510585E+01  0.00000000E+00  1.23755293E+01
  1.23755293E+01 -2.47510585E+01  0.00000000E+00  1.23755293E+01  1.23755293E+01
 -2.47510585E+01  0.00000000E+00  1.23755293E+01  1.23755293E+01 -2.47510585E+01
  0.00000000E+00  1.23755293E+01  1.23755293E+01 -2.47510585E+01  0.00000000E+00
  1.23755293E+01  1.23755293E+01 -2.47510585E+01  0.00000000E+00  1.23755293E+01
  1.23755293E+01 -2.47510585E+01  0.00000000E+00  1.23755293E+01  1.23755293E+01
 -2.47510585E+01  0.00000000E+00  1.23755293E+01  1.23755293E+01 -2.47510585E+01
  0.00000000E+00  1.23755293E+01  1.23755293E+01 -2.47510585E+01  0.00000000E+00
  1.23755293E+01  1.23755293E+01 -2.47510585E+01  0.00000000E+00  1.23755293E+01
  1.23755293E+01 -2.47510585E+01  0.00000000E+00  1.23755293E+01  1.23755293E+01
 -2.47510585E+01  0.00000000E+00  1.23755293E+01  1.23755293E+01 -2.47510585E+01
  0.00000000E+00  1.23755293E+01  1.23755293E+01 -2.47510585E+01  0.00000000E+00
  1.23755293E+01  1.23755293E+01 -2.47510585E+01  0.00000000E+00  1.23755293E+01
  1.23755293E+01 -2.47510585E+01  0.00000000E+00  1.23755293E+01  1.23755293E+01
 -2.47510585E+01  0.00000000E+00  1.23755293E+01  1.23755293E+01 -2.47510585E+01
  0.00000000E+00  1.23755293E+01  1.23755293E+01 -2.47510585E+01  0.00000000E+00
  1.23755293E+01  1.23755293E+01 -2.47510585E+01  0.00000000E+00  1.23755293E+01
  1.23755293E+01 -2.47510585E+01  0.00000000E+00  1.23755293E+01  1.23755293E+01
 -2.47510585E+01  0.00000000E+00  1.23755293E+01  1.23755293E+01 -2.47510585E+01
  0.00000000E+00  1.23755293E+01  1.23755293E+01 -2.47510585E+01  0.00000000E+00
  1.23755293E+01  1.23755293E+01 -2.47510585E+01  0.00000000E+00  1.23755293E+01
  1.23755293E+01 -2.47510585E+01  0.00000000E+00  1.23755293E+01  1.23755293E+01
 -2.47510585E+01  0.00000000E+00  1.23755293E+01  1.23755293E+01 -2.47510585E+01
  0.00000000E+00  1.23755293E+01  1.23755293E+01 -2.47510585E+01  0.00000000E+00
  1.23755293E+01  1.23755293E+01 -2.47510585E+01  0.00000000E+00  1.23755293E+01
  1.23755293E+01 -2.47510585E+01  0.00000000E+00  1.23755293E+01  1.23755293E+01
 -2.47510585E+01  0.00000000E+00  1.23755293E+01  1.23755293E+01 -2.47510585E+01
  0.00000000E+00  1.23755293E+01  1.23755293E+01 -2.47510585E+01  0.00000000E+00
  1.23755293E+01  1.23755293E+01 -2.47510585E+01  0.00000000E+00  1.23755293E+01
  1.23755293E+01 -2.47510585E+01  0.00000000E+00  1.23755293E+01  1.23755293E+01
 -2.47510585E+01  0.00000000E+00  1.23755293E+01  1.23755293E+01 -2.47510585E+01
  0.00000000E+00  1.23755293E+01  1.23755293E+01 -2.47510585E+01  0.00000000E+00
  1.23755293E+01  1.23755293E+01 -2.47510585E+01  0.00000000E+00  1.23755293E+01
  1.23755293E+01 -2.47510585E+01  0.00000000E+00  1.23755293E+01  1.23755293E+01
 -2.47510585E+01  0.00000000E+00  1.23755293E+01  1.23755293E+01 -2.47510585E+01
  0.00000000E+00  1.23755293E+01  1.23755293E+01 -2.47510585E+01  0.00000000E+00
  1.23755293E+01  1.23755293E+01 -2.47510585E+01  0.00000000E+00  1.23755293E+01
  1.23755293E+01 -2.47510585E+01  0.00000000E+00  1.23755293E+01  1.23755293E+01
 -2.47510585E+01  0.00000000E+00  1.23755293E+01  1.23755293E+01 -2.47510585E+01
  0.00000000E+00  1.23755293E+01  1.23755293E+01 -2.47510585E+01  0.00000000E+00
  1.23755293E+01  1.23755293E+01 -2.47510585E+01  0.00000000E+00  1.23755293E+01
  1.23755293E+01 -2.47510585E+01  0.00000000E+00  1.23755293E+01  1.23755293E+01
 -2.47510585E+01  0.00000000E+00  1.23755293E+01  1.23755293E+01 -2.47510585E+01
  0.00000000E+00  1.23755293E+01  1.23755293E+01 -2.47510585E+01  0.00000000E+00
  1.23755293E+01  1.23755293E+01 -2.47510585E+01  0.00000000E+00  1.23755293E+01
  1.23755293E+01 -2.47510585E+01  0.00000000E+00  1.23755293E+01  1.23755293E+01
 -2.47510585E+01  0.00000000E+00  1.23755293E+01  1.23755293E+01 -2.47510585E+01
  0.00000000E+00  1.23755293E+01  1.23755293E+01 -2.47510585E+01  0.00000000E+00
  1.23755293E+01  1.23755293E+01 -2.47510585E+01  0.00000000E+00  1.23755293E+01
  1.23755293E+01 -2.47510585E+01  0.00000000E+00  1.23755293E+01  1.23755293E+01
 -2.47510585E+01  0.00000000E+00  1.23755293E+01  1.23755293E+01 -2.47510585E+01
  0.00000000E+00  1.23755293E+01  1.23755293E+01 -2.47510585E+01  0.00000000E+00
  1.23755293E+01  1.23755293E+01 -2.47510585E+01  0.00000000E+00  1.23755293E+01
  1.23755293E+01 -2.47510585E+01  0.00000000E+00  1.23755293E+01  1.23755293E+01
 -2.47510585E+01  0.00000000E+00  1.23755293E+01  1.23755293E+01 -2.47510585E+01
  0.00000000E+00  1.23755293E+01  1.23755293E+01 -2.47510585E+01  0.00000000E+00
  1.23755293E+01  1.23755293E+01 -2.47510585E+01  0.00000000E+00  1.23755293E+01
  1.23755293E+01 -2.47510585E+01  0.00000000E+00  1.23755293E+01  1.23755293E+01
 -2.47510585E+01  0.00000000E+00  1.23755293E+01  1.23755293E+01 -2.47510585E+01
  0.00000000E+00  1.23755293E+01  1.23755293E+01 -2.47510585E+01  0.00000000E+00
  1.23755293E+01  1.23755293E+01 -2.47510585E+01  0.00000000E+00  1.23755293E+01
  1.23755293E+01 -2.47510585E+01  0.00000000E+00  1.23755293E+01  1.23755293E+01
 -2.47510585E+01  0.00000000E+00  1.23755293E+01  1.23755293E+01 -2.47510585E+01
  0.00000000E+00  1.23755293E+01  1.23755293E+01 -2.47510585E+01  0.00000000E+00
  1.23755293E+01  1.23755293E+01 -2.47510585E+01  0.00000000E+00  1.23755293E+01
  1.23755293E+01 -2.47510585E+01  0.00000000E+00  1.23755293E+01  1.23755293E+01
 -2.47510585E+01  0.00000000E+00  1.23755293E+01  1.23755293E+01 -2.47510585E+01
  0.00000000E+00  1.23755293E+01  1.23755293E+01 -2.47510585E+01  0.00000000E+00
  1.23755293E+01  1.23755293E+01 -2.47510585E+01  0.00000000E+00  1.23755293E+01
  1.23755293E+01 -2.47510585E+01  0.00000000E+00  1.23755293E+01  1.23755293E+01
 -2.47510585E+01  0.00000000E+00  1.23755293E+01  1.23755293E+01 -2.47510585E+01
  0.00000000E+00  1.23755293E+01  1.23755293E+01 -2.47510585E+01  0.00000000E+00
  1.23755293E+01  1.23755293E+01 -2.47510585E+01  0.00000000E+00  1.23755293E+01
  1.23755293E+01 -2.47510585E+01  0.00000000E+00  1.23755293E+01  1.23755293E+01
 -2.47510585E+01  0.00000000E+00  1.23755293E+01  1.23755293E+01 -2.47510585E+01
  0.00000000E+00  1.23755293E+01  1.23755293E+01 -2.47510585E+01  0.00000000E+00
  1.23755293E+01  1.23755293E+01 -2.47510585E+01  0.00000000E+00  1.23755293E+01
  1.23755293E+01 -2.47510585E+01  0.00000000E+00  1.23755293E+01  1.23755293E+01
 -2.47510585E+01  0.00000000E+00  1.23755293E+01  1.23755293E+01 -2.47510585E+01
  0.00000000E+00  1.23755293E+01  1.23755293E+01 -2.47510585E+01  0.00000000E+00
  1.23755293E+01  1.23755293E+01 -2.47510585E+01  0.00000000E+00  1.23755293E+01
  1.23755293E+01 -2.47510585E+01  0.00000000E+00  1.23755293E+01  1.23755293E+01
 -2.47510585E+01  0.00000000E+00  1.23755293E+01  1.23755293E+01 -2.47510585E+01
  0.00000000E+00  1.23755293E+01  1.23755293E+01 -2.47510585E+01  0.00000000E+00
  1.23755293E+01  1.23755293E+01 -2.47510585E+01  0.00000000E+00  1.23755293E+01
  1.23755293E+01 -2.47510585E+01  0.00000000E+00  1.23755293E+01  1.23755293E+01
 -2.47510585E+01  0.00000000E+00  1.23755293E+01  1.23755293E+01 -2.47510585E+01
  0.00000000E+00  1.23755293E+01  1.23755293E+01 -2.47510585E+01  0.00000000E+00
  1.23755293E+01  1.23755293E+01 -2.47510585E+01  0.00000000E+00  1.23755293E+01
  1.23755293E+01 -2.47510585E+01  0.00000000E+00  1.23755293E+01  1.23755293E+01
 -2.47510585E+01  0.00000000E+00  1.23755293E+01  1.23755293E+01 -2.47510585E+01
  0.00000000E+00  1.23755293E+01  1.23755293E+01 -2.47510585E+01  0.00000000E+00
  1.23755293E+01  1.23755293E+01 -2.47510585E+01  0.00000000E+00  1.23755293E+01
  1.23755293E+01 -2.47510585E+01  0.00000000E+00  1.23755293E+01  1.23755293E+01
 -2.47510585E+01  0.00000000E+00  1.23755293E+01  1.23755293E+01 -2.47510585E+01
  0.00000000E+00  1.23755293E+01  1.23755293E+01 -2.47510585E+01  0.00000000E+00
  1.23755293E+01  1.23755293E+01 -2.47510585E+01  0.00000000E+00  1.23755293E+01
  1.23755293E+01 -2.47510585E+01  0.00000000E+00  1.23755293E+01  1.23755293E+01
 -2.47510585E+01  0.00000000E+00  1.23755293E+01  1.23755293E+01 -2.47510585E+01
  0.00000000E+00  1.23755293E+01  1.23755293E+01 -2.47510585E+01  0.00000000E+00
  1.23755293E+01  1.23755293E+01 -2.47510585E+01  0.00000000E+00  1.23755293E+01
  1.23755293E+01 -2.47510585E+01  0.00000000E+00  1.23755293E+01  1.23755293E+01
 -2.47510585E+01  0.00000000E+00  1.23755293E+01  1.23755293E+01 -2.47510585E+01
  0.00000000E+00  1.23755293E+01  1.23755293E+01 -2.47510585E+01  0.00000000E+00
  1.23755293E+01  1.23755293E+01 -2.47510585E+01  0.00000000E+00  1.23755293E+01
  1.23755293E+01 -2.47510585E+01  0.00000000E+00  1.23755293E+01  1.23755293E+01
 -2.47510585E+01  0.00000000E+00  1.23755293E+01  1.23755293E+01 -2.47510585E+01
  0.00000000E+00  1.23755293E+01  1.23755293E+01 -2.47510585E+01  0.00000000E+00
  1.23755293E+01  1.23755293E+01 -2.47510585E+01  0.00000000E+00  1.23755293E+01
  1.23755293E+01 -2.47510585E+01  0.00000000E+00  1.23755293E+01  1.23755293E+01
 -2.47510585E+01  0.00000000E+00  1.23755293E+01  1.23755293E+01 -2.47510585E+01
  0.00000000E+00  1.23755293E+01  1.23755293E+01 -2.47510585E+01  0.00000000E+00
  1.23755293E+01  1.23755293E+01 -2.47510585E+01  0.00000000E+00  1.23755293E+01
  1.23755293E+01 -2.47510585E+01  0.00000000E+00  1.23755293E+01  1.23755293E+01
 -2.47510585E+01  0.00000000E+00  1.23755293E+01  1.23755293E+01 -2.47510585E+01
  0.00000000E+00  1.23755293E+01  1.23755293E+01 -2.47510585E+01  0.00000000E+00
  1.23755293E+01  1.23755293E+01 -2.47510585E+01  0.00000000E+00  1.23755293E+01
  1.23755293E+01 -2.47510585E+01  0.00000000E+00  1.23755293E+01  1.23755293E+01
 -2.47510585E+01  0.00000000E+00  1.23755293E+01  1.23755293E+01 -2.47510585E+01
  0.00000000E+00  1.23755293E+01  1.23755293E+01 -2.47510585E+01  0.00000000E+00
  1.23755293E+01  1.23755293E+01 -2.47510585E+01  0.00000000E+00  1.23755293E+01
  1.23755293E+01 -2.47510585E+01  0.00000000E+00  1.23755293E+01  1.23755293E+01
 -2.47510585E+01  0.00000000E+00  1.23755293E+01  1.23755293E+01 -2.47510585E+01
  0.00000000E+00  1.23755293E+01  1.23755293E+01 -2.47510585E+01  0.00000000E+00
  1.23755293E+01  1.23755293E+01 -2.47510585E+01  0.00000000E+00  1.23755293E+01
  1.23755293E+01 -2.47510585E+01  0.00000000E+00  1.23755293E+01  1.23755293E+01
 -2.47510585E+01  0.00000000E+00  1.23755293E+01  1.23755293E+01 -2.47510585E+01
  0.00000000E+00  1.23755293E+01  1.23755293E+01 -2.47510585E+01  0.00000000E+00
  1.23755293E+01  1.23755293E+01 -2.47510585E+01  0.00000000E+00  1.23755293E+01
  1.23755293E+01 -2.47510585E+01  0.00000000E+00  1.23755293E+01  1.23755293E+01
 -2.47510585E+01  0.00000000E+00  1.23755293E+01  1.23755293E+01 -2.47510585E+01
  0.00000000E+00  1.23755293E+01  1.23755293E+01 -2.47510585E+01  0.00000000E+00
  1.23755293E+01  1.23755293E+01 -2.47510585E+01  0.00000000E+00  1.23755293E+01
  1.23755293E+01 -2.47510585E+01  0.00000000E+00  1.23755293E+01  1.23755293E+01
 -2.47510585E+01  0.00000000E+00  1.23755293E+01  1.23755293E+01 -2.47510585E+01
  0.00000000E+00  1.23755293E+01  1.23755293E+01 -2.47510585E+01  0.00000000E+00
  1.23755293E+01  1.23755293E+01 -2.47510585E+01  0.00000000E+00  1.23755293E+01
  1.23755293E+01 -2.47510585E+01  0.00000000E+00  1.23755293E+01  1.23755293E+01
 -2.47510585E+01  0.00000000E+00  1.23755293E+01  1.23755293E+01 -2.47510585E+01
  0.00000000E+00  1.23755293E+01  1.23755293E+01 -2.47510585E+01  0.00000000E+00
  1.23755293E+01  1.23755293E+01 -2.47510585E+01  0.00000000E+00  1.23755293E+01
  1.23755293E+01 -2.47510585E+01  0.00000000E+00  1.23755293E+01  1.23755293E+01
 -2.47510585E+01  0.00000000E+00  1.23755293E+01  1.23755293E+01 -2.47510585E+01
  0.00000000E+00  1.23755293E+01  1.23755293E+01 -2.47510585E+01  0.00000000E+00
  1.23755293E+01  1.23755293E+01 -2.47510585E+01  0.00000000E+00  1.23755293E+01
  1.23755293E+01 -2.47510585E+01  0.00000000E+00  1.23755293E+01  1.23755293E+01
 -2.47510585E+01  0.00000000E+00  1.23755293E+01  1.23755293E+01 -2.47510585E+01
  0.00000000E+00  1.23755293E+01  1.23755293E+01 -2.47510585E+01  0.00000000E+00
  1.23755293E+01  1.23755293E+01 -2.47510585E+01  0.00000000E+00  1.23755293E+01
  1.23755293E+01 -2.47510585E+01  0.00000000E+00  1.23755293E+01  1.23755293E+01
 -2.47510585E+01  0.00000000E+00  1.23755293E+01  1.23755293E+01 -2.47510585E+01
  0.00000000E+00  1.23755293E+01  1.23755293E+01 -2.47510585E+01  0.00000000E+00
  1.23755293E+01  1.23755293E+01 -2.47510585E+01  0.00000000E+00  1.23755293E+01
  1.23755293E+01 -2.47510585E+01  0.00000000E+00  1.23755293E+01  1.23755293E+01
 -2.47510585E+01  0.00000000E+00  1.23755293E+01  1.23755293E+01 -2.47510585E+01
  0.00000000E+00  1.23755293E+01  1.23755293E+01 -2.47510585E+01  0.00000000E+00
  1.23755293E+01  1.23755293E+01 -2.47510585E+01  0.00000000E+00  1.23755293E+01
  1.23755293E+01 -2.47510585E+01  0.00000000E+00  1.23755293E+01  1.23755293E+01
 -2.47510585E+01  0.00000000E+00  1.23755293E+01  1.23755293E+01 -2.47510585E+01
  0.00000000E+00  1.23755293E+01  1.23755293E+01 -2.47510585E+01  0.00000000E+00
  1.23755293E+01  1.23755293E+01 -2.47510585E+01  0.00000000E+00  1.23755293E+01
  1.23755293E+01 -2.47510585E+01  0.00000000E+00  1.23755293E+01  1.23755293E+01
 -2.47510585E+01  0.00000000E+00  1.23755293E+01  1.23755293E+01 -2.47510585E+01
  0.00000000E+00  1.23755293E+01  1.23755293E+01 -2.47510585E+01  0.00000000E+00
  1.23755293E+01  1.23755293E+01 -2.47510585E+01  0.00000000E+00  1.23755293E+01
  1.23755293E+01 -2.47510585E+01  0.00000000E+00  1.23755293E+01  1.23755293E+01
 -2.47510585E+01  0.00000000E+00  1.23755293E+01  1.23755293E+01 -2.47510585E+01
  0.00000000E+00  1.23755293E+01  1.23755293E+01 -2.47510585E+01  0.00000000E+00
  1.23755293E+01  1.23755293E+01 -2.47510585E+01  0.00000000E+00  1.23755293E+01
  1.23755293E+01 -2.47510585E+01  0.00000000E+00  1.23755293E+01  1.23755293E+01
 -2.47510585E+01  0.00000000E+00  1.23755293E+01  1.23755293E+01 -2.47510585E+01
  0.00000000E+00  1.23755293E+01  1.23755293E+01 -2.47510585E+01  0.00000000E+00
  1.23755293E+01  1.23755293E+01 -2.47510585E+01  0.00000000E+00  1.23755293E+01
  1.23755293E+01 -2.47510585E+01  0.00000000E+00  1.23755293E+01  1.23755293E+01
 -2.47510585E+01  0.00000000E+00  1.23755293E+01  1.23755293E+01 -2.47510585E+01
  0.00000000E+00  1.23755293E+01  1.23755293E+01 -2.47510585E+01  0.00000000E+00
  1.23755293E+01  1.23755293E+01 -2.47510585E+01  0.00000000E+00  1.23755293E+01
  1.23755293E+01 -2.47510585E+01  0.00000000E+00  1.23755293E+01  1.23755293E+01
 -2.47510585E+01  0.00000000E+00  1.23755293E+01  1.23755293E+01 -2.47510585E+01
  0.00000000E+00  1.23755293E+01  1.23755293E+01 -2.47510585E+01  0.00000000E+00
  1.23755293E+01  1.23755293E+01 -2.47510585E+01  0.00000000E+00  1.23755293E+01
  1.23755293E+01 -2.47510585E+01  0.00000000E+00  1.23755293E+01  1.23755293E+01
 -2.47510585E+01  0.00000000E+00  1.23755293E+01  1.23755293E+01 -2.47510585E+01
  0.00000000E+00  1.23755293E+01  1.23755293E+01 -2.47510585E+01  0.00000000E+00
  1.23755293E+01  1.23755293E+01 -2.47510585E+01  0.00000000E+00  1.23755293E+01
  1.23755293E+01 -2.47510585E+01  0.00000000E+00  1.23755293E+01  1.23755293E+01
 -2.47510585E+01  0.00000000E+00  1.23755293E+01  1.23755293E+01 -2.47510585E+01
  0.00000000E+00  1.23755293E+01  1.23755293E+01 -2.47510585E+01  0.00000000E+00
  1.23755293E+01  1.23755293E+01 -2.47510585E+01  0.00000000E+00  1.23755293E+01
  1.23755293E+01 -2.47510585E+01  0.00000000E+00  1.23755293E+01  1.23755293E+01
 -2.47510585E+01  0.00000000E+00  1.23755293E+01  1.23755293E+01 -2.47510585E+01
  0.00000000E+00  1.23755293E+01  1.23755293E+01 -2.47510585E+01  0.00000000E+00
  1.23755293E+01  1.23755293E+01 -2.47510585E+01  0.00000000E+00  1.23755293E+01
  1.23755293E+01 -2.47510585E+01  0.00000000E+00  1.23755293E+01  1.23755293E+01
 -2.47510585E+01  0.00000000E+00  1.23755293E+01  1.23755293E+01 -2.47510585E+01
  0.00000000E+00  1.23755293E+01  1.23755293E+01 -2.47510585E+01  0.00000000E+00
  1.23755293E+01  1.23755293E+01 -2.47510585E+01  0.00000000E+00  1.23755293E+01
  1.23755293E+01 -2.47510585E+01  0.00000000E+00  1.23755293E+01  1.23755293E+01
 -2.47510585E+01  0.00000000E+00  1.23755293E+01  1.23755293E+01 -2.47510585E+01
  0.00000000E+00  1.23755293E+01  1.23755293E+01 -2.47510585E+01  0.00000000E+00
  1.23755293E+01  1.23755293E+01 -2.47510585E+01  0.00000000E+00  1.23755293E+01
  1.23755293E+01 -2.47510585E+01  0.00000000E+00  1.23755293E+01  1.23755293E+01
 -2.47510585E+01  0.00000000E+00  1.23755293E+01  1.23755293E+01 -2.47510585E+01
  0.00000000E+00  1.23755293E+01  1.23755293E+01 -2.47510585E+01  0.00000000E+00
  1.23755293E+01  1.23755293E+01 -2.47510585E+01  0.00000000E+00  1.23755293E+01
  1.23755293E+01 -2.47510585E+01  0.00000000E+00  1.23755293E+01  1.23755293E+01
 -2.47510585E+01  0.00000000E+00  1.23755293E+01  1.23755293E+01 -2.47510585E+01
  0.00000000E+00  1.23755293E+01  1.23755293E+01 -2.47510585E+01  0.00000000E+00
  1.23755293E+01  1.23755293E+01 -2.47510585E+01  0.00000000E+00  1.23755293E+01
  1.23755293E+01 -2.47510585E+01  0.00000000E+00  1.23755293E+01  1.23755293E+01
 -2.47510585E+01  0.00000000E+00  1.23755293E+01  1.23755293E+01 -2.47510585E+01
  0.00000000E+00  1.23755293E+01  1.23755293E+01 -2.47510585E+01  0.00000000E+00
  1.23755293E+01  1.23755293E+01 -2.47510585E+01  0.00000000E+00  1.23755293E+01
  1.23755293E+01 -2.47510585E+01  0.00000000E+00  1.23755293E+01  1.23755293E+01
 -2.47510585E+01  0.00000000E+00  1.23755293E+01  1.23755293E+01 -2.47510585E+01
  0.00000000E+00  1.23755293E+01  1.23755293E+01 -2.47510585E+01  0.00000000E+00
  1.23755293E+01  1.23755293E+01 -2.47510585E+01  0.00000000E+00  1.23755293E+01
  1.23755293E+01 -2.47510585E+01  0.00000000E+00  1.23755293E+01  1.23755293E+01
 -2.47510585E+01  0.00000000E+00  1.23755293E+01  1.23755293E+01 -2.47510585E+01
  0.00000000E+00  1.23755293E+01  1.23755293E+01 -2.47510585E+01  0.00000000E+00
  1.23755293E+01  1.23755293E+01 -2.47510585E+01  0.00000000E+00  1.23755293E+01
  1.23755293E+01 -2.47510585E+01  0.00000000E+00  1.23755293E+01  1.23755293E+01
 -2.47510585E+01  0.00000000E+00  1.23755293E+01  1.23755293E+01 -2.47510585E+01
  0.00000000E+00  1.23755293E+01  1.23755293E+01 -2.47510585E+01  0.00000000E+00
  1.23755293E+01  1.23755293E+01 -2.47510585E+01  0.00000000E+00  1.23755293E+01
  1.23755293E+01 -2.47510585E+01  0.00000000E+00  1.23755293E+01  1.23755293E+01
 -2.47510585E+01  0.00000000E+00  1.23755293E+01  1.23755293E+01 -2.47510585E+01
  0.00000000E+00  1.23755293E+01  1.23755293E+01 -2.47510585E+01  0.00000000E+00
  1.23755293E+01  1.23755293E+01 -2.47510585E+01  0.00000000E+00  1.23755293E+01
  1.23755293E+01 -2.47510585E+01  0.00000000E+00  1.23755293E+01  1.23755293E+01
 -2.47510585E+01  0.00000000E+00  1.23755293E+01  1.23755293E+01 -2.47510585E+01
  0.00000000E+00  1.23755293E+01  1.23755293E+01 -2.47510585E+01  0.00000000E+00
  1.23755293E+01  1.23755293E+01 -2.47510585E+01  0.00000000E+00  1.23755293E+01
  1.23755293E+01 -2.47510585E+01  0.00000000E+00  1.23755293E+01  1.23755293E+01
 -2.47510585E+01  0.00000000E+00  1.23755293E+01  1.23755293E+01 -2.47510585E+01
  0.00000000E+00  1.23755293E+01  1.23755293E+01 -2.47510585E+01  0.00000000E+00
  1.23755293E+01  1.23755293E+01 -2.47510585E+01  0.00000000E+00  1.23755293E+01
  1.23755293E+01 -2.47510585E+01  0.00000000E+00  1.23755293E+01  1.23755293E+01
 -2.47510585E+01  0.00000000E+00  1.23755293E+01  1.23755293E+01 -2.47510585E+01
  0.00000000E+00  1.23755293E+01  1.23755293E+01 -2.47510585E+01  0.00000000E+00
  1.23755293E+01  1.23755293E+01 -2.47510585E+01  0.00000000E+00  1.23755293E+01
  1.23755293E+01 -2.47510585E+01  0.00000000E+00  1.23755293E+01  1.23755293E+01
 -2.47510585E+01  0.00000000E+00  1.23755293E+01  1.23755293E+01 -2.47510585E+01
  0.00000000E+00  1.23755293E+01  1.23755293E+01 -2.47510585E+01  0.00000000E+00
  1.23755293E+01  1.23755293E+01 -2.47510585E+01  0.00000000E+00  1.23755293E+01
  1.23755293E+01 -2.47510585E+01  0.00000000E+00  1.23755293E+01  1.23755293E+01
 -2.47510585E+01  0.00000000E+00  1.23755293E+01  1.23755293E+01 -2.47510585E+01
  0.00000000E+00  1.23755293E+01  1.23755293E+01 -2.47510585E+01  0.00000000E+00
  1.23755293E+01  1.23755293E+01 -2.47510585E+01  0.00000000E+00  1.23755293E+01
  1.23755293E+01 -2.47510585E+01  0.00000000E+00  1.23755293E+01  1.23755293E+01
 -2.47510585E+01  0.00000000E+00  1.23755293E+01  1.23755293E+01 -2.47510585E+01
  0.00000000E+00  1.23755293E+01  1.23755293E+01 -2.47510585E+01  0.00000000E+00
  1.23755293E+01  1.23755293E+01 -2.47510585E+01  0.00000000E+00  1.23755293E+01
  1.23755293E+01 -2.47510585E+01  0.00000000E+00  1.23755293E+01  1.23755293E+01
 -2.47510585E+01  0.00000000E+00  1.23755293E+01  1.23755293E+01 -2.47510585E+01
  0.00000000E+00  1.23755293E+01  1.23755293E+01 -2.47510585E+01  0.00000000E+00
  1.23755293E+01  1.23755293E+01 -2.47510585E+01  0.00000000E+00  1.23755293E+01
  1.23755293E+01 -2.47510585E+01  0.00000000E+00  1.23755293E+01  1.23755293E+01
 -2.47510585E+01  0.00000000E+00  1.23755293E+01  1.23755293E+01 -2.47510585E+01
  0.00000000E+00  1.23755293E+01  1.23755293E+01 -2.47510585E+01  0.00000000E+00
  1.23755293E+01  1.23755293E+01 -2.47510585E+01  0.00000000E+00  1.23755293E+01
  1.23755293E+01 -2.47510585E+01  0.00000000E+00  1.23755293E+01  1.23755293E+01
 -2.47510585E+01  0.00000000E+00  1.23755293E+01  1.23755293E+01 -2.47510585E+01
  0.00000000E+00  1.23755293E+01  1.23755293E+01 -2.47510585E+01  0.00000000E+00
  1.23755293E+01  1.23755293E+01 -2.47510585E+01  0.00000000E+00  1.23755293E+01
  1.23755293E+01 -2.47510585E+01  0.00000000E+00  1.23755293E+01  1.23755293E+01
 -2.47510585E+01  0.00000000E+00  1.23755293E+01  1.23755293E+01 -2.47510585E+01
  0.00000000E+00  1.23755293E+01  1.23755293E+01 -2.47510585E+01  0.00000000E+00
  1.23755293E+01  1.23755293E+01 -2.47510585E+01  0.00000000E+00  1.23755293E+01
  1.23755293E+01 -2.47510585E+01  0.00000000E+00  1.23755293E+01  1.23755293E+01
 -2.47510585E+01  0.00000000E+00  1.23755293E+01  1.23755293E+01 -2.47510585E+01
  0.00000000E+00  1.23755293E+01  1.23755293E+01 -2.47510585E+01  0.00000000E+00
  1.23755293E+01  1.23755293E+01 -2.47510585E+01  0.00000000E+00  1.23755293E+01
  1.23755293E+01 -2.47510585E+01  0.00000000E+00  1.23755293E+01  1.23755293E+01
 -2.47510585E+01  0.00000000E+00  1.23755293E+01  1.23755293E+01 -2.47510585E+01
  0.00000000E+00  1.23755293E+01  1.23755293E+01 -2.47510585E+01  0.00000000E+00
  1.23755293E+01  1.23755293E+01 -2.47510585E+01  0.00000000E+00  1.23755293E+01
  1.23755293E+01 -2.47510585E+01  0.00000000E+00  1.23755293E+01  1.23755293E+01
 -2.47510585E+01  0.00000000E+00  1.23755293E+01  1.23755293E+01 -2.47510585E+01
  0.00000000E+00  1.23755293E+01  1.23755293E+01 -2.47510585E+01  0.00000000E+00
  1.23755293E+01  1.23755293E+01 -2.47510585E+01  0.00000000E+00  1.23755293E+01
  1.23755293E+01 -2.47510585E+01  0.00000000E+00  1.23755293E+01  1.23755293E+01
 -2.47510585E+01  0.00000000E+00  1.23755293E+01  1.23755293E+01 -2.47510585E+01
  0.00000000E+00  1.23755293E+01  1.23755293E+01 -2.47510585E+01  0.00000000E+00
  1.23755293E+01  1.23755293E+01 -2.47510585E+01  0.00000000E+00  1.23755293E+01
  1.23755293E+01 -2.47510585E+01  0.00000000E+00  1.23755293E+01  1.23755293E+01
 -2.47510585E+01  0.00000000E+00  1.23755293E+01  1.23755293E+01 -2.47510585E+01
  0.00000000E+00  1.23755293E+01  1.23755293E+01 -2.47510585E+01  0.00000000E+00
  1.23755293E+01  1.23755293E+01 -2.47510585E+01  0.00000000E+00  1.23755293E+01
  1.23755293E+01 -2.47510585E+01  0.00000000E+00  1.23755293E+01  1.23755293E+01
 -2.47510585E+01  0.00000000E+00  1.23755293E+01  1.23755293E+01 -2.47510585E+01
  0.00000000E+00  1.23755293E+01  1.23755293E+01 -2.47510585E+01  0.00000000E+00
  1.23755293E+01  1.23755293E+01 -2.47510585E+01  0.00000000E+00  1.23755293E+01
  1.23755293E+01 -2.47510585E+01  0.00000000E+00  1.23755293E+01  1.23755293E+01
 -2.47510585E+01
%FLAG ATOMIC_NUMBER                                                             
%FORMAT(10I8)                                                                   
       1       6       1       1       6       8       7       1       6       1
       6       1       1       1       6       8       7       6       1       1
       6       1       1       6       1       1       6       1       6       8
       7       1       6       1       6       1       1       1       6       8
       7       1       6       1       1       1       8       1       1       0
       8       1       1       0       8       1       1       0       8       1
       1       0       8       1       1       0       8       1       1       0
       8       1       1       0       8       1       1       0       8       1
       1       0       8       1       1       0       8       1       1       0
       8       1       1       0       8       1       1       0       8       1
       1       0       8       1       1       0       8       1       1       0
       8       1       1       0       8       1       1       0       8       1
       1       0       8       1       1       0       8       1       1       0
       8       1       1       0       8       1       1       0       8       1
       1       0       8       1       1       0       8       1       1       0
       8       1       1       0       8       1       1       0       8       1
       1       0       8       1       1       0       8       1       1       0
       8       1       1       0       8       1       1       0       8       1
       1       0       8       1       1       0       8       1       1       0
       8       1       1       0       8       1       1       0       8       1
       1       0       8       1       1       0       8       1       1       0
       8       1       1       0       8       1       1       0       8       1
       1       0       8       1       1       0       8       1       1       0
       8       1       1       0       8       1       1       0       8       1
       1       0       8       1       1       0       8       1       1       0
       8       1       1       0       8       1       1       0       8       1
       1       0       8       1       1       0       8       1       1       0
       8       1       1       0       8       1       1       0       8       1
       1       0       8       1       1       0       8       1       1       0
       8       1       1       0       8       1       1       0       8       1
       1       0       8       1       1       0       8       1       1       0
       8       1       1       0       8       1       1       0       8       1
       1       0       8       1       1       0       8       1       1       0
       8       1       1       0       8       1       1       0       8       1
       1       0       8       1       1       0       8       1       1       0
       8       1       1       0       8       1       1       0       8       1
       1       0       8       1       1       0       8       1       1       0
       8       1       1       0       8       1       1       0       8       1
       1       0       8       1       1       0       8       1       1       0
       8       1       1       0       8       1       1       0       8       1
       1       0       8       1       1       0       8       1       1       0
       8       1       1       0       8       1       1       0       8       1
       1       0       8       1       1       0       8       1       1       0
       8       1       1       0       8       1       1       0       8       1
       1       0       8       1       1       0       8       1       1       0
       8       1       1       0       8       1       1       0       8       1
       1       0       8       1       1       0       8       1       1       0
       8       1       1       0       8       1       1       0       8       1
       1       0       8       1       1       0       8       1       1       0
       8       1       1       0       8       1       1       0       8       1
       1       0       8       1       1       0       8       1       1       0
       8       1       1       0       8       1       1       0       8       1
       1       0       8       1       1       0       8       1       1       0
       8       1       1       0       8       1       1       0       8       1
       1       0       8       1       1       0       8       1       1       0
       8       1       1       0       8       1       1       0       8       1
       1       0       8       1       1       0       8       1       1       0
       8       1       1       0       8       1       1       0       8       1
       1       0       8       1       1       0       8       1       1       0
       8       1       1       0       8       1       1       0       8       1
       1       0       8       1       1       0       8       1       1       0
       8       1       1       0       8       1       1       0       8       1
       1       0       8       1       1       0       8       1       1       0
       8       1       1       0       8       1       1       0       8       1
       1       0       8       1       1       0       8       1       1       0
       8       1       1       0       8       1       1       0       8       1
       1       0       8       1       1       0       8       1       1       0
       8       1       1       0       8       1       1       0       8       1
       1       0       8       1       1       0       8       1       1       0
       8       1       1       0       8       1       1       0       8       1
       1       0       8       1       1       0       8       1       1       0
       8       1       1       0       8       1       1       0       8       1
       1       0       8       1       1       0       8       1       1       0
       8       1       1       0       8       1       1       0       8       1
       1       0       8       1       1       0       8       1       1       0
       8       1       1       0       8       1       1       0       8       1
       1       0       8       1       1       0       8       1       1       0
       8       1       1       0       8       1       1       0       8       1
       1       0       8       1       1       0       8       1       1       0
       8       1       1       0       8       1       1       0       8       1
       1       0       8       1       1       0       8       1       1       0
       8       1       1       0       8       1       1       0       8       1
       1       0       8       1       1       0       8       1       1       0
       8       1       1       0       8       1       1       0       8       1
       1       0       8       1       1       0       8       1       1       0
       8       1       1       0       8       1       1       0       8       1
       1       0       8       1       1       0       8       1       1       0
       8       1       1       0       8       1       1       0       8       1
       1       0       8       1       1       0       8       1       1       0
       8       1       1       0       8       1       1       0       8       1
       1       0       8       1       1       0       8       1       1       0
       8       1       1       0       8       1       1       0       8       1
       1       0       8       1       1       0       8       1       1       0
       8       1       1       0       8       1       1       0       8       1
       1       0       8       1       1       0       8       1       1       0
       8       1       1       0       8       1       1       0       8       1
       1       0       8       1       1       0       8       1       1       0
       8       1       1       0       8       1       1       0       8       1
       1       0       8       1       1       0       8       1       1       0
       8       1       1       0       8       1       1       0       8       1
       1       0       8       1       1       0       8       1       1       0
       8       1       1       0       8       1       1       0       8       1
       1       0       8       1       1       0       8       1       1       0
       8       1       1       0       8       1       1       0       8       1
       1       0       8       1       1       0       8       1       1       0
       8       1       1       0       8       1       1       0       8       1
       1       0       8       1       1       0       8       1       1       0
       8       1       1       0       8       1       1       0       8       1
       1       0       8       1       1       0       8       1       1       0
       8       1       1       0       8       1       1       0       8       1
       1       0       8       1       1       0       8       1       1       0
       8       1       1       0       8       1       1       0       8       1
       1       0       8       1       1       0       8       1       1       0
       8       1       1       0       8       1       1       0       8       1
       1       0       8       1       1       0       8       1       1       0
       8       1       1       0       8       1       1       0       8       1
       1       0       8       1       1       0       8       1       1       0
       8       1       1       0       8       1       1       0       8       1
       1       0       8       1       1       0       8       1       1       0
       8       1       1       0       8       1       1       0       8       1
       1       0       8       1       1       0       8       1       1       0
       8       1       1       0       8       1       1       0       8       1
       1       0       8       1       1       0       8       1       1       0
       8       1       1       0       8       1       1       0       8       1
       1       0       8       1       1       0       8       1       1       0
       8       1       1       0       8       1       1       0       8       1
       1       0       8       1       1       0       8       1       1       0
       8       1       1       0       8       1       1       0       8       1
       1       0       8       1       1       0       8       1       1       0
       8       1       1       0       8       1       1       0       8       1
       1       0       8       1       1       0       8       1       1       0
       8       1       1       0       8       1       1       0       8       1
       1       0       8       1       1       0       8       1       1       0
       8       1       1       0       8       1       1       0       8       1
       1       0       8       1       1       0       8       1       1       0
       8       1       1       0       8       1       1       0       8       1
       1       0       8       1       1       0       8       1       1       0
       8       1       1       0       8       1       1       0       8       1
       1       0       8       1       1       0       8       1       1       0
       8       1       1       0       8       1       1       0       8       1
       1       0       8       1       1       0       8       1       1       0
       8       1       1       0       8       1       1       0       8       1
       1       0       8       1       1       0       8       1       1       0
       8       1       1       0       8       1       1       0       8       1
       1       0       8       1       1       0       8       1       1       0
       8       1       1       0       8       1       1       0       8       1
       1       0       8       1       1       0       8       1       1       0
       8       1       1       0       8       1       1       0       8       1
       1       0       8       1       1       0       8       1       1       0
       8       1       1       0       8       1       1       0       8       1
       1       0       8       1       1       0       8       1       1       0
       8       1       1       0       8       1       1       0       8       1
       1       0       8       1       1       0       8       1       1       0
       8       1       1       0       8       1       1       0       8       1
       1       0       8       1       1       0       8       1       1       0
       8       1       1       0       8       1       1       0       8       1
       1       0       8       1       1       0       8       1       1       0
       8       1       1       0       8       1       1       0       8       1
       1       0       8       1       1       0       8       1       1       0
       8       1       1       0       8       1       1       0       8       1
       1       0       8       1       1       0       8       1       1       0
       8       1       1       0       8       1       1       0       8       1
       1       0       8       1       1       0       8       1       1       0
       8       1       1       0       8       1       1       0       8       1
       1       0       8       1       1       0       8       1       1       0
       8       1       1       0       8       1       1       0       8       1
       1       0       8       1       1       0       8       1       1       0
       8       1       1       0       8       1       1       0       8       1
       1       0       8       1       1       0       8       1       1       0
       8       1       1       0       8       1       1       0       8       1
       1       0       8       1       1       0       8       1       1       0
       8       1       1       0       8       1       1       0       8       1
       1       0       8       1       1       0       8       1       1       0
       8       1       1       0       8       1       1       0       8       1
       1       0       8       1       1       0       8       1       1       0
       8       1       1       0       8       1       1       0       8       1
       1       0       8       1       1       0       8       1       1       0
       8       1       1       0       8       1       1       0       8       1
       1       0       8       1       1       0       8       1       1       0
       8       1       1       0       8       1       1       0       8       1
       1       0       8       1       1       0       8       1       1       0
       8       1       1       0       8       1       1       0       8       1
       1       0       8       1       1       0       8       1       1       0
       8       1       1       0       8       1       1       0       8       1
       1       0       8       1       1       0       8       1       1       0
       8       1       1       0       8       1       1       0       8       1
       1       0       8       1       1       0       8       1       1       0
       8       1       1       0       8       1       1       0       8       1
       1       0       8       1       1       0       8       1       1       0
       8       1       1       0       8       1       1       0       8       1
       1       0       8       1       1       0       8       1       1       0
       8       1       1       0       8       1       1       0       8       1
       1       0       8       1       1       0       8       1       1       0
       8       1       1       0       8       1       1       0       8       1
       1       0       8       1       1       0       8       1       1       0
       8       1       1       0       8       1       1       0       8       1
       1       0       8       1       1       0       8       1       1       0
       8       1       1       0       8       1       1       0       8       1
       1       0       8       1       1       0       8       1       1       0
       8       1       1       0       8       1       1       0       8       1
       1       0       8       1       1       0       8       1       1       0
       8       1       1       0       8       1       1       0       8       1
       1       0       8       1       1       0       8       1       1       0
       8       1       1       0       8       1       1       0       8       1
       1       0       8       1       1       0       8       1       1       0
       8       1       1       0       8       1       1       0       8       1
       1       0       8       1       1       0       8       1       1       0
       8       1       1       0       8       1       1       0       8       1
       1       0       8       1       1       0       8       1       1       0
       8       1       1       0       8       1       1       0       8       1
       1       0       8       1       1       0       8       1       1       0
       8       1       1       0       8       1       1       0       8       1
       1       0       8       1       1       0       8       1       1       0
       8       1       1       0       8       1       1       0       8       1
       1       0       8       1       1       0       8       1       1       0
       8       1       1       0       8       1       1       0       8       1
       1       0       8       1       1       0       8       1       1       0
       8       1       1       0       8       1       1       0       8       1
       1       0       8       1       1       0       8       1       1       0
       8       1       1       0       8       1       1       0       8       1
       1       0       8       1       1       0       8       1       1       0
       8       1       1       0       8       1       1       0       8       1
       1       0       8       1       1       0       8       1       1       0
       8       1       1       0       8       1       1       0       8       1
       1       0       8       1       1       0       8       1       1       0
       8       1       1       0       8       1       1       0       8       1
       1       0       8       1       1       0       8       1       1       0
       8       1       1       0       8       1       1       0       8       1
       1       0       8       1       1       0       8       1       1       0
       8       1       1       0       8       1       1       0       8       1
       1       0       8       1       1       0       8       1       1       0
       8       1       1       0       8       1       1       0       8       1
       1       0       8       1       1       0       8       1       1       0
       8       1       1       0       8       1       1       0       8       1
       1       0       8       1       1       0       8       1       1       0
       8       1       1       0       8       1       1       0       8       1
       1       0       8       1       1       0       8       1       1       0
       8       1       1       0       8       1       1       0       8       1
       1       0       8       1       1       0       8       1       1       0
       8       1       1       0       8       1       1       0       8       1
       1       0       8       1       1       0       8       1       1       0
       8       1       1       0       8       1       1       0       8       1
       1       0       8       1       1       0       8       1       1       0
       8       1       1       0       8       1       1       0       8       1
       1       0       8       1       1       0       8       1       1       0
       8       1       1       0       8       1       1       0       8       1
       1       0       8       1       1       0       8       1       1       0
       8       1       1       0       8       1       1       0       8       1
       1       0       8       1       1       0       8       1       1       0
       8       1       1       0       8       1       1       0       8       1
       1       0       8       1       1       0       8       1       1       0
       8       1       1       0       8       1       1       0       8       1
       1       0       8       1       1       0       8       1       1       0
       8       1       1       0       8       1       1       0       8       1
       1       0       8       1       1       0       8       1       1       0
       8       1       1       0       8       1       1       0       8       1
       1       0       8       1       1       0       8       1       1       0
       8       1       1       0       8       1       1       0       8       1
       1       0       8       1       1       0       8       1       1       0
       8       1       1       0       8       1       1       0       8       1
       1       0       8       1       1       0       8       1       1       0
       8       1       1       0       8       1       1       0       8       1
       1       0       8       1       1       0       8       1       1       0
       8       1       1       0       8       1       1       0       8       1
       1       0       8       1       1       0       8       1       1       0
       8       1       1       0       8       1       1       0       8       1
       1       0       8       1       1       0       8       1       1       0
       8       1       1       0       8       1       1       0       8       1
       1       0       8       1       1       0       8       1       1       0
       8       1       1       0       8       1       1       0       8       1
       1       0       8       1       1       0       8       1       1       0
       8       1       1       0       8       1       1       0       8       1
       1       0       8       1       1       0       8       1       1       0
       8       1       1       0       8       1       1       0       8       1
       1       0       8       1       1       0       8       1       1       0
       8       1       1       0       8       1       1       0       8       1
       1       0       8       1       1       0       8       1       1       0
       8       1       1       0       8       1       1       0       8       1
       1       0       8       1       1       0       8       1       1       0
       8       1       1       0       8       1       1       0       8       1
       1       0       8       1       1       0       8       1       1       0
       8       1       1       0       8       1       1       0       8       1
       1       0       8       1       1       0       8       1       1       0
       8       1       1       0       8       1       1       0       8       1
       1       0       8       1       1       0       8       1       1       0
       8       1       1       0       8       1       1       0       8       1
       1       0       8       1       1       0       8       1       1       0
       8       1       1       0       8       1       1       0       8       1
       1       0       8       1       1       0       8       1       1       0
       8       1       1       0       8       1       1       0       8       1
       1       0       8       1       1       0       8       1       1       0
       8       1       1       0       8       1       1       0       8       1
       1       0       8       1       1       0       8       1       1       0
       8       1       1       0       8       1       1       0       8       1
       1       0       8       1       1       0       8       1       1       0
       8       1       1       0       8       1       1       0       8       1
       1       0       8       1       1       0       8       1       1       0
       8       1       1       0       8       1       1       0       8       1
       1       0       8       1       1       0       8       1       1       0
       8       1       1       0       8       1       1       0       8       1
       1       0       8       1       1       0       8       1       1       0
       8       1       1       0       8       1       1       0       8       1
       1       0       8       1       1       0       8       1       1       0
       8       1       1       0       8       1       1       0       8       1
       1       0       8       1       1       0       8       1       1       0
       8       1       1       0       8       1       1       0       8       1
       1       0       8       1       1       0       8       1       1       0
       8       1       1       0       8       1       1       0       8       1
       1       0       8       1       1       0       8       1       1       0
       8       1       1       0       8       1       1       0       8       1
       1       0       8       1       1       0       8       1       1       0
       8       1       1       0       8       1       1       0       8       1
       1       0       8       1       1       0       8       1       1       0
       8       1       1       0       8       1       1       0       8       1
       1       0       8       1       1       0       8       1       1       0
       8       1       1       0       8       1       1       0       8       1
       1       0       8       1       1       0       8       1       1       0
       8       1       1       0       8       1       1       0       8       1
       1       0       8       1       1       0       8       1       1       0
       8       1       1       0       8       1       1       0       8       1
       1       0       8       1       1       0       8       1       1       0
       8       1       1       0       8       1       1       0       8       1
       1       0       8       1       1       0       8       1       1       0
       8       1       1       0       8       1       1       0       8       1
       1       0       8       1       1       0       8       1       1       0
       8       1       1       0       8       1       1       0       8       1
       1       0       8       1       1       0       8       1       1       0
       8       1       1       0       8       1       1       0       8       1
       1       0       8       1       1       0       8       1       1       0
       8       1       1       0       8       1       1       0       8       1
       1       0       8       1       1       0       8       1       1       0
       8       1       1       0       8       1       1       0       8       1
       1       0       8       1       1       0       8       1       1       0
       8       1       1       0       8       1       1       0       8       1
       1       0       8       1       1       0       8       1       1       0
       8       1       1       0       8       1       1       0       8       1
       1       0       8       1       1       0       8       1       1       0
       8       1       1       0       8       1       1       0       8       1
       1       0       8       1       1       0       8       1       1       0
       8       1       1       0       8       1       1       0       8       1
       1       0       8       1       1       0       8       1       1       0
       8       1       1       0       8       1       1       0       8       1
       1       0       8       1       1       0       8       1       1       0
       8       1       1       0       8       1       1       0       8       1
       1       0       8       1       1       0       8       1       1       0
       8       1       1       0       8       1       1       0       8       1
       1       0       8       1       1       0       8       1       1       0
       8       1       1       0       8       1       1       0       8       1
       1       0       8       1       1       0       8       1       1       0
       8       1       1       0       8       1       1       0       8       1
       1       0       8       1       1       0       8       1       1       0
       8       1       1       0       8       1       1       0       8       1
       1       0       8       1       1       0       8       1       1       0
       8       1       1       0       8       1       1       0       8       1
       1       0       8       1       1       0       8       1       1       0
       8       1       1       0       8       1       1       0       8       1
       1       0       8       1       1       0       8       1       1       0
       8       1       1       0       8       1       1       0       8       1
       1       0       8       1       1       0       8       1       1       0
       8       1       1       0       8       1       1       0       8       1
       1       0       8       1       1       0       8       1       1       0
       8       1       1       0       8       1       1       0       8       1
       1       0       8       1       1       0       8       1       1       0
       8       1       1       0       8       1       1       0       8       1
       1       0       8       1       1       0       8       1       1       0
       8       1       1       0       8       1       1       0       8       1
       1       0       8       1       1       0       8       1       1       0
       8       1       1       0       8       1       1       0       8       1
       1       0       8       1       1       0       8       1       1       0
       8       1       1       0       8       1       1       0       8       1
       1       0       8       1       1       0       8       1       1       0
       8       1       1       0       8       1       1       0       8       1
       1       0       8       1       1       0       8       1       1       0
       8       1       1       0       8       1       1       0       8       1
       1       0       8       1       1       0       8       1       1       0
       8       1       1       0       8       1       1       0       8       1
       1       0       8       1       1       0       8       1       1       0
       8       1       1       0       8       1       1       0       8       1
       1       0       8       1       1       0       8       1       1       0
       8       1       1       0       8       1       1       0       8       1
       1       0       8       1       1       0       8       1       1       0
       8       1       1       0       8       1       1       0       8       1
       1       0       8       1       1       0       8       1       1       0
       8       1       1       0       8       1       1       0       8       1
       1       0       8       1       1       0       8       1       1       0
       8       1       1       0       8       1       1       0       8       1
       1       0       8       1       1       0       8       1       1       0
       8       1       1       0       8       1       1       0       8       1
       1       0       8       1       1       0       8       1       1       0
       8       1       1       0       8       1       1       0       8       1
       1       0       8       1       1       0       8       1       1       0
       8       1       1       0       8       1       1       0       8       1
       1       0       8       1       1       0       8       1       1       0
       8       1       1       0       8       1       1       0       8       1
       1       0       8       1       1       0       8       1       1       0
       8       1       1       0       8       1       1       0       8       1
       1       0       8       1       1       0       8       1       1       0
       8       1       1       0       8       1       1       0       8       1
       1       0       8       1       1       0       8       1       1       0
       8       1       1       0       8       1       1       0       8       1
       1       0       8       1       1       0       8       1       1       0
       8       1       1       0       8       1       1       0       8       1
       1       0       8       1       1       0       8       1       1       0
       8       1       1       0       8       1       1       0       8       1
       1       0       8       1       1       0       8       1       1       0
       8       1       1       0       8       1       1       0       8       1
       1       0       8       1       1       0       8       1       1       0
       8       1       1       0       8       1       1       0       8       1
       1       0       8       1       1       0       8       1       1       0
       8       1       1       0       8       1       1       0       8       1
       1       0       8       1       1       0       8       1       1       0
       8       1       1       0       8       1       1       0       8       1
       1       0       8       1       1       0       8       1       1       0
       8       1       1       0       8       1       1       0       8       1
       1       0       8       1       1       0       8       1       1       0
       8       1       1       0       8       1       1       0       8       1
       1       0       8       1       1       0       8       1       1       0
       8       1       1       0       8       1       1       0       8       1
       1       0       8       1       1       0       8       1       1       0
       8       1       1       0       8       1       1       0       8       1
       1       0       8       1       1       0       8       1       1       0
       8       1       1       0       8       1       1       0       8       1
       1       0       8       1       1       0       8       1       1       0
       8       1       1       0       8       1       1       0       8       1
       1       0       8       1       1       0       8       1       1       0
       8       1       1       0       8       1       1       0       8       1
       1       0       8       1       1       0       8       1       1       0
       8       1       1       0       8       1       1       0       8       1
       1       0       8       1       1       0       8       1       1       0
       8       1       1       0       8       1       1       0       8       1
       1       0       8       1       1       0       8       1       1       0
       8       1       1       0       8       1       1       0       8       1
       1       0       8       1       1       0       8       1       1       0
       8       1       1       0       8       1       1       0       8       1
       1       0       8       1       1       0       8       1       1       0
       8       1       1       0       8       1       1       0       8       1
       1       0       8       1       1       0       8       1       1       0
       8       1       1       0       8       1       1       0       8       1
       1       0       8       1       1       0       8       1       1       0
       8       1       1       0       8       1       1       0       8       1
       1       0       8       1       1       0       8       1       1       0
       8       1       1       0       8       1       1       0       8       1
       1       0       8       1       1       0       8       1       1       0
       8       1       1       0       8       1       1       0       8       1
       1       0       8       1       1       0       8       1       1       0
       8       1       1       0       8       1       1       0       8       1
       1       0       8       1       1       0       8       1       1       0
       8       1       1       0       8       1       1       0       8       1
       1       0       8       1       1       0       8       1       1       0
       8       1       1       0       8       1       1       0       8       1
       1       0       8       1       1       0       8       1       1       0
       8       1       1       0       8       1       1       0       8       1
       1       0       8       1       1       0       8       1       1       0
       8       1       1       0       8       1       1       0       8       1
       1       0       8       1       1       0       8       1       1       0
       8       1       1       0       8       1       1       0       8       1
       1       0       8       1       1       0       8       1       1       0
       8       1       1       0       8       1       1       0       8       1
       1       0       8       1       1       0       8       1       1       0
       8       1       1       0       8       1       1       0       8       1
       1       0       8       1       1       0       8       1       1       0
       8       1       1       0       8       1       1       0       8       1
       1       0       8       1       1       0       8       1       1       0
       8       1       1       0       8       1       1       0       8       1
       1       0       8       1       1       0       8       1       1       0
       8       1       1       0       8       1       1       0       8       1
       1       0       8       1       1       0       8       1       1       0
       8       1       1       0       8       1       1       0       8       1
       1       0       8       1       1       0       8       1       1       0
       8       1       1       0       8       1       1       0       8       1
       1       0       8       1       1       0       8       1       1       0
       8       1       1       0       8       1       1       0       8       1
       1       0       8       1       1       0       8       1       1       0
       8       1       1       0       8       1       1       0       8       1
       1       0       8       1       1       0       8       1       1       0
       8       1       1       0       8       1       1       0       8       1
       1       0       8       1       1       0       8       1       1       0
       8       1       1       0       8       1       1       0       8       1
       1       0       8       1       1       0       8       1       1       0
       8       1       1       0       8       1       1       0       8       1
       1       0       8       1       1       0       8       1       1       0
       8       1       1       0       8       1       1       0       8       1
       1       0       8       1       1       0       8       1       1       0
       8       1       1       0       8       1       1       0       8       1
       1       0       8       1       1       0       8       1       1       0
       8       1       1       0       8       1       1       0       8       1
       1       0       8       1       1       0       8       1       1       0
       8       1       1       0       8       1       1       0       8       1
       1       0       8       1       1       0       8       1       1       0
       8       1       1       0       8       1       1       0       8       1
       1       0       8       1       1       0       8       1       1       0
       8       1       1       0       8       1       1       0       8       1
       1       0       8       1       1       0       8       1       1       0
       8       1       1       0       8       1       1       0       8       1
       1       0       8       1       1       0       8       1       1       0
       8       1       1       0       8       1       1       0       8       1
       1       0       8       1       1       0       8       1       1       0
       8       1       1       0       8       1       1       0       8       1
       1       0       8       1       1       0       8       1       1       0
       8       1       1       0       8       1       1       0       8       1
       1       0       8       1       1       0       8       1       1       0
       8       1       1       0       8       1       1       0       8       1
       1       0       8       1       1       0       8       1       1       0
       8       1       1       0       8       1       1       0       8       1
       1       0       8       1       1       0       8       1       1       0
       8       1       1       0       8       1       1       0       8       1
       1       0       8       1       1       0       8       1       1       0
       8       1       1       0       8       1       1       0       8       1
       1       0       8       1       1       0       8       1       1       0
       8       1       1       0       8       1       1       0       8       1
       1       0       8       1       1       0       8       1       1       0
       8       1       1       0       8       1       1       0       8       1
       1       0       8       1       1       0       8       1       1       0
       8       1       1       0       8       1       1       0       8       1
       1       0       8       1       1       0       8       1       1       0
       8       1       1       0       8       1       1       0       8       1
       1       0       8       1       1       0       8       1       1       0
       8       1       1       0       8       1       1       0       8       1
       1       0       8       1       1       0       8       1       1       0
       8       1       1       0       8       1       1       0       8       1
       1       0       8       1       1       0       8       1       1       0
       8       1       1       0       8       1       1       0       8       1
       1       0       8       1       1       0       8       1       1       0
       8       1       1       0       8       1       1       0       8       1
       1       0       8       1       1       0       8       1       1       0
       8       1       1       0       8       1       1       0       8       1
       1       0       8       1       1       0       8       1       1       0
       8       1       1       0       8       1       1       0       8       1
       1       0       8       1       1       0       8       1       1       0
       8       1       1       0       8       1       1       0       8       1
       1       0       8       1       1       0       8       1       1       0
       8       1       1       0       8       1       1       0       8       1
       1       0       8       1       1       0       8       1       1       0
       8       1       1       0       8       1       1       0       8       1
       1       0       8       1       1       0       8       1       1       0
       8       1       1       0       8       1       1       0       8       1
       1       0       8       1       1       0       8       1       1       0
       8       1       1       0       8       1       1       0       8       1
       1       0       8       1       1       0       8       1       1       0
       8       1       1       0       8       1       1       0       8       1
       1       0       8       1       1       0       8       1       1       0
       8       1       1       0       8       1       1       0       8       1
       1       0       8       1       1       0       8       1       1       0
       8       1       1       0       8       1       1       0       8       1
       1       0       8       1       1       0       8       1       1       0
       8       1       1       0       8       1       1       0       8       1
       1       0       8       1       1       0       8       1       1       0
       8       1       1       0       8       1       1       0       8       1
       1       0       8       1       1       0       8       1       1       0
       8       1       1       0       8       1       1       0       8       1
       1       0       8       1       1       0       8       1       1       0
       8       1       1       0       8       1       1       0       8       1
       1       0       8       1       1       0       8       1       1       0
       8       1       1       0       8       1       1       0       8       1
       1       0       8       1       1       0       8       1       1       0
       8       1       1       0       8       1       1       0       8       1
       1       0       8       1       1       0       8       1       1       0
       8       1       1       0       8       1       1       0       8       1
       1       0       8       1       1       0       8       1       1       0
       8       1       1       0       8       1       1       0       8       1
       1       0       8       1       1       0       8       1       1       0
       8       1       1       0       8       1       1       0       8       1
       1       0       8       1       1       0       8       1       1       0
       8       1       1       0       8       1       1       0       8       1
       1       0       8       1       1       0       8       1       1       0
       8       1       1       0       8       1       1       0       8       1
       1       0       8       1       1       0       8       1       1       0
       8       1       1       0       8       1       1       0       8       1
       1       0       8       1       1       0       8       1       1       0
       8       1       1       0       8       1       1       0       8       1
       1       0       8       1       1       0       8       1       1       0
       8       1       1       0       8       1       1       0       8       1
       1       0       8       1       1       0       8       1       1       0
       8       1       1       0       8       1       1       0       8       1
       1       0       8       1       1       0       8       1       1       0
       8       1       1       0       8       1       1       0       8       1
       1       0       8       1       1       0       8       1       1       0
       8       1       1       0       8       1       1       0       8       1
       1       0       8       1       1       0       8       1       1       0
       8       1       1       0       8       1       1       0       8       1
       1       0       8       1       1       0       8       1       1       0
       8       1       1       0       8       1       1       0       8       1
       1       0       8       1       1       0       8       1       1       0
       8       1       1       0       8       1       1       0       8       1
       1       0       8       1       1       0       8       1       1       0
       8       1       1       0       8       1       1       0       8       1
       1       0       8       1       1       0       8       1       1       0
       8       1       1       0       8       1       1       0       8       1
       1       0       8       1       1       0       8       1       1       0
       8       1       1       0       8       1       1       0       8       1
       1       0       8       1       1       0       8       1       1       0
       8       1       1       0       8       1       1       0       8       1
       1       0       8       1       1       0       8       1       1       0
       8       1       1       0       8       1       1       0       8       1
       1       0       8       1       1       0       8       1       1       0
       8       1       1       0       8       1       1       0       8       1
       1       0       8       1       1       0       8       1       1       0
       8       1       1       0       8       1       1       0       8       1
       1       0       8       1       1       0       8       1       1       0
       8       1       1       0       8       1       1       0       8       1
       1       0       8       1       1       0       8       1       1       0
       8       1       1       0       8       1       1       0       8       1
       1       0       8       1       1       0       8       1       1       0
       8       1       1       0       8       1       1       0       8       1
       1       0       8       1       1       0       8       1       1       0
       8       1       1       0       8       1       1       0       8       1
       1       0       8       1       1       0       8       1       1       0
       8       1       1       0       8       1       1       0       8       1
       1       0       8       1       1       0       8       1       1       0
       8       1       1       0       8       1       1       0       8       1
       1       0       8       1       1       0       8       1       1       0
       8       1       1       0       8       1       1       0       8       1
       1       0       8       1       1       0       8       1       1       0
       8       1       1       0       8       1       1       0       8       1
       1       0       8       1       1       0       8       1       1       0
       8       1       1       0       8       1       1       0       8       1
       1       0       8       1       1       0       8       1       1       0
       8       1       1       0       8       1       1       0       8       1
       1       0       8       1       1       0       8       1       1       0
       8       1       1       0       8       1       1       0       8       1
       1       0       8       1       1       0       8       1       1       0
       8       1       1       0       8       1       1       0       8       1
       1       0       8       1       1       0       8       1       1       0
       8       1       1       0       8       1       1       0       8       1
       1       0       8       1       1       0       8       1       1       0
       8       1       1       0       8       1       1       0       8       1
       1       0       8       1       1       0       8       1       1       0
       8       1       1       0       8       1       1       0       8       1
       1       0       8       1       1       0       8       1       1       0
       8       1       1       0       8       1       1       0       8       1
       1       0       8       1       1       0       8       1       1       0
       8       1       1       0       8       1       1       0       8       1
       1       0       8       1       1       0       8       1       1       0
       8       1       1       0       8       1       1       0       8       1
       1       0       8       1       1       0       8       1       1       0
       8       1       1       0       8       1       1       0       8       1
       1       0       8       1       1       0       8       1       1       0
       8       1       1       0       8       1       1       0       8       1
       1       0       8       1       1       0       8       1       1       0
       8       1       1       0       8       1       1       0       8       1
       1       0       8       1       1       0       8       1       1       0
       8       1       1       0       8       1       1       0       8       1
       1       0       8       1       1       0       8       1       1       0
       8       1       1       0       8       1       1       0       8       1
       1       0       8       1       1       0       8       1       1       0
       8       1       1       0       8       1       1       0       8       1
       1       0       8       1       1       0       8       1       1       0
       8       1       1       0       8       1       1       0       8       1
       1       0       8       1       1       0
%FLAG MASS                                                                      
%FORMAT(5E16.8)                                                                 
  1.00800000E+00  1.20100000E+01  1.00800000E+00  1.00800000E+00  1.20100000E+01
  1.60000000E+01  1.40100000E+01  1.00800000E+00  1.20100000E+01  1.00800000E+00
  1.20100000E+01  1.00800000E+00  1.00800000E+00  1.00800000E+00  1.20100000E+01
  1.60000000E+01  1.40100000E+01  1.20100000E+01  1.00800000E+00  1.00800000E+00
  1.20100000E+01  1.00800000E+00  1.00800000E+00  1.20100000E+01  1.00800000E+00
  1.00800000E+00  1.20100000E+01  1.00800000E+00  1.20100000E+01  1.60000000E+01
  1.40100000E+01  1.00800000E+00  1.20100000E+01  1.00800000E+00  1.20100000E+01
  1.00800000E+00  1.00800000E+00  1.00800000E+00  1.20100000E+01  1.60000000E+01
  1.40100000E+01  1.00800000E+00  1.20100000E+01  1.00800000E+00  1.00800000E+00
  1.00800000E+00  1.60000000E+01  1.00800000E+00  1.00800000E+00  0.00000000E+00
  1.60000000E+01  1.00800000E+00  1.00800000E+00  0.00000000E+00  1.60000000E+01
  1.00800000E+00  1.00800000E+00  0.00000000E+00  1.60000000E+01  1.00800000E+00
  1.00800000E+00  0.00000000E+00  1.60000000E+01  1.00800000E+00  1.00800000E+00
  0.00000000E+00  1.60000000E+01  1.00800000E+00  1.00800000E+00  0.00000000E+00
  1.60000000E+01  1.00800000E+00  1.00800000E+00  0.00000000E+00  1.60000000E+01
  1.00800000E+00  1.00800000E+00  0.00000000E+00  1.60000000E+01  1.00800000E+00
  1.00800000E+00  0.00000000E+00  1.60000000E+01  1.00800000E+00  1.00800000E+00
  0.00000000E+00  1.60000000E+01  1.00800000E+00  1.00800000E+00  0.00000000E+00
  1.60000000E+01  1.00800000E+00  1.00800000E+00  0.00000000E+00  1.60000000E+01
  1.00800000E+00  1.00800000E+00  0.00000000E+00  1.60000000E+01  1.00800000E+00
  1.00800000E+00  0.00000000E+00  1.60000000E+01  1.00800000E+00  1.00800000E+00
  0.00000000E+00  1.60000000E+01  1.00800000E+00  1.00800000E+00  0.00000000E+00
  1.60000000E+01  1.00800000E+00  1.00800000E+00  0.00000000E+00  1.60000000E+01
  1.00800000E+00  1.00800000E+00  0.00000000E+00  1.60000000E+01  1.00800000E+00
  1.00800000E+00  0.00000000E+00  1.60000000E+01  1.00800000E+00  1.00800000E+00
  0.00000000E+00  1.60000000E+01  1.00800000E+00  1.00800000E+00  0.00000000E+00
  1.60000000E+01  1.00800000E+00  1.00800000E+00  0.00000000E+00  1.60000000E+01
  1.00800000E+00  1.00800000E+00  0.00000000E+00  1.60000000E+01  1.00800000E+00
  1.00800000E+00  0.00000000E+00  1.60000000E+01  1.00800000E+00  1.00800000E+00
  0.00000000E+00  1.60000000E+01  1.00800000E+00  1.00800000E+00  0.00000000E+00
  1.60000000E+01  1.00800000E+00  1.00800000E+00  0.00000000E+00  1.60000000E+01
  1.00800000E+00  1.00800000E+00  0.00000000E+00  1.60000000E+01  1.00800000E+00
  1.00800000E+00  0.00000000E+00  1.60000000E+01  1.00800000E+00  1.00800000E+00
  0.00000000E+00  1.60000000E+01  1.00800000E+00  1.00800000E+00  0.00000000E+00
  1.60000000E+01  1.00800000E+00  1.00800000E+00  0.00000000E+00  1.60000000E+01
  1.00800000E+00  1.00800000E+00  0.00000000E+00  1.60000000E+01  1.00800000E+00
  1.00800000E+00  0.00000000E+00  1.60000000E+01  1.00800000E+00  1.00800000E+00
  0.00000000E+00  1.60000000E+01  1.00800000E+00  1.00800000E+00  0.00000000E+00
  1.60000000E+01  1.00800000E+00  1.00800000E+00  0.00000000E+00  1.60000000E+01
  1.00800000E+00  1.00800000E+00  0.00000000E+00  1.60000000E+01  1.00800000E+00
  1.00800000E+00  0.00000000E+00  1.60000000E+01  1.00800000E+00  1.00800000E+00
  0.00000000E+00  1.60000000E+01  1.00800000E+00  1.00800000E+00  0.00000000E+00
  1.60000000E+01  1.00800000E+00  1.00800000E+00  0.00000000E+00  1.60000000E+01
  1.00800000E+00  1.00800000E+00  0.00000000E+00  1.60000000E+01  1.00800000E+00
  1.00800000E+00  0.00000000E+00  1.60000000E+01  1.00800000E+00  1.00800000E+00
  0.00000000E+00  1.60000000E+01  1.00800000E+00  1.00800000E+00  0.00000000E+00
  1.60000000E+01  1.00800000E+00  1.00800000E+00  0.00000000E+00  1.60000000E+01
  1.00800000E+00  1.00800000E+00  0.00000000E+00  1.60000000E+01  1.00800000E+00
  1.00800000E+00  0.00000000E+00  1.60000000E+01  1.00800000E+00  1.00800000E+00
  0.00000000E+00  1.60000000E+01  1.00800000E+00  1.00800000E+00  0.00000000E+00
  1.60000000E+01  1.00800000E+00  1.00800000E+00  0.00000000E+00  1.60000000E+01
  1.00800000E+00  1.00800000E+00  0.00000000E+00  1.60000000E+01  1.00800000E+00
  1.00800000E+00  0.00000000E+00  1.60000000E+01  1.00800000E+00  1.00800000E+00
  0.00000000E+00  1.60000000E+01  1.00800000E+00  1.00800000E+00  0.00000000E+00
  1.60000000E+01  1.00800000E+00  1.00800000E+00  0.00000000E+00  1.60000000E+01
  1.00800000E+00  1.00800000E+00  0.00000000E+00  1.60000000E+01  1.00800000E+00
  1.00800000E+00  0.00000000E+00  1.60000000E+01  1.00800000E+00  1.00800000E+00
  0.00000000E+00  1.60000000E+01  1.00800000E+00  1.00800000E+00  0.00000000E+00
  1.60000000E+01  1.00800000E+00  1.00800000E+00  0.00000000E+00  1.60000000E+01
  1.00800000E+00  1.00800000E+00  0.00000000E+00  1.60000000E+01  1.00800000E+00
  1.00800000E+00  0.00000000E+00  1.60000000E+01  1.00800000E+00  1.00800000E+00
  0.00000000E+00  1.60000000E+01  1.00800000E+00  1.00800000E+00  0.00000000E+00
  1.60000000E+01  1.00800000E+00  1.00800000E+00  0.00000000E+00  1.60000000E+01
  1.00800000E+00  1.00800000E+00  0.00000000E+00  1.60000000E+01  1.00800000E+00
  1.00800000E+00  0.00000000E+00  1.60000000E+01  1.00800000E+00  1.00800000E+00
  0.00000000E+00  1.60000000E+01  1.00800000E+00  1.00800000E+00  0.00000000E+00
  1.60000000E+01  1.00800000E+00  1.00800000E+00  0.00000000E+00  1.60000000E+01
  1.00800000E+00  1.00800000E+00  0.00000000E+00  1.60000000E+01  1.00800000E+00
  1.00800000E+00  0.00000000E+00  1.60000000E+01  1.00800000E+00  1.00800000E+00
  0.00000000E+00  1.60000000E+01  1.00800000E+00  1.00800000E+00  0.00000000E+00
  1.60000000E+01  1.00800000E+00  1.00800000E+00  0.00000000E+00  1.60000000E+01
  1.00800000E+00  1.00800000E+00  0.00000000E+00  1.60000000E+01  1.00800000E+00
  1.00800000E+00  0.00000000E+00  1.60000000E+01  1.00800000E+00  1.00800000E+00
  0.00000000E+00  1.60000000E+01  1.00800000E+00  1.00800000E+00  0.00000000E+00
  1.60000000E+01  1.00800000E+00  1.00800000E+00  0.00000000E+00  1.60000000E+01
  1.00800000E+00  1.00800000E+00  0.00000000E+00  1.60000000E+01  1.00800000E+00
  1.00800000E+00  0.00000000E+00  1.60000000E+01  1.00800000E+00  1.00800000E+00
  0.00000000E+00  1.60000000E+01  1.00800000E+00  1.00800000E+00  0.00000000E+00
  1.60000000E+01  1.00800000E+00  1.00800000E+00  0.00000000E+00  1.60000000E+01
  1.00800000E+00  1.00800000E+00  0.00000000E+00  1.60000000E+01  1.00800000E+00
  1.00800000E+00  0.00000000E+00  1.60000000E+01  1.00800000E+00  1.00800000E+00
  0.00000000E+00  1.60000000E+01  1.00800000E+00  1.00800000E+00  0.00000000E+00
  1.60000000E+01  1.00800000E+00  1.00800000E+00  0.00000000E+00  1.60000000E+01
  1.00800000E+00  1.00800000E+00  0.00000000E+00  1.60000000E+01  1.00800000E+00
  1.00800000E+00  0.00000000E+00  1.60000000E+01  1.00800000E+00  1.00800000E+00
  0.00000000E+00  1.60000000E+01  1.00800000E+00  1.00800000E+00  0.00000000E+00
  1.60000000E+01  1.00800000E+00  1.00800000E+00  0.00000000E+00  1.60000000E+01
  1.00800000E+00  1.00800000E+00  0.00000000E+00  1.60000000E+01  1.00800000E+00
  1.00800000E+00  0.00000000E+00  1.60000000E+01  1.00800000E+00  1.00800000E+00
  0.00000000E+00  1.60000000E+01  1.00800000E+00  1.00800000E+00  0.00000000E+00
  1.60000000E+01  1.00800000E+00  1.00800000E+00  0.00000000E+00  1.60000000E+01
  1.00800000E+00  1.00800000E+00  0.00000000E+00  1.60000000E+01  1.00800000E+00
  1.00800000E+00  0.00000000E+00  1.60000000E+01  1.00800000E+00  1.00800000E+00
  0.00000000E+00  1.60000000E+01  1.00800000E+00  1.00800000E+00  0.00000000E+00
  1.60000000E+01  1.00800000E+00  1.00800000E+00  0.00000000E+00  1.60000000E+01
  1.00800000E+00  1.00800000E+00  0.00000000E+00  1.60000000E+01  1.00800000E+00
  1.00800000E+00  0.00000000E+00  1.60000000E+01  1.00800000E+00  1.00800000E+00
  0.00000000E+00  1.60000000E+01  1.00800000E+00  1.00800000E+00  0.00000000E+00
  1.60000000E+01  1.00800000E+00  1.00800000E+00  0.00000000E+00  1.60000000E+01
  1.00800000E+00  1.00800000E+00  0.00000000E+00  1.60000000E+01  1.00800000E+00
  1.00800000E+00  0.00000000E+00  1.60000000E+01  1.00800000E+00  1.00800000E+00
  0.00000000E+00  1.60000000E+01  1.00800000E+00  1.00800000E+00  0.00000000E+00
  1.60000000E+01  1.00800000E+00  1.00800000E+00  0.00000000E+00  1.60000000E+01
  1.00800000E+00  1.00800000E+00  0.00000000E+00  1.60000000E+01  1.00800000E+00
  1.00800000E+00  0.00000000E+00  1.60000000E+01  1.00800000E+00  1.00800000E+00
  0.00000000E+00  1.60000000E+01  1.00800000E+00  1.00800000E+00  0.00000000E+00
  1.60000000E+01  1.00800000E+00  1.00800000E+00  0.00000000E+00  1.60000000E+01
  1.00800000E+00  1.00800000E+00  0.00000000E+00  1.60000000E+01  1.00800000E+00
  1.00800000E+00  0.00000000E+00  1.60000000E+01  1.00800000E+00  1.00800000E+00
  0.00000000E+00  1.60000000E+01  1.00800000E+00  1.00800000E+00  0.00000000E+00
  1.60000000E+01  1.00800000E+00  1.00800000E+00  0.00000000E+00  1.60000000E+01
  1.00800000E+00  1.00800000E+00  0.00000000E+00  1.60000000E+01  1.00800000E+00
  1.00800000E+00  0.00000000E+00  1.60000000E+01  1.00800000E+00  1.00800000E+00
  0.00000000E+00  1.60000000E+01  1.00800000E+00  1.00800000E+00  0.00000000E+00
  1.60000000E+01  1.00800000E+00  1.00800000E+00  0.00000000E+00  1.60000000E+01
  1.00800000E+00  1.00800000E+00  0.00000000E+00  1.60000000E+01  1.00800000E+00
  1.00800000E+00  0.00000000E+00  1.60000000E+01  1.00800000E+00  1.00800000E+00
  0.00000000E+00  1.60000000E+01  1.00800000E+00  1.00800000E+00  0.00000000E+00
  1.60000000E+01  1.00800000E+00  1.00800000E+00  0.00000000E+00  1.60000000E+01
  1.00800000E+00  1.00800000E+00  0.00000000E+00  1.60000000E+01  1.00800000E+00
  1.00800000E+00  0.00000000E+00  1.60000000E+01  1.00800000E+00  1.00800000E+00
  0.00000000E+00  1.60000000E+01  1.00800000E+00  1.00800000E+00  0.00000000E+00
  1.60000000E+01  1.00800000E+00  1.00800000E+00  0.00000000E+00  1.60000000E+01
  1.00800000E+00  1.00800000E+00  0.00000000E+00  1.60000000E+01  1.00800000E+00
  1.00800000E+00  0.00000000E+00  1.60000000E+01  1.00800000E+00  1.00800000E+00
  0.00000000E+00  1.60000000E+01  1.00800000E+00  1.00800000E+00  0.00000000E+00
  1.60000000E+01  1.00800000E+00  1.00800000E+00  0.00000000E+00  1.60000000E+01
  1.00800000E+00  1.00800000E+00  0.00000000E+00  1.60000000E+01  1.00800000E+00
  1.00800000E+00  0.00000000E+00  1.60000000E+01  1.00800000E+00  1.00800000E+00
  0.00000000E+00  1.60000000E+01  1.00800000E+00  1.00800000E+00  0.00000000E+00
  1.60000000E+01  1.00800000E+00  1.00800000E+00  0.00000000E+00  1.60000000E+01
  1.00800000E+00  1.00800000E+00  0.00000000E+00  1.60000000E+01  1.00800000E+00
  1.00800000E+00  0.00000000E+00  1.60000000E+01  1.00800000E+00  1.00800000E+00
  0.00000000E+00  1.60000000E+01  1.00800000E+00  1.00800000E+00  0.00000000E+00
  1.60000000E+01  1.00800000E+00  1.00800000E+00  0.00000000E+00  1.60000000E+01
  1.00800000E+00  1.00800000E+00  0.00000000E+00  1.60000000E+01  1.00800000E+00
  1.00800000E+00  0.00000000E+00  1.60000000E+01  1.00800000E+00  1.00800000E+00
  0.00000000E+00  1.60000000E+01  1.00800000E+00  1.00800000E+00  0.00000000E+00
  1.60000000E+01  1.00800000E+00  1.00800000E+00  0.00000000E+00  1.60000000E+01
  1.00800000E+00  1.00800000E+00  0.00000000E+00  1.60000000E+01  1.00800000E+00
  1.00800000E+00  0.00000000E+00  1.60000000E+01  1.00800000E+00  1.00800000E+00
  0.00000000E+00  1.60000000E+01  1.00800000E+00  1.00800000E+00  0.00000000E+00
  1.60000000E+01  1.00800000E+00  1.00800000E+00  0.00000000E+00  1.60000000E+01
  1.00800000E+00  1.00800000E+00  0.00000000E+00  1.60000000E+01  1.00800000E+00
  1.00800000E+00  0.00000000E+00  1.60000000E+01  1.00800000E+00  1.00800000E+00
  0.00000000E+00  1.60000000E+01  1.00800000E+00  1.00800000E+00  0.00000000E+00
  1.60000000E+01  1.00800000E+00  1.00800000E+00  0.00000000E+00  1.60000000E+01
  1.00800000E+00  1.00800000E+00  0.00000000E+00  1.60000000E+01  1.00800000E+00
  1.00800000E+00  0.00000000E+00  1.60000000E+01  1.00800000E+00  1.00800000E+00
  0.00000000E+00  1.60000000E+01  1.00800000E+00  1.00800000E+00  0.00000000E+00
  1.60000000E+01  1.00800000E+00  1.00800000E+00  0.00000000E+00  1.60000000E+01
  1.00800000E+00  1.00800000E+00  0.00000000E+00  1.60000000E+01  1.00800000E+00
  1.00800000E+00  0.00000000E+00  1.60000000E+01  1.00800000E+00  1.00800000E+00
  0.00000000E+00  1.60000000E+01  1.00800000E+00  1.00800000E+00  0.00000000E+00
  1.60000000E+01  1.00800000E+00  1.00800000E+00  0.00000000E+00  1.60000000E+01
  1.00800000E+00  1.00800000E+00  0.00000000E+00  1.60000000E+01  1.00800000E+00
  1.00800000E+00  0.00000000E+00  1.60000000E+01  1.00800000E+00  1.00800000E+00
  0.00000000E+00  1.60000000E+01  1.00800000E+00  1.00800000E+00  0.00000000E+00
  1.60000000E+01  1.00800000E+00  1.00800000E+00  0.00000000E+00  1.60000000E+01
  1.00800000E+00  1.00800000E+00  0.00000000E+00  1.60000000E+01  1.00800000E+00
  1.00800000E+00  0.00000000E+00  1.60000000E+01  1.00800000E+00  1.00800000E+00
  0.00000000E+00  1.60000000E+01  1.00800000E+00  1.00800000E+00  0.00000000E+00
  1.60000000E+01  1.00800000E+00  1.00800000E+00  0.00000000E+00  1.60000000E+01
  1.00800000E+00  1.00800000E+00  0.00000000E+00  1.60000000E+01  1.00800000E+00
  1.00800000E+00  0.00000000E+00  1.60000000E+01  1.00800000E+00  1.00800000E+00
  0.00000000E+00  1.60000000E+01  1.00800000E+00  1.00800000E+00  0.00000000E+00
  1.60000000E+01  1.00800000E+00  1.00800000E+00  0.00000000E+00  1.60000000E+01
  1.00800000E+00  1.00800000E+00  0.00000000E+00  1.60000000E+01  1.00800000E+00
  1.00800000E+00  0.00000000E+00  1.60000000E+01  1.00800000E+00  1.00800000E+00
  0.00000000E+00  1.60000000E+01  1.00800000E+00  1.00800000E+00  0.00000000E+00
  1.60000000E+01  1.00800000E+00  1.00800000E+00  0.00000000E+00  1.60000000E+01
  1.00800000E+00  1.00800000E+00  0.00000000E+00  1.60000000E+01  1.00800000E+00
  1.00800000E+00  0.00000000E+00  1.60000000E+01  1.00800000E+00  1.00800000E+00
  0.00000000E+00  1.60000000E+01  1.00800000E+00  1.00800000E+00  0.00000000E+00
  1.60000000E+01  1.00800000E+00  1.00800000E+00  0.00000000E+00  1.60000000E+01
  1.00800000E+00  1.00800000E+00  0.00000000E+00  1.60000000E+01  1.00800000E+00
  1.00800000E+00  0.00000000E+00  1.60000000E+01  1.00800000E+00  1.00800000E+00
  0.00000000E+00  1.60000000E+01  1.00800000E+00  1.00800000E+00  0.00000000E+00
  1.60000000E+01  1.00800000E+00  1.00800000E+00  0.00000000E+00  1.60000000E+01
  1.00800000E+00  1.00800000E+00  0.00000000E+00  1.60000000E+01  1.00800000E+00
  1.00800000E+00  0.00000000E+00  1.60000000E+01  1.00800000E+00  1.00800000E+00
  0.00000000E+00  1.60000000E+01  1.00800000E+00  1.00800000E+00  0.00000000E+00
  1.60000000E+01  1.00800000E+00  1.00800000E+00  0.00000000E+00  1.60000000E+01
  1.00800000E+00  1.00800000E+00  0.00000000E+00  1.60000000E+01  1.00800000E+00
  1.00800000E+00  0.00000000E+00  1.60000000E+01  1.00800000E+00  1.00800000E+00
  0.00000000E+00  1.60000000E+01  1.00800000E+00  1.00800000E+00  0.00000000E+00
  1.60000000E+01  1.00800000E+00  1.00800000E+00  0.00000000E+00  1.60000000E+01
  1.00800000E+00  1.00800000E+00  0.00000000E+00  1.60000000E+01  1.00800000E+00
  1.00800000E+00  0.00000000E+00  1.60000000E+01  1.00800000E+00  1.00800000E+00
  0.00000000E+00  1.60000000E+01  1.00800000E+00  1.00800000E+00  0.00000000E+00
  1.60000000E+01  1.00800000E+00  1.00800000E+00  0.00000000E+00  1.60000000E+01
  1.00800000E+00  1.00800000E+00  0.00000000E+00  1.60000000E+01  1.00800000E+00
  1.00800000E+00  0.00000000E+00  1.60000000E+01  1.00800000E+00  1.00800000E+00
  0.00000000E+00  1.60000000E+01  1.00800000E+00  1.00800000E+00  0.00000000E+00
  1.60000000E+01  1.00800000E+00  1.00800000E+00  0.00000000E+00  1.60000000E+01
  1.00800000E+00  1.00800000E+00  0.00000000E+00  1.60000000E+01  1.00800000E+00
  1.00800000E+00  0.00000000E+00  1.60000000E+01  1.00800000E+00  1.00800000E+00
  0.00000000E+00  1.60000000E+01  1.00800000E+00  1.00800000E+00  0.00000000E+00
  1.60000000E+01  1.00800000E+00  1.00800000E+00  0.00000000E+00  1.60000000E+01
  1.00800000E+00  1.00800000E+00  0.00000000E+00  1.60000000E+01  1.00800000E+00
  1.00800000E+00  0.00000000E+00  1.60000000E+01  1.00800000E+00  1.00800000E+00
  0.00000000E+00  1.60000000E+01  1.00800000E+00  1.00800000E+00  0.00000000E+00
  1.60000000E+01  1.00800000E+00  1.00800000E+00  0.00000000E+00  1.60000000E+01
  1.00800000E+00  1.00800000E+00  0.00000000E+00  1.60000000E+01  1.00800000E+00
  1.00800000E+00  0.00000000E+00  1.60000000E+01  1.00800000E+00  1.00800000E+00
  0.00000000E+00  1.60000000E+01  1.00800000E+00  1.00800000E+00  0.00000000E+00
  1.60000000E+01  1.00800000E+00  1.00800000E+00  0.00000000E+00  1.60000000E+01
  1.00800000E+00  1.00800000E+00  0.00000000E+00  1.60000000E+01  1.00800000E+00
  1.00800000E+00  0.00000000E+00  1.60000000E+01  1.00800000E+00  1.00800000E+00
  0.00000000E+00  1.60000000E+01  1.00800000E+00  1.00800000E+00  0.00000000E+00
  1.60000000E+01  1.00800000E+00  1.00800000E+00  0.00000000E+00  1.60000000E+01
  1.00800000E+00  1.00800000E+00  0.00000000E+00  1.60000000E+01  1.00800000E+00
  1.00800000E+00  0.00000000E+00  1.60000000E+01  1.00800000E+00  1.00800000E+00
  0.00000000E+00  1.60000000E+01  1.00800000E+00  1.00800000E+00  0.00000000E+00
  1.60000000E+01  1.00800000E+00  1.00800000E+00  0.00000000E+00  1.60000000E+01
  1.00800000E+00  1.00800000E+00  0.00000000E+00  1.60000000E+01  1.00800000E+00
  1.00800000E+00  0.00000000E+00  1.60000000E+01  1.00800000E+00  1.00800000E+00
  0.00000000E+00  1.60000000E+01  1.00800000E+00  1.00800000E+00  0.00000000E+00
  1.60000000E+01  1.00800000E+00  1.00800000E+00  0.00000000E+00  1.60000000E+01
  1.00800000E+00  1.00800000E+00  0.00000000E+00  1.60000000E+01  1.00800000E+00
  1.00800000E+00  0.00000000E+00  1.60000000E+01  1.00800000E+00  1.00800000E+00
  0.00000000E+00  1.60000000E+01  1.00800000E+00  1.00800000E+00  0.00000000E+00
  1.60000000E+01  1.00800000E+00  1.00800000E+00  0.00000000E+00  1.60000000E+01
  1.00800000E+00  1.00800000E+00  0.00000000E+00  1.60000000E+01  1.00800000E+00
  1.00800000E+00  0.00000000E+00  1.60000000E+01  1.00800000E+00  1.00800000E+00
  0.00000000E+00  1.60000000E+01  1.00800000E+00  1.00800000E+00  0.00000000E+00
  1.60000000E+01  1.00800000E+00  1.00800000E+00  0.00000000E+00  1.60000000E+01
  1.00800000E+00  1.00800000E+00  0.00000000E+00  1.60000000E+01  1.00800000E+00
  1.00800000E+00  0.00000000E+00  1.60000000E+01  1.00800000E+00  1.00800000E+00
  0.00000000E+00  1.60000000E+01  1.00800000E+00  1.00800000E+00  0.00000000E+00
  1.60000000E+01  1.00800000E+00  1.00800000E+00  0.00000000E+00  1.60000000E+01
  1.00800000E+00  1.00800000E+00  0.00000000E+00  1.60000000E+01  1.00800000E+00
  1.00800000E+00  0.00000000E+00  1.60000000E+01  1.00800000E+00  1.00800000E+00
  0.00000000E+00  1.60000000E+01  1.00800000E+00  1.00800000E+00  0.00000000E+00
  1.60000000E+01  1.00800000E+00  1.00800000E+00  0.00000000E+00  1.60000000E+01
  1.00800000E+00  1.00800000E+00  0.00000000E+00  1.60000000E+01  1.00800000E+00
  1.00800000E+00  0.00000000E+00  1.60000000E+01  1.00800000E+00  1.00800000E+00
  0.00000000E+00  1.60000000E+01  1.00800000E+00  1.00800000E+00  0.00000000E+00
  1.60000000E+01  1.00800000E+00  1.00800000E+00  0.00000000E+00  1.60000000E+01
  1.00800000E+00  1.00800000E+00  0.00000000E+00  1.60000000E+01  1.00800000E+00
  1.00800000E+00  0.00000000E+00  1.60000000E+01  1.00800000E+00  1.00800000E+00
  0.00000000E+00  1.60000000E+01  1.00800000E+00  1.00800000E+00  0.00000000E+00
  1.60000000E+01  1.00800000E+00  1.00800000E+00  0.00000000E+00  1.60000000E+01
  1.00800000E+00  1.00800000E+00  0.00000000E+00  1.60000000E+01  1.00800000E+00
  1.00800000E+00  0.00000000E+00  1.60000000E+01  1.00800000E+00  1.00800000E+00
  0.00000000E+00  1.60000000E+01  1.00800000E+00  1.00800000E+00  0.00000000E+00
  1.60000000E+01  1.00800000E+00  1.00800000E+00  0.00000000E+00  1.60000000E+01
  1.00800000E+00  1.00800000E+00  0.00000000E+00  1.60000000E+01  1.00800000E+00
  1.00800000E+00  0.00000000E+00  1.60000000E+01  1.00800000E+00  1.00800000E+00
  0.00000000E+00  1.60000000E+01  1.00800000E+00  1.00800000E+00  0.00000000E+00
  1.60000000E+01  1.00800000E+00  1.00800000E+00  0.00000000E+00  1.60000000E+01
  1.00800000E+00  1.00800000E+00  0.00000000E+00  1.60000000E+01  1.00800000E+00
  1.00800000E+00  0.00000000E+00  1.60000000E+01  1.00800000E+00  1.00800000E+00
  0.00000000E+00  1.60000000E+01  1.00800000E+00  1.00800000E+00  0.00000000E+00
  1.60000000E+01  1.00800000E+00  1.00800000E+00  0.00000000E+00  1.60000000E+01
  1.00800000E+00  1.00800000E+00  0.00000000E+00  1.60000000E+01  1.00800000E+00
  1.00800000E+00  0.00000000E+00  1.60000000E+01  1.00800000E+00  1.00800000E+00
  0.00000000E+00  1.60000000E+01  1.00800000E+00  1.00800000E+00  0.00000000E+00
  1.60000000E+01  1.00800000E+00  1.00800000E+00  0.00000000E+00  1.60000000E+01
  1.00800000E+00  1.00800000E+00  0.00000000E+00  1.60000000E+01  1.00800000E+00
  1.00800000E+00  0.00000000E+00  1.60000000E+01  1.00800000E+00  1.00800000E+00
  0.00000000E+00  1.60000000E+01  1.00800000E+00  1.00800000E+00  0.00000000E+00
  1.60000000E+01  1.00800000E+00  1.00800000E+00  0.00000000E+00  1.60000000E+01
  1.00800000E+00  1.00800000E+00  0.00000000E+00  1.60000000E+01  1.00800000E+00
  1.00800000E+00  0.00000000E+00  1.60000000E+01  1.00800000E+00  1.00800000E+00
  0.00000000E+00  1.60000000E+01  1.00800000E+00  1.00800000E+00  0.00000000E+00
  1.60000000E+01  1.00800000E+00  1.00800000E+00  0.00000000E+00  1.60000000E+01
  1.00800000E+00  1.00800000E+00  0.00000000E+00  1.60000000E+01  1.00800000E+00
  1.00800000E+00  0.00000000E+00  1.60000000E+01  1.00800000E+00  1.00800000E+00
  0.00000000E+00  1.60000000E+01  1.00800000E+00  1.00800000E+00  0.00000000E+00
  1.60000000E+01  1.00800000E+00  1.00800000E+00  0.00000000E+00  1.60000000E+01
  1.00800000E+00  1.00800000E+00  0.00000000E+00  1.60000000E+01  1.00800000E+00
  1.00800000E+00  0.00000000E+00  1.60000000E+01  1.00800000E+00  1.00800000E+00
  0.00000000E+00  1.60000000E+01  1.00800000E+00  1.00800000E+00  0.00000000E+00
  1.60000000E+01  1.00800000E+00  1.00800000E+00  0.00000000E+00  1.60000000E+01
  1.00800000E+00  1.00800000E+00  0.00000000E+00  1.60000000E+01  1.00800000E+00
  1.00800000E+00  0.00000000E+00  1.60000000E+01  1.00800000E+00  1.00800000E+00
  0.00000000E+00  1.60000000E+01  1.00800000E+00  1.00800000E+00  0.00000000E+00
  1.60000000E+01  1.00800000E+00  1.00800000E+00  0.00000000E+00  1.60000000E+01
  1.00800000E+00  1.00800000E+00  0.00000000E+00  1.60000000E+01  1.00800000E+00
  1.00800000E+00  0.00000000E+00  1.60000000E+01  1.00800000E+00  1.00800000E+00
  0.00000000E+00  1.60000000E+01  1.00800000E+00  1.00800000E+00  0.00000000E+00
  1.60000000E+01  1.00800000E+00  1.00800000E+00  0.00000000E+00  1.60000000E+01
  1.00800000E+00  1.00800000E+00  0.00000000E+00  1.60000000E+01  1.00800000E+00
  1.00800000E+00  0.00000000E+00  1.60000000E+01  1.00800000E+00  1.00800000E+00
  0.00000000E+00  1.60000000E+01  1.00800000E+00  1.00800000E+00  0.00000000E+00
  1.60000000E+01  1.00800000E+00  1.00800000E+00  0.00000000E+00  1.60000000E+01
  1.00800000E+00  1.00800000E+00  0.00000000E+00  1.60000000E+01  1.00800000E+00
  1.00800000E+00  0.00000000E+00  1.60000000E+01  1.00800000E+00  1.00800000E+00
  0.00000000E+00  1.60000000E+01  1.00800000E+00  1.00800000E+00  0.00000000E+00
  1.60000000E+01  1.00800000E+00  1.00800000E+00  0.00000000E+00  1.60000000E+01
  1.00800000E+00  1.00800000E+00  0.00000000E+00  1.60000000E+01  1.00800000E+00
  1.00800000E+00  0.00000000E+00  1.60000000E+01  1.00800000E+00  1.00800000E+00
  0.00000000E+00  1.60000000E+01  1.00800000E+00  1.00800000E+00  0.00000000E+00
  1.60000000E+01  1.00800000E+00  1.00800000E+00  0.00000000E+00  1.60000000E+01
  1.00800000E+00  1.00800000E+00  0.00000000E+00  1.60000000E+01  1.00800000E+00
  1.00800000E+00  0.00000000E+00  1.60000000E+01  1.00800000E+00  1.00800000E+00
  0.00000000E+00  1.60000000E+01  1.00800000E+00  1.00800000E+00  0.00000000E+00
  1.60000000E+01  1.00800000E+00  1.00800000E+00  0.00000000E+00  1.60000000E+01
  1.00800000E+00  1.00800000E+00  0.00000000E+00  1.60000000E+01  1.00800000E+00
  1.00800000E+00  0.00000000E+00  1.60000000E+01  1.00800000E+00  1.00800000E+00
  0.00000000E+00  1.60000000E+01  1.00800000E+00  1.00800000E+00  0.00000000E+00
  1.60000000E+01  1.00800000E+00  1.00800000E+00  0.00000000E+00  1.60000000E+01
  1.00800000E+00  1.00800000E+00  0.00000000E+00  1.60000000E+01  1.00800000E+00
  1.00800000E+00  0.00000000E+00  1.60000000E+01  1.00800000E+00  1.00800000E+00
  0.00000000E+00  1.60000000E+01  1.00800000E+00  1.00800000E+00  0.00000000E+00
  1.60000000E+01  1.00800000E+00  1.00800000E+00  0.00000000E+00  1.60000000E+01
  1.00800000E+00  1.00800000E+00  0.00000000E+00  1.60000000E+01  1.00800000E+00
  1.00800000E+00  0.00000000E+00  1.60000000E+01  1.00800000E+00  1.00800000E+00
  0.00000000E+00  1.60000000E+01  1.00800000E+00  1.00800000E+00  0.00000000E+00
  1.60000000E+01  1.00800000E+00  1.00800000E+00  0.00000000E+00  1.60000000E+01
  1.00800000E+00  1.00800000E+00  0.00000000E+00  1.60000000E+01  1.00800000E+00
  1.00800000E+00  0.00000000E+00  1.60000000E+01  1.00800000E+00  1.00800000E+00
  0.00000000E+00  1.60000000E+01  1.00800000E+00  1.00800000E+00  0.00000000E+00
  1.60000000E+01  1.00800000E+00  1.00800000E+00  0.00000000E+00  1.60000000E+01
  1.00800000E+00  1.00800000E+00  0.00000000E+00  1.60000000E+01  1.00800000E+00
  1.00800000E+00  0.00000000E+00  1.60000000E+01  1.00800000E+00  1.00800000E+00
  0.00000000E+00  1.60000000E+01  1.00800000E+00  1.00800000E+00  0.00000000E+00
  1.60000000E+01  1.00800000E+00  1.00800000E+00  0.00000000E+00  1.60000000E+01
  1.00800000E+00  1.00800000E+00  0.00000000E+00  1.60000000E+01  1.00800000E+00
  1.00800000E+00  0.00000000E+00  1.60000000E+01  1.00800000E+00  1.00800000E+00
  0.00000000E+00  1.60000000E+01  1.00800000E+00  1.00800000E+00  0.00000000E+00
  1.60000000E+01  1.00800000E+00  1.00800000E+00  0.00000000E+00  1.60000000E+01
  1.00800000E+00  1.00800000E+00  0.00000000E+00  1.60000000E+01  1.00800000E+00
  1.00800000E+00  0.00000000E+00  1.60000000E+01  1.00800000E+00  1.00800000E+00
  0.00000000E+00  1.60000000E+01  1.00800000E+00  1.00800000E+00  0.00000000E+00
  1.60000000E+01  1.00800000E+00  1.00800000E+00  0.00000000E+00  1.60000000E+01
  1.00800000E+00  1.00800000E+00  0.00000000E+00  1.60000000E+01  1.00800000E+00
  1.00800000E+00  0.00000000E+00  1.60000000E+01  1.00800000E+00  1.00800000E+00
  0.00000000E+00  1.60000000E+01  1.00800000E+00  1.00800000E+00  0.00000000E+00
  1.60000000E+01  1.00800000E+00  1.00800000E+00  0.00000000E+00  1.60000000E+01
  1.00800000E+00  1.00800000E+00  0.00000000E+00  1.60000000E+01  1.00800000E+00
  1.00800000E+00  0.00000000E+00  1.60000000E+01  1.00800000E+00  1.00800000E+00
  0.00000000E+00  1.60000000E+01  1.00800000E+00  1.00800000E+00  0.00000000E+00
  1.60000000E+01  1.00800000E+00  1.00800000E+00  0.00000000E+00  1.60000000E+01
  1.00800000E+00  1.00800000E+00  0.00000000E+00  1.60000000E+01  1.00800000E+00
  1.00800000E+00  0.00000000E+00  1.60000000E+01  1.00800000E+00  1.00800000E+00
  0.00000000E+00  1.60000000E+01  1.00800000E+00  1.00800000E+00  0.00000000E+00
  1.60000000E+01  1.00800000E+00  1.00800000E+00  0.00000000E+00  1.60000000E+01
  1.00800000E+00  1.00800000E+00  0.00000000E+00  1.60000000E+01  1.00800000E+00
  1.00800000E+00  0.00000000E+00  1.60000000E+01  1.00800000E+00  1.00800000E+00
  0.00000000E+00  1.60000000E+01  1.00800000E+00  1.00800000E+00  0.00000000E+00
  1.60000000E+01  1.00800000E+00  1.00800000E+00  0.00000000E+00  1.60000000E+01
  1.00800000E+00  1.00800000E+00  0.00000000E+00  1.60000000E+01  1.00800000E+00
  1.00800000E+00  0.00000000E+00  1.60000000E+01  1.00800000E+00  1.00800000E+00
  0.00000000E+00  1.60000000E+01  1.00800000E+00  1.00800000E+00  0.00000000E+00
  1.60000000E+01  1.00800000E+00  1.00800000E+00  0.00000000E+00  1.60000000E+01
  1.00800000E+00  1.00800000E+00  0.00000000E+00  1.60000000E+01  1.00800000E+00
  1.00800000E+00  0.00000000E+00  1.60000000E+01  1.00800000E+00  1.00800000E+00
  0.00000000E+00  1.60000000E+01  1.00800000E+00  1.00800000E+00  0.00000000E+00
  1.60000000E+01  1.00800000E+00  1.00800000E+00  0.00000000E+00  1.60000000E+01
  1.00800000E+00  1.00800000E+00  0.00000000E+00  1.60000000E+01  1.00800000E+00
  1.00800000E+00  0.00000000E+00  1.60000000E+01  1.00800000E+00  1.00800000E+00
  0.00000000E+00  1.60000000E+01  1.00800000E+00  1.00800000E+00  0.00000000E+00
  1.60000000E+01  1.00800000E+00  1.00800000E+00  0.00000000E+00  1.60000000E+01
  1.00800000E+00  1.00800000E+00  0.00000000E+00  1.60000000E+01  1.00800000E+00
  1.00800000E+00  0.00000000E+00  1.60000000E+01  1.00800000E+00  1.00800000E+00
  0.00000000E+00  1.60000000E+01  1.00800000E+00  1.00800000E+00  0.00000000E+00
  1.60000000E+01  1.00800000E+00  1.00800000E+00  0.00000000E+00  1.60000000E+01
  1.00800000E+00  1.00800000E+00  0.00000000E+00  1.60000000E+01  1.00800000E+00
  1.00800000E+00  0.00000000E+00  1.60000000E+01  1.00800000E+00  1.00800000E+00
  0.00000000E+00  1.60000000E+01  1.00800000E+00  1.00800000E+00  0.00000000E+00
  1.60000000E+01  1.00800000E+00  1.00800000E+00  0.00000000E+00  1.60000000E+01
  1.00800000E+00  1.00800000E+00  0.00000000E+00  1.60000000E+01  1.00800000E+00
  1.00800000E+00  0.00000000E+00  1.60000000E+01  1.00800000E+00  1.00800000E+00
  0.00000000E+00  1.60000000E+01  1.00800000E+00  1.00800000E+00  0.00000000E+00
  1.60000000E+01  1.00800000E+00  1.00800000E+00  0.00000000E+00  1.60000000E+01
  1.00800000E+00  1.00800000E+00  0.00000000E+00  1.60000000E+01  1.00800000E+00
  1.00800000E+00  0.00000000E+00  1.60000000E+01  1.00800000E+00  1.00800000E+00
  0.00000000E+00  1.60000000E+01  1.00800000E+00  1.00800000E+00  0.00000000E+00
  1.60000000E+01  1.00800000E+00  1.00800000E+00  0.00000000E+00  1.60000000E+01
  1.00800000E+00  1.00800000E+00  0.00000000E+00  1.60000000E+01  1.00800000E+00
  1.00800000E+00  0.00000000E+00  1.60000000E+01  1.00800000E+00  1.00800000E+00
  0.00000000E+00  1.60000000E+01  1.00800000E+00  1.00800000E+00  0.00000000E+00
  1.60000000E+01  1.00800000E+00  1.00800000E+00  0.00000000E+00  1.60000000E+01
  1.00800000E+00  1.00800000E+00  0.00000000E+00  1.60000000E+01  1.00800000E+00
  1.00800000E+00  0.00000000E+00  1.60000000E+01  1.00800000E+00  1.00800000E+00
  0.00000000E+00  1.60000000E+01  1.00800000E+00  1.00800000E+00  0.00000000E+00
  1.60000000E+01  1.00800000E+00  1.00800000E+00  0.00000000E+00  1.60000000E+01
  1.00800000E+00  1.00800000E+00  0.00000000E+00  1.60000000E+01  1.00800000E+00
  1.00800000E+00  0.00000000E+00  1.60000000E+01  1.00800000E+00  1.00800000E+00
  0.00000000E+00  1.60000000E+01  1.00800000E+00  1.00800000E+00  0.00000000E+00
  1.60000000E+01  1.00800000E+00  1.00800000E+00  0.00000000E+00  1.60000000E+01
  1.00800000E+00  1.00800000E+00  0.00000000E+00  1.60000000E+01  1.00800000E+00
  1.00800000E+00  0.00000000E+00  1.60000000E+01  1.00800000E+00  1.00800000E+00
  0.00000000E+00  1.60000000E+01  1.00800000E+00  1.00800000E+00  0.00000000E+00
  1.60000000E+01  1.00800000E+00  1.00800000E+00  0.00000000E+00  1.60000000E+01
  1.00800000E+00  1.00800000E+00  0.00000000E+00  1.60000000E+01  1.00800000E+00
  1.00800000E+00  0.00000000E+00  1.60000000E+01  1.00800000E+00  1.00800000E+00
  0.00000000E+00  1.60000000E+01  1.00800000E+00  1.00800000E+00  0.00000000E+00
  1.60000000E+01  1.00800000E+00  1.00800000E+00  0.00000000E+00  1.60000000E+01
  1.00800000E+00  1.00800000E+00  0.00000000E+00  1.60000000E+01  1.00800000E+00
  1.00800000E+00  0.00000000E+00  1.60000000E+01  1.00800000E+00  1.00800000E+00
  0.00000000E+00  1.60000000E+01  1.00800000E+00  1.00800000E+00  0.00000000E+00
  1.60000000E+01  1.00800000E+00  1.00800000E+00  0.00000000E+00  1.60000000E+01
  1.00800000E+00  1.00800000E+00  0.00000000E+00  1.60000000E+01  1.00800000E+00
  1.00800000E+00  0.00000000E+00  1.60000000E+01  1.00800000E+00  1.00800000E+00
  0.00000000E+00  1.60000000E+01  1.00800000E+00  1.00800000E+00  0.00000000E+00
  1.60000000E+01  1.00800000E+00  1.00800000E+00  0.00000000E+00  1.60000000E+01
  1.00800000E+00  1.00800000E+00  0.00000000E+00  1.60000000E+01  1.00800000E+00
  1.00800000E+00  0.00000000E+00  1.60000000E+01  1.00800000E+00  1.00800000E+00
  0.00000000E+00  1.60000000E+01  1.00800000E+00  1.00800000E+00  0.00000000E+00
  1.60000000E+01  1.00800000E+00  1.00800000E+00  0.00000000E+00  1.60000000E+01
  1.00800000E+00  1.00800000E+00  0.00000000E+00  1.60000000E+01  1.00800000E+00
  1.00800000E+00  0.00000000E+00  1.60000000E+01  1.00800000E+00  1.00800000E+00
  0.00000000E+00  1.60000000E+01  1.00800000E+00  1.00800000E+00  0.00000000E+00
  1.60000000E+01  1.00800000E+00  1.00800000E+00  0.00000000E+00  1.60000000E+01
  1.00800000E+00  1.00800000E+00  0.00000000E+00  1.60000000E+01  1.00800000E+00
  1.00800000E+00  0.00000000E+00  1.60000000E+01  1.00800000E+00  1.00800000E+00
  0.00000000E+00  1.60000000E+01  1.00800000E+00  1.00800000E+00  0.00000000E+00
  1.60000000E+01  1.00800000E+00  1.00800000E+00  0.00000000E+00  1.60000000E+01
  1.00800000E+00  1.00800000E+00  0.00000000E+00  1.60000000E+01  1.00800000E+00
  1.00800000E+00  0.00000000E+00  1.60000000E+01  1.00800000E+00  1.00800000E+00
  0.00000000E+00  1.60000000E+01  1.00800000E+00  1.00800000E+00  0.00000000E+00
  1.60000000E+01  1.00800000E+00  1.00800000E+00  0.00000000E+00  1.60000000E+01
  1.00800000E+00  1.00800000E+00  0.00000000E+00  1.60000000E+01  1.00800000E+00
  1.00800000E+00  0.00000000E+00  1.60000000E+01  1.00800000E+00  1.00800000E+00
  0.00000000E+00  1.60000000E+01  1.00800000E+00  1.00800000E+00  0.00000000E+00
  1.60000000E+01  1.00800000E+00  1.00800000E+00  0.00000000E+00  1.60000000E+01
  1.00800000E+00  1.00800000E+00  0.00000000E+00  1.60000000E+01  1.00800000E+00
  1.00800000E+00  0.00000000E+00  1.60000000E+01  1.00800000E+00  1.00800000E+00
  0.00000000E+00  1.60000000E+01  1.00800000E+00  1.00800000E+00  0.00000000E+00
  1.60000000E+01  1.00800000E+00  1.00800000E+00  0.00000000E+00  1.60000000E+01
  1.00800000E+00  1.00800000E+00  0.00000000E+00  1.60000000E+01  1.00800000E+00
  1.00800000E+00  0.00000000E+00  1.60000000E+01  1.00800000E+00  1.00800000E+00
  0.00000000E+00  1.60000000E+01  1.00800000E+00  1.00800000E+00  0.00000000E+00
  1.60000000E+01  1.00800000E+00  1.00800000E+00  0.00000000E+00  1.60000000E+01
  1.00800000E+00  1.00800000E+00  0.00000000E+00  1.60000000E+01  1.00800000E+00
  1.00800000E+00  0.00000000E+00  1.60000000E+01  1.00800000E+00  1.00800000E+00
  0.00000000E+00  1.60000000E+01  1.00800000E+00  1.00800000E+00  0.00000000E+00
  1.60000000E+01  1.00800000E+00  1.00800000E+00  0.00000000E+00  1.60000000E+01
  1.00800000E+00  1.00800000E+00  0.00000000E+00  1.60000000E+01  1.00800000E+00
  1.00800000E+00  0.00000000E+00  1.60000000E+01  1.00800000E+00  1.00800000E+00
  0.00000000E+00  1.60000000E+01  1.00800000E+00  1.00800000E+00  0.00000000E+00
  1.60000000E+01  1.00800000E+00  1.00800000E+00  0.00000000E+00  1.60000000E+01
  1.00800000E+00  1.00800000E+00  0.00000000E+00  1.60000000E+01  1.00800000E+00
  1.00800000E+00  0.00000000E+00  1.60000000E+01  1.00800000E+00  1.00800000E+00
  0.00000000E+00  1.60000000E+01  1.00800000E+00  1.00800000E+00  0.00000000E+00
  1.60000000E+01  1.00800000E+00  1.00800000E+00  0.00000000E+00  1.60000000E+01
  1.00800000E+00  1.00800000E+00  0.00000000E+00  1.60000000E+01  1.00800000E+00
  1.00800000E+00  0.00000000E+00  1.60000000E+01  1.00800000E+00  1.00800000E+00
  0.00000000E+00  1.60000000E+01  1.00800000E+00  1.00800000E+00  0.00000000E+00
  1.60000000E+01  1.00800000E+00  1.00800000E+00  0.00000000E+00  1.60000000E+01
  1.00800000E+00  1.00800000E+00  0.00000000E+00  1.60000000E+01  1.00800000E+00
  1.00800000E+00  0.00000000E+00  1.60000000E+01  1.00800000E+00  1.00800000E+00
  0.00000000E+00  1.60000000E+01  1.00800000E+00  1.00800000E+00  0.00000000E+00
  1.60000000E+01  1.00800000E+00  1.00800000E+00  0.00000000E+00  1.60000000E+01
  1.00800000E+00  1.00800000E+00  0.00000000E+00  1.60000000E+01  1.00800000E+00
  1.00800000E+00  0.00000000E+00  1.60000000E+01  1.00800000E+00  1.00800000E+00
  0.00000000E+00  1.60000000E+01  1.00800000E+00  1.00800000E+00  0.00000000E+00
  1.60000000E+01  1.00800000E+00  1.00800000E+00  0.00000000E+00  1.60000000E+01
  1.00800000E+00  1.00800000E+00  0.00000000E+00  1.60000000E+01  1.00800000E+00
  1.00800000E+00  0.00000000E+00  1.60000000E+01  1.00800000E+00  1.00800000E+00
  0.00000000E+00  1.60000000E+01  1.00800000E+00  1.00800000E+00  0.00000000E+00
  1.60000000E+01  1.00800000E+00  1.00800000E+00  0.00000000E+00  1.60000000E+01
  1.00800000E+00  1.00800000E+00  0.00000000E+00  1.60000000E+01  1.00800000E+00
  1.00800000E+00  0.00000000E+00  1.60000000E+01  1.00800000E+00  1.00800000E+00
  0.00000000E+00  1.60000000E+01  1.00800000E+00  1.00800000E+00  0.00000000E+00
  1.60000000E+01  1.00800000E+00  1.00800000E+00  0.00000000E+00  1.60000000E+01
  1.00800000E+00  1.00800000E+00  0.00000000E+00  1.60000000E+01  1.00800000E+00
  1.00800000E+00  0.00000000E+00  1.60000000E+01  1.00800000E+00  1.00800000E+00
  0.00000000E+00  1.60000000E+01  1.00800000E+00  1.00800000E+00  0.00000000E+00
  1.60000000E+01  1.00800000E+00  1.00800000E+00  0.00000000E+00  1.60000000E+01
  1.00800000E+00  1.00800000E+00  0.00000000E+00  1.60000000E+01  1.00800000E+00
  1.00800000E+00  0.00000000E+00  1.60000000E+01  1.00800000E+00  1.00800000E+00
  0.00000000E+00  1.60000000E+01  1.00800000E+00  1.00800000E+00  0.00000000E+00
  1.60000000E+01  1.00800000E+00  1.00800000E+00  0.00000000E+00  1.60000000E+01
  1.00800000E+00  1.00800000E+00  0.00000000E+00  1.60000000E+01  1.00800000E+00
  1.00800000E+00  0.00000000E+00  1.60000000E+01  1.00800000E+00  1.00800000E+00
  0.00000000E+00  1.60000000E+01  1.00800000E+00  1.00800000E+00  0.00000000E+00
  1.60000000E+01  1.00800000E+00  1.00800000E+00  0.00000000E+00  1.60000000E+01
  1.00800000E+00  1.00800000E+00  0.00000000E+00  1.60000000E+01  1.00800000E+00
  1.00800000E+00  0.00000000E+00  1.60000000E+01  1.00800000E+00  1.00800000E+00
  0.00000000E+00  1.60000000E+01  1.00800000E+00  1.00800000E+00  0.00000000E+00
  1.60000000E+01  1.00800000E+00  1.00800000E+00  0.00000000E+00  1.60000000E+01
  1.00800000E+00  1.00800000E+00  0.00000000E+00  1.60000000E+01  1.00800000E+00
  1.00800000E+00  0.00000000E+00  1.60000000E+01  1.00800000E+00  1.00800000E+00
  0.00000000E+00  1.60000000E+01  1.00800000E+00  1.00800000E+00  0.00000000E+00
  1.60000000E+01  1.00800000E+00  1.00800000E+00  0.00000000E+00  1.60000000E+01
  1.00800000E+00  1.00800000E+00  0.00000000E+00  1.60000000E+01  1.00800000E+00
  1.00800000E+00  0.00000000E+00  1.60000000E+01  1.00800000E+00  1.00800000E+00
  0.00000000E+00  1.60000000E+01  1.00800000E+00  1.00800000E+00  0.00000000E+00
  1.60000000E+01  1.00800000E+00  1.00800000E+00  0.00000000E+00  1.60000000E+01
  1.00800000E+00  1.00800000E+00  0.00000000E+00  1.60000000E+01  1.00800000E+00
  1.00800000E+00  0.00000000E+00  1.60000000E+01  1.00800000E+00  1.00800000E+00
  0.00000000E+00  1.60000000E+01  1.00800000E+00  1.00800000E+00  0.00000000E+00
  1.60000000E+01  1.00800000E+00  1.00800000E+00  0.00000000E+00  1.60000000E+01
  1.00800000E+00  1.00800000E+00  0.00000000E+00  1.60000000E+01  1.00800000E+00
  1.00800000E+00  0.00000000E+00  1.60000000E+01  1.00800000E+00  1.00800000E+00
  0.00000000E+00  1.60000000E+01  1.00800000E+00  1.00800000E+00  0.00000000E+00
  1.60000000E+01  1.00800000E+00  1.00800000E+00  0.00000000E+00  1.60000000E+01
  1.00800000E+00  1.00800000E+00  0.00000000E+00  1.60000000E+01  1.00800000E+00
  1.00800000E+00  0.00000000E+00  1.60000000E+01  1.00800000E+00  1.00800000E+00
  0.00000000E+00  1.60000000E+01  1.00800000E+00  1.00800000E+00  0.00000000E+00
  1.60000000E+01  1.00800000E+00  1.00800000E+00  0.00000000E+00  1.60000000E+01
  1.00800000E+00  1.00800000E+00  0.00000000E+00  1.60000000E+01  1.00800000E+00
  1.00800000E+00  0.00000000E+00  1.60000000E+01  1.00800000E+00  1.00800000E+00
  0.00000000E+00  1.60000000E+01  1.00800000E+00  1.00800000E+00  0.00000000E+00
  1.60000000E+01  1.00800000E+00  1.00800000E+00  0.00000000E+00  1.60000000E+01
  1.00800000E+00  1.00800000E+00  0.00000000E+00  1.60000000E+01  1.00800000E+00
  1.00800000E+00  0.00000000E+00  1.60000000E+01  1.00800000E+00  1.00800000E+00
  0.00000000E+00  1.60000000E+01  1.00800000E+00  1.00800000E+00  0.00000000E+00
  1.60000000E+01  1.00800000E+00  1.00800000E+00  0.00000000E+00  1.60000000E+01
  1.00800000E+00  1.00800000E+00  0.00000000E+00  1.60000000E+01  1.00800000E+00
  1.00800000E+00  0.00000000E+00  1.60000000E+01  1.00800000E+00  1.00800000E+00
  0.00000000E+00  1.60000000E+01  1.00800000E+00  1.00800000E+00  0.00000000E+00
  1.60000000E+01  1.00800000E+00  1.00800000E+00  0.00000000E+00  1.60000000E+01
  1.00800000E+00  1.00800000E+00  0.00000000E+00  1.60000000E+01  1.00800000E+00
  1.00800000E+00  0.00000000E+00  1.60000000E+01  1.00800000E+00  1.00800000E+00
  0.00000000E+00  1.60000000E+01  1.00800000E+00  1.00800000E+00  0.00000000E+00
  1.60000000E+01  1.00800000E+00  1.00800000E+00  0.00000000E+00  1.60000000E+01
  1.00800000E+00  1.00800000E+00  0.00000000E+00  1.60000000E+01  1.00800000E+00
  1.00800000E+00  0.00000000E+00  1.60000000E+01  1.00800000E+00  1.00800000E+00
  0.00000000E+00  1.60000000E+01  1.00800000E+00  1.00800000E+00  0.00000000E+00
  1.60000000E+01  1.00800000E+00  1.00800000E+00  0.00000000E+00  1.60000000E+01
  1.00800000E+00  1.00800000E+00  0.00000000E+00  1.60000000E+01  1.00800000E+00
  1.00800000E+00  0.00000000E+00  1.60000000E+01  1.00800000E+00  1.00800000E+00
  0.00000000E+00  1.60000000E+01  1.00800000E+00  1.00800000E+00  0.00000000E+00
  1.60000000E+01  1.00800000E+00  1.00800000E+00  0.00000000E+00  1.60000000E+01
  1.00800000E+00  1.00800000E+00  0.00000000E+00  1.60000000E+01  1.00800000E+00
  1.00800000E+00  0.00000000E+00  1.60000000E+01  1.00800000E+00  1.00800000E+00
  0.00000000E+00  1.60000000E+01  1.00800000E+00  1.00800000E+00  0.00000000E+00
  1.60000000E+01  1.00800000E+00  1.00800000E+00  0.00000000E+00  1.60000000E+01
  1.00800000E+00  1.00800000E+00  0.00000000E+00  1.60000000E+01  1.00800000E+00
  1.00800000E+00  0.00000000E+00  1.60000000E+01  1.00800000E+00  1.00800000E+00
  0.00000000E+00  1.60000000E+01  1.00800000E+00  1.00800000E+00  0.00000000E+00
  1.60000000E+01  1.00800000E+00  1.00800000E+00  0.00000000E+00  1.60000000E+01
  1.00800000E+00  1.00800000E+00  0.00000000E+00  1.60000000E+01  1.00800000E+00
  1.00800000E+00  0.00000000E+00  1.60000000E+01  1.00800000E+00  1.00800000E+00
  0.00000000E+00  1.60000000E+01  1.00800000E+00  1.00800000E+00  0.00000000E+00
  1.60000000E+01  1.00800000E+00  1.00800000E+00  0.00000000E+00  1.60000000E+01
  1.00800000E+00  1.00800000E+00  0.00000000E+00  1.60000000E+01  1.00800000E+00
  1.00800000E+00  0.00000000E+00  1.60000000E+01  1.00800000E+00  1.00800000E+00
  0.00000000E+00  1.60000000E+01  1.00800000E+00  1.00800000E+00  0.00000000E+00
  1.60000000E+01  1.00800000E+00  1.00800000E+00  0.00000000E+00  1.60000000E+01
  1.00800000E+00  1.00800000E+00  0.00000000E+00  1.60000000E+01  1.00800000E+00
  1.00800000E+00  0.00000000E+00  1.60000000E+01  1.00800000E+00  1.00800000E+00
  0.00000000E+00  1.60000000E+01  1.00800000E+00  1.00800000E+00  0.00000000E+00
  1.60000000E+01  1.00800000E+00  1.00800000E+00  0.00000000E+00  1.60000000E+01
  1.00800000E+00  1.00800000E+00  0.00000000E+00  1.60000000E+01  1.00800000E+00
  1.00800000E+00  0.00000000E+00  1.60000000E+01  1.00800000E+00  1.00800000E+00
  0.00000000E+00  1.60000000E+01  1.00800000E+00  1.00800000E+00  0.00000000E+00
  1.60000000E+01  1.00800000E+00  1.00800000E+00  0.00000000E+00  1.60000000E+01
  1.00800000E+00  1.00800000E+00  0.00000000E+00  1.60000000E+01  1.00800000E+00
  1.00800000E+00  0.00000000E+00  1.60000000E+01  1.00800000E+00  1.00800000E+00
  0.00000000E+00  1.60000000E+01  1.00800000E+00  1.00800000E+00  0.00000000E+00
  1.60000000E+01  1.00800000E+00  1.00800000E+00  0.00000000E+00  1.60000000E+01
  1.00800000E+00  1.00800000E+00  0.00000000E+00  1.60000000E+01  1.00800000E+00
  1.00800000E+00  0.00000000E+00  1.60000000E+01  1.00800000E+00  1.00800000E+00
  0.00000000E+00  1.60000000E+01  1.00800000E+00  1.00800000E+00  0.00000000E+00
  1.60000000E+01  1.00800000E+00  1.00800000E+00  0.00000000E+00  1.60000000E+01
  1.00800000E+00  1.00800000E+00  0.00000000E+00  1.60000000E+01  1.00800000E+00
  1.00800000E+00  0.00000000E+00  1.60000000E+01  1.00800000E+00  1.00800000E+00
  0.00000000E+00  1.60000000E+01  1.00800000E+00  1.00800000E+00  0.00000000E+00
  1.60000000E+01  1.00800000E+00  1.00800000E+00  0.00000000E+00  1.60000000E+01
  1.00800000E+00  1.00800000E+00  0.00000000E+00  1.60000000E+01  1.00800000E+00
  1.00800000E+00  0.00000000E+00  1.60000000E+01  1.00800000E+00  1.00800000E+00
  0.00000000E+00  1.60000000E+01  1.00800000E+00  1.00800000E+00  0.00000000E+00
  1.60000000E+01  1.00800000E+00  1.00800000E+00  0.00000000E+00  1.60000000E+01
  1.00800000E+00  1.00800000E+00  0.00000000E+00  1.60000000E+01  1.00800000E+00
  1.00800000E+00  0.00000000E+00  1.60000000E+01  1.00800000E+00  1.00800000E+00
  0.00000000E+00  1.60000000E+01  1.00800000E+00  1.00800000E+00  0.00000000E+00
  1.60000000E+01  1.00800000E+00  1.00800000E+00  0.00000000E+00  1.60000000E+01
  1.00800000E+00  1.00800000E+00  0.00000000E+00  1.60000000E+01  1.00800000E+00
  1.00800000E+00  0.00000000E+00  1.60000000E+01  1.00800000E+00  1.00800000E+00
  0.00000000E+00  1.60000000E+01  1.00800000E+00  1.00800000E+00  0.00000000E+00
  1.60000000E+01  1.00800000E+00  1.00800000E+00  0.00000000E+00  1.60000000E+01
  1.00800000E+00  1.00800000E+00  0.00000000E+00  1.60000000E+01  1.00800000E+00
  1.00800000E+00  0.00000000E+00  1.60000000E+01  1.00800000E+00  1.00800000E+00
  0.00000000E+00  1.60000000E+01  1.00800000E+00  1.00800000E+00  0.00000000E+00
  1.60000000E+01  1.00800000E+00  1.00800000E+00  0.00000000E+00  1.60000000E+01
  1.00800000E+00  1.00800000E+00  0.00000000E+00  1.60000000E+01  1.00800000E+00
  1.00800000E+00  0.00000000E+00  1.60000000E+01  1.00800000E+00  1.00800000E+00
  0.00000000E+00  1.60000000E+01  1.00800000E+00  1.00800000E+00  0.00000000E+00
  1.60000000E+01  1.00800000E+00  1.00800000E+00  0.00000000E+00  1.60000000E+01
  1.00800000E+00  1.00800000E+00  0.00000000E+00  1.60000000E+01  1.00800000E+00
  1.00800000E+00  0.00000000E+00  1.60000000E+01  1.00800000E+00  1.00800000E+00
  0.00000000E+00  1.60000000E+01  1.00800000E+00  1.00800000E+00  0.00000000E+00
  1.60000000E+01  1.00800000E+00  1.00800000E+00  0.00000000E+00  1.60000000E+01
  1.00800000E+00  1.00800000E+00  0.00000000E+00  1.60000000E+01  1.00800000E+00
  1.00800000E+00  0.00000000E+00  1.60000000E+01  1.00800000E+00  1.00800000E+00
  0.00000000E+00  1.60000000E+01  1.00800000E+00  1.00800000E+00  0.00000000E+00
  1.60000000E+01  1.00800000E+00  1.00800000E+00  0.00000000E+00  1.60000000E+01
  1.00800000E+00  1.00800000E+00  0.00000000E+00  1.60000000E+01  1.00800000E+00
  1.00800000E+00  0.00000000E+00  1.60000000E+01  1.00800000E+00  1.00800000E+00
  0.00000000E+00  1.60000000E+01  1.00800000E+00  1.00800000E+00  0.00000000E+00
  1.60000000E+01  1.00800000E+00  1.00800000E+00  0.00000000E+00  1.60000000E+01
  1.00800000E+00  1.00800000E+00  0.00000000E+00  1.60000000E+01  1.00800000E+00
  1.00800000E+00  0.00000000E+00  1.60000000E+01  1.00800000E+00  1.00800000E+00
  0.00000000E+00  1.60000000E+01  1.00800000E+00  1.00800000E+00  0.00000000E+00
  1.60000000E+01  1.00800000E+00  1.00800000E+00  0.00000000E+00  1.60000000E+01
  1.00800000E+00  1.00800000E+00  0.00000000E+00  1.60000000E+01  1.00800000E+00
  1.00800000E+00  0.00000000E+00  1.60000000E+01  1.00800000E+00  1.00800000E+00
  0.00000000E+00  1.60000000E+01  1.00800000E+00  1.00800000E+00  0.00000000E+00
  1.60000000E+01  1.00800000E+00  1.00800000E+00  0.00000000E+00  1.60000000E+01
  1.00800000E+00  1.00800000E+00  0.00000000E+00  1.60000000E+01  1.00800000E+00
  1.00800000E+00  0.00000000E+00  1.60000000E+01  1.00800000E+00  1.00800000E+00
  0.00000000E+00  1.60000000E+01  1.00800000E+00  1.00800000E+00  0.00000000E+00
  1.60000000E+01  1.00800000E+00  1.00800000E+00  0.00000000E+00  1.60000000E+01
  1.00800000E+00  1.00800000E+00  0.00000000E+00  1.60000000E+01  1.00800000E+00
  1.00800000E+00  0.00000000E+00  1.60000000E+01  1.00800000E+00  1.00800000E+00
  0.00000000E+00  1.60000000E+01  1.00800000E+00  1.00800000E+00  0.00000000E+00
  1.60000000E+01  1.00800000E+00  1.00800000E+00  0.00000000E+00  1.60000000E+01
  1.00800000E+00  1.00800000E+00  0.00000000E+00  1.60000000E+01  1.00800000E+00
  1.00800000E+00  0.00000000E+00  1.60000000E+01  1.00800000E+00  1.00800000E+00
  0.00000000E+00  1.60000000E+01  1.00800000E+00  1.00800000E+00  0.00000000E+00
  1.60000000E+01  1.00800000E+00  1.00800000E+00  0.00000000E+00  1.60000000E+01
  1.00800000E+00  1.00800000E+00  0.00000000E+00  1.60000000E+01  1.00800000E+00
  1.00800000E+00  0.00000000E+00  1.60000000E+01  1.00800000E+00  1.00800000E+00
  0.00000000E+00  1.60000000E+01  1.00800000E+00  1.00800000E+00  0.00000000E+00
  1.60000000E+01  1.00800000E+00  1.00800000E+00  0.00000000E+00  1.60000000E+01
  1.00800000E+00  1.00800000E+00  0.00000000E+00  1.60000000E+01  1.00800000E+00
  1.00800000E+00  0.00000000E+00  1.60000000E+01  1.00800000E+00  1.00800000E+00
  0.00000000E+00  1.60000000E+01  1.00800000E+00  1.00800000E+00  0.00000000E+00
  1.60000000E+01  1.00800000E+00  1.00800000E+00  0.00000000E+00  1.60000000E+01
  1.00800000E+00  1.00800000E+00  0.00000000E+00  1.60000000E+01  1.00800000E+00
  1.00800000E+00  0.00000000E+00  1.60000000E+01  1.00800000E+00  1.00800000E+00
  0.00000000E+00  1.60000000E+01  1.00800000E+00  1.00800000E+00  0.00000000E+00
  1.60000000E+01  1.00800000E+00  1.00800000E+00  0.00000000E+00  1.60000000E+01
  1.00800000E+00  1.00800000E+00  0.00000000E+00  1.60000000E+01  1.00800000E+00
  1.00800000E+00  0.00000000E+00  1.60000000E+01  1.00800000E+00  1.00800000E+00
  0.00000000E+00  1.60000000E+01  1.00800000E+00  1.00800000E+00  0.00000000E+00
  1.60000000E+01  1.00800000E+00  1.00800000E+00  0.00000000E+00  1.60000000E+01
  1.00800000E+00  1.00800000E+00  0.00000000E+00  1.60000000E+01  1.00800000E+00
  1.00800000E+00  0.00000000E+00  1.60000000E+01  1.00800000E+00  1.00800000E+00
  0.00000000E+00  1.60000000E+01  1.00800000E+00  1.00800000E+00  0.00000000E+00
  1.60000000E+01  1.00800000E+00  1.00800000E+00  0.00000000E+00  1.60000000E+01
  1.00800000E+00  1.00800000E+00  0.00000000E+00  1.60000000E+01  1.00800000E+00
  1.00800000E+00  0.00000000E+00  1.60000000E+01  1.00800000E+00  1.00800000E+00
  0.00000000E+00  1.60000000E+01  1.00800000E+00  1.00800000E+00  0.00000000E+00
  1.60000000E+01  1.00800000E+00  1.00800000E+00  0.00000000E+00  1.60000000E+01
  1.00800000E+00  1.00800000E+00  0.00000000E+00  1.60000000E+01  1.00800000E+00
  1.00800000E+00  0.00000000E+00  1.60000000E+01  1.00800000E+00  1.00800000E+00
  0.00000000E+00  1.60000000E+01  1.00800000E+00  1.00800000E+00  0.00000000E+00
  1.60000000E+01  1.00800000E+00  1.00800000E+00  0.00000000E+00  1.60000000E+01
  1.00800000E+00  1.00800000E+00  0.00000000E+00  1.60000000E+01  1.00800000E+00
  1.00800000E+00  0.00000000E+00  1.60000000E+01  1.00800000E+00  1.00800000E+00
  0.00000000E+00  1.60000000E+01  1.00800000E+00  1.00800000E+00  0.00000000E+00
  1.60000000E+01  1.00800000E+00  1.00800000E+00  0.00000000E+00  1.60000000E+01
  1.00800000E+00  1.00800000E+00  0.00000000E+00  1.60000000E+01  1.00800000E+00
  1.00800000E+00  0.00000000E+00  1.60000000E+01  1.00800000E+00  1.00800000E+00
  0.00000000E+00  1.60000000E+01  1.00800000E+00  1.00800000E+00  0.00000000E+00
  1.60000000E+01  1.00800000E+00  1.00800000E+00  0.00000000E+00  1.60000000E+01
  1.00800000E+00  1.00800000E+00  0.00000000E+00  1.60000000E+01  1.00800000E+00
  1.00800000E+00  0.00000000E+00  1.60000000E+01  1.00800000E+00  1.00800000E+00
  0.00000000E+00  1.60000000E+01  1.00800000E+00  1.00800000E+00  0.00000000E+00
  1.60000000E+01  1.00800000E+00  1.00800000E+00  0.00000000E+00  1.60000000E+01
  1.00800000E+00  1.00800000E+00  0.00000000E+00  1.60000000E+01  1.00800000E+00
  1.00800000E+00  0.00000000E+00  1.60000000E+01  1.00800000E+00  1.00800000E+00
  0.00000000E+00  1.60000000E+01  1.00800000E+00  1.00800000E+00  0.00000000E+00
  1.60000000E+01  1.00800000E+00  1.00800000E+00  0.00000000E+00  1.60000000E+01
  1.00800000E+00  1.00800000E+00  0.00000000E+00  1.60000000E+01  1.00800000E+00
  1.00800000E+00  0.00000000E+00  1.60000000E+01  1.00800000E+00  1.00800000E+00
  0.00000000E+00  1.60000000E+01  1.00800000E+00  1.00800000E+00  0.00000000E+00
  1.60000000E+01  1.00800000E+00  1.00800000E+00  0.00000000E+00  1.60000000E+01
  1.00800000E+00  1.00800000E+00  0.00000000E+00  1.60000000E+01  1.00800000E+00
  1.00800000E+00  0.00000000E+00  1.60000000E+01  1.00800000E+00  1.00800000E+00
  0.00000000E+00  1.60000000E+01  1.00800000E+00  1.00800000E+00  0.00000000E+00
  1.60000000E+01  1.00800000E+00  1.00800000E+00  0.00000000E+00  1.60000000E+01
  1.00800000E+00  1.00800000E+00  0.00000000E+00  1.60000000E+01  1.00800000E+00
  1.00800000E+00  0.00000000E+00  1.60000000E+01  1.00800000E+00  1.00800000E+00
  0.00000000E+00  1.60000000E+01  1.00800000E+00  1.00800000E+00  0.00000000E+00
  1.60000000E+01  1.00800000E+00  1.00800000E+00  0.00000000E+00  1.60000000E+01
  1.00800000E+00  1.00800000E+00  0.00000000E+00  1.60000000E+01  1.00800000E+00
  1.00800000E+00  0.00000000E+00  1.60000000E+01  1.00800000E+00  1.00800000E+00
  0.00000000E+00  1.60000000E+01  1.00800000E+00  1.00800000E+00  0.00000000E+00
  1.60000000E+01  1.00800000E+00  1.00800000E+00  0.00000000E+00  1.60000000E+01
  1.00800000E+00  1.00800000E+00  0.00000000E+00  1.60000000E+01  1.00800000E+00
  1.00800000E+00  0.00000000E+00  1.60000000E+01  1.00800000E+00  1.00800000E+00
  0.00000000E+00  1.60000000E+01  1.00800000E+00  1.00800000E+00  0.00000000E+00
  1.60000000E+01  1.00800000E+00  1.00800000E+00  0.00000000E+00  1.60000000E+01
  1.00800000E+00  1.00800000E+00  0.00000000E+00  1.60000000E+01  1.00800000E+00
  1.00800000E+00  0.00000000E+00  1.60000000E+01  1.00800000E+00  1.00800000E+00
  0.00000000E+00  1.60000000E+01  1.00800000E+00  1.00800000E+00  0.00000000E+00
  1.60000000E+01  1.00800000E+00  1.00800000E+00  0.00000000E+00  1.60000000E+01
  1.00800000E+00  1.00800000E+00  0.00000000E+00  1.60000000E+01  1.00800000E+00
  1.00800000E+00  0.00000000E+00  1.60000000E+01  1.00800000E+00  1.00800000E+00
  0.00000000E+00  1.60000000E+01  1.00800000E+00  1.00800000E+00  0.00000000E+00
  1.60000000E+01  1.00800000E+00  1.00800000E+00  0.00000000E+00  1.60000000E+01
  1.00800000E+00  1.00800000E+00  0.00000000E+00  1.60000000E+01  1.00800000E+00
  1.00800000E+00  0.00000000E+00  1.60000000E+01  1.00800000E+00  1.00800000E+00
  0.00000000E+00  1.60000000E+01  1.00800000E+00  1.00800000E+00  0.00000000E+00
  1.60000000E+01  1.00800000E+00  1.00800000E+00  0.00000000E+00  1.60000000E+01
  1.00800000E+00  1.00800000E+00  0.00000000E+00  1.60000000E+01  1.00800000E+00
  1.00800000E+00  0.00000000E+00  1.60000000E+01  1.00800000E+00  1.00800000E+00
  0.00000000E+00  1.60000000E+01  1.00800000E+00  1.00800000E+00  0.00000000E+00
  1.60000000E+01  1.00800000E+00  1.00800000E+00  0.00000000E+00  1.60000000E+01
  1.00800000E+00  1.00800000E+00  0.00000000E+00  1.60000000E+01  1.00800000E+00
  1.00800000E+00  0.00000000E+00  1.60000000E+01  1.00800000E+00  1.00800000E+00
  0.00000000E+00  1.60000000E+01  1.00800000E+00  1.00800000E+00  0.00000000E+00
  1.60000000E+01  1.00800000E+00  1.00800000E+00  0.00000000E+00  1.60000000E+01
  1.00800000E+00  1.00800000E+00  0.00000000E+00  1.60000000E+01  1.00800000E+00
  1.00800000E+00  0.00000000E+00  1.60000000E+01  1.00800000E+00  1.00800000E+00
  0.00000000E+00  1.60000000E+01  1.00800000E+00  1.00800000E+00  0.00000000E+00
  1.60000000E+01  1.00800000E+00  1.00800000E+00  0.00000000E+00  1.60000000E+01
  1.00800000E+00  1.00800000E+00  0.00000000E+00  1.60000000E+01  1.00800000E+00
  1.00800000E+00  0.00000000E+00  1.60000000E+01  1.00800000E+00  1.00800000E+00
  0.00000000E+00  1.60000000E+01  1.00800000E+00  1.00800000E+00  0.00000000E+00
  1.60000000E+01  1.00800000E+00  1.00800000E+00  0.00000000E+00  1.60000000E+01
  1.00800000E+00  1.00800000E+00  0.00000000E+00  1.60000000E+01  1.00800000E+00
  1.00800000E+00  0.00000000E+00  1.60000000E+01  1.00800000E+00  1.00800000E+00
  0.00000000E+00  1.60000000E+01  1.00800000E+00  1.00800000E+00  0.00000000E+00
  1.60000000E+01  1.00800000E+00  1.00800000E+00  0.00000000E+00  1.60000000E+01
  1.00800000E+00  1.00800000E+00  0.00000000E+00  1.60000000E+01  1.00800000E+00
  1.00800000E+00  0.00000000E+00  1.60000000E+01  1.00800000E+00  1.00800000E+00
  0.00000000E+00  1.60000000E+01  1.00800000E+00  1.00800000E+00  0.00000000E+00
  1.60000000E+01  1.00800000E+00  1.00800000E+00  0.00000000E+00  1.60000000E+01
  1.00800000E+00  1.00800000E+00  0.00000000E+00  1.60000000E+01  1.00800000E+00
  1.00800000E+00  0.00000000E+00  1.60000000E+01  1.00800000E+00  1.00800000E+00
  0.00000000E+00  1.60000000E+01  1.00800000E+00  1.00800000E+00  0.00000000E+00
  1.60000000E+01  1.00800000E+00  1.00800000E+00  0.00000000E+00  1.60000000E+01
  1.00800000E+00  1.00800000E+00  0.00000000E+00  1.60000000E+01  1.00800000E+00
  1.00800000E+00  0.00000000E+00  1.60000000E+01  1.00800000E+00  1.00800000E+00
  0.00000000E+00  1.60000000E+01  1.00800000E+00  1.00800000E+00  0.00000000E+00
  1.60000000E+01  1.00800000E+00  1.00800000E+00  0.00000000E+00  1.60000000E+01
  1.00800000E+00  1.00800000E+00  0.00000000E+00  1.60000000E+01  1.00800000E+00
  1.00800000E+00  0.00000000E+00  1.60000000E+01  1.00800000E+00  1.00800000E+00
  0.00000000E+00  1.60000000E+01  1.00800000E+00  1.00800000E+00  0.00000000E+00
  1.60000000E+01  1.00800000E+00  1.00800000E+00  0.00000000E+00  1.60000000E+01
  1.00800000E+00  1.00800000E+00  0.00000000E+00  1.60000000E+01  1.00800000E+00
  1.00800000E+00  0.00000000E+00  1.60000000E+01  1.00800000E+00  1.00800000E+00
  0.00000000E+00  1.60000000E+01  1.00800000E+00  1.00800000E+00  0.00000000E+00
  1.60000000E+01  1.00800000E+00  1.00800000E+00  0.00000000E+00  1.60000000E+01
  1.00800000E+00  1.00800000E+00  0.00000000E+00  1.60000000E+01  1.00800000E+00
  1.00800000E+00  0.00000000E+00  1.60000000E+01  1.00800000E+00  1.00800000E+00
  0.00000000E+00  1.60000000E+01  1.00800000E+00  1.00800000E+00  0.00000000E+00
  1.60000000E+01  1.00800000E+00  1.00800000E+00  0.00000000E+00  1.60000000E+01
  1.00800000E+00  1.00800000E+00  0.00000000E+00  1.60000000E+01  1.00800000E+00
  1.00800000E+00  0.00000000E+00  1.60000000E+01  1.00800000E+00  1.00800000E+00
  0.00000000E+00  1.60000000E+01  1.00800000E+00  1.00800000E+00  0.00000000E+00
  1.60000000E+01  1.00800000E+00  1.00800000E+00  0.00000000E+00  1.60000000E+01
  1.00800000E+00  1.00800000E+00  0.00000000E+00  1.60000000E+01  1.00800000E+00
  1.00800000E+00  0.00000000E+00  1.60000000E+01  1.00800000E+00  1.00800000E+00
  0.00000000E+00  1.60000000E+01  1.00800000E+00  1.00800000E+00  0.00000000E+00
  1.60000000E+01  1.00800000E+00  1.00800000E+00  0.00000000E+00  1.60000000E+01
  1.00800000E+00  1.00800000E+00  0.00000000E+00  1.60000000E+01  1.00800000E+00
  1.00800000E+00  0.00000000E+00  1.60000000E+01  1.00800000E+00  1.00800000E+00
  0.00000000E+00  1.60000000E+01  1.00800000E+00  1.00800000E+00  0.00000000E+00
  1.60000000E+01  1.00800000E+00  1.00800000E+00  0.00000000E+00  1.60000000E+01
  1.00800000E+00  1.00800000E+00  0.00000000E+00  1.60000000E+01  1.00800000E+00
  1.00800000E+00  0.00000000E+00  1.60000000E+01  1.00800000E+00  1.00800000E+00
  0.00000000E+00  1.60000000E+01  1.00800000E+00  1.00800000E+00  0.00000000E+00
  1.60000000E+01  1.00800000E+00  1.00800000E+00  0.00000000E+00  1.60000000E+01
  1.00800000E+00  1.00800000E+00  0.00000000E+00  1.60000000E+01  1.00800000E+00
  1.00800000E+00  0.00000000E+00  1.60000000E+01  1.00800000E+00  1.00800000E+00
  0.00000000E+00  1.60000000E+01  1.00800000E+00  1.00800000E+00  0.00000000E+00
  1.60000000E+01  1.00800000E+00  1.00800000E+00  0.00000000E+00  1.60000000E+01
  1.00800000E+00  1.00800000E+00  0.00000000E+00  1.60000000E+01  1.00800000E+00
  1.00800000E+00  0.00000000E+00  1.60000000E+01  1.00800000E+00  1.00800000E+00
  0.00000000E+00  1.60000000E+01  1.00800000E+00  1.00800000E+00  0.00000000E+00
  1.60000000E+01  1.00800000E+00  1.00800000E+00  0.00000000E+00  1.60000000E+01
  1.00800000E+00  1.00800000E+00  0.00000000E+00  1.60000000E+01  1.00800000E+00
  1.00800000E+00  0.00000000E+00  1.60000000E+01  1.00800000E+00  1.00800000E+00
  0.00000000E+00  1.60000000E+01  1.00800000E+00  1.00800000E+00  0.00000000E+00
  1.60000000E+01  1.00800000E+00  1.00800000E+00  0.00000000E+00  1.60000000E+01
  1.00800000E+00  1.00800000E+00  0.00000000E+00  1.60000000E+01  1.00800000E+00
  1.00800000E+00  0.00000000E+00  1.60000000E+01  1.00800000E+00  1.00800000E+00
  0.00000000E+00  1.60000000E+01  1.00800000E+00  1.00800000E+00  0.00000000E+00
  1.60000000E+01  1.00800000E+00  1.00800000E+00  0.00000000E+00  1.60000000E+01
  1.00800000E+00  1.00800000E+00  0.00000000E+00  1.60000000E+01  1.00800000E+00
  1.00800000E+00  0.00000000E+00  1.60000000E+01  1.00800000E+00  1.00800000E+00
  0.00000000E+00  1.60000000E+01  1.00800000E+00  1.00800000E+00  0.00000000E+00
  1.60000000E+01  1.00800000E+00  1.00800000E+00  0.00000000E+00  1.60000000E+01
  1.00800000E+00  1.00800000E+00  0.00000000E+00  1.60000000E+01  1.00800000E+00
  1.00800000E+00  0.00000000E+00  1.60000000E+01  1.00800000E+00  1.00800000E+00
  0.00000000E+00  1.60000000E+01  1.00800000E+00  1.00800000E+00  0.00000000E+00
  1.60000000E+01  1.00800000E+00  1.00800000E+00  0.00000000E+00  1.60000000E+01
  1.00800000E+00  1.00800000E+00  0.00000000E+00  1.60000000E+01  1.00800000E+00
  1.00800000E+00  0.00000000E+00  1.60000000E+01  1.00800000E+00  1.00800000E+00
  0.00000000E+00  1.60000000E+01  1.00800000E+00  1.00800000E+00  0.00000000E+00
  1.60000000E+01  1.00800000E+00  1.00800000E+00  0.00000000E+00  1.60000000E+01
  1.00800000E+00  1.00800000E+00  0.00000000E+00  1.60000000E+01  1.00800000E+00
  1.00800000E+00  0.00000000E+00  1.60000000E+01  1.00800000E+00  1.00800000E+00
  0.00000000E+00  1.60000000E+01  1.00800000E+00  1.00800000E+00  0.00000000E+00
  1.60000000E+01  1.00800000E+00  1.00800000E+00  0.00000000E+00  1.60000000E+01
  1.00800000E+00  1.00800000E+00  0.00000000E+00  1.60000000E+01  1.00800000E+00
  1.00800000E+00  0.00000000E+00  1.60000000E+01  1.00800000E+00  1.00800000E+00
  0.00000000E+00  1.60000000E+01  1.00800000E+00  1.00800000E+00  0.00000000E+00
  1.60000000E+01  1.00800000E+00  1.00800000E+00  0.00000000E+00  1.60000000E+01
  1.00800000E+00  1.00800000E+00  0.00000000E+00  1.60000000E+01  1.00800000E+00
  1.00800000E+00  0.00000000E+00  1.60000000E+01  1.00800000E+00  1.00800000E+00
  0.00000000E+00  1.60000000E+01  1.00800000E+00  1.00800000E+00  0.00000000E+00
  1.60000000E+01  1.00800000E+00  1.00800000E+00  0.00000000E+00  1.60000000E+01
  1.00800000E+00  1.00800000E+00  0.00000000E+00  1.60000000E+01  1.00800000E+00
  1.00800000E+00  0.00000000E+00  1.60000000E+01  1.00800000E+00  1.00800000E+00
  0.00000000E+00  1.60000000E+01  1.00800000E+00  1.00800000E+00  0.00000000E+00
  1.60000000E+01  1.00800000E+00  1.00800000E+00  0.00000000E+00  1.60000000E+01
  1.00800000E+00  1.00800000E+00  0.00000000E+00  1.60000000E+01  1.00800000E+00
  1.00800000E+00  0.00000000E+00  1.60000000E+01  1.00800000E+00  1.00800000E+00
  0.00000000E+00  1.60000000E+01  1.00800000E+00  1.00800000E+00  0.00000000E+00
  1.60000000E+01  1.00800000E+00  1.00800000E+00  0.00000000E+00  1.60000000E+01
  1.00800000E+00  1.00800000E+00  0.00000000E+00  1.60000000E+01  1.00800000E+00
  1.00800000E+00  0.00000000E+00  1.60000000E+01  1.00800000E+00  1.00800000E+00
  0.00000000E+00  1.60000000E+01  1.00800000E+00  1.00800000E+00  0.00000000E+00
  1.60000000E+01  1.00800000E+00  1.00800000E+00  0.00000000E+00  1.60000000E+01
  1.00800000E+00  1.00800000E+00  0.00000000E+00  1.60000000E+01  1.00800000E+00
  1.00800000E+00  0.00000000E+00  1.60000000E+01  1.00800000E+00  1.00800000E+00
  0.00000000E+00  1.60000000E+01  1.00800000E+00  1.00800000E+00  0.00000000E+00
  1.60000000E+01  1.00800000E+00  1.00800000E+00  0.00000000E+00  1.60000000E+01
  1.00800000E+00  1.00800000E+00  0.00000000E+00  1.60000000E+01  1.00800000E+00
  1.00800000E+00  0.00000000E+00  1.60000000E+01  1.00800000E+00  1.00800000E+00
  0.00000000E+00  1.60000000E+01  1.00800000E+00  1.00800000E+00  0.00000000E+00
  1.60000000E+01  1.00800000E+00  1.00800000E+00  0.00000000E+00  1.60000000E+01
  1.00800000E+00  1.00800000E+00  0.00000000E+00  1.60000000E+01  1.00800000E+00
  1.00800000E+00  0.00000000E+00  1.60000000E+01  1.00800000E+00  1.00800000E+00
  0.00000000E+00  1.60000000E+01  1.00800000E+00  1.00800000E+00  0.00000000E+00
  1.60000000E+01  1.00800000E+00  1.00800000E+00  0.00000000E+00  1.60000000E+01
  1.00800000E+00  1.00800000E+00  0.00000000E+00  1.60000000E+01  1.00800000E+00
  1.00800000E+00  0.00000000E+00  1.60000000E+01  1.00800000E+00  1.00800000E+00
  0.00000000E+00  1.60000000E+01  1.00800000E+00  1.00800000E+00  0.00000000E+00
  1.60000000E+01  1.00800000E+00  1.00800000E+00  0.00000000E+00  1.60000000E+01
  1.00800000E+00  1.00800000E+00  0.00000000E+00  1.60000000E+01  1.00800000E+00
  1.00800000E+00  0.00000000E+00  1.60000000E+01  1.00800000E+00  1.00800000E+00
  0.00000000E+00  1.60000000E+01  1.00800000E+00  1.00800000E+00  0.00000000E+00
  1.60000000E+01  1.00800000E+00  1.00800000E+00  0.00000000E+00  1.60000000E+01
  1.00800000E+00  1.00800000E+00  0.00000000E+00  1.60000000E+01  1.00800000E+00
  1.00800000E+00  0.00000000E+00  1.60000000E+01  1.00800000E+00  1.00800000E+00
  0.00000000E+00  1.60000000E+01  1.00800000E+00  1.00800000E+00  0.00000000E+00
  1.60000000E+01  1.00800000E+00  1.00800000E+00  0.00000000E+00  1.60000000E+01
  1.00800000E+00  1.00800000E+00  0.00000000E+00  1.60000000E+01  1.00800000E+00
  1.00800000E+00  0.00000000E+00  1.60000000E+01  1.00800000E+00  1.00800000E+00
  0.00000000E+00  1.60000000E+01  1.00800000E+00  1.00800000E+00  0.00000000E+00
  1.60000000E+01  1.00800000E+00  1.00800000E+00  0.00000000E+00  1.60000000E+01
  1.00800000E+00  1.00800000E+00  0.00000000E+00  1.60000000E+01  1.00800000E+00
  1.00800000E+00  0.00000000E+00  1.60000000E+01  1.00800000E+00  1.00800000E+00
  0.00000000E+00  1.60000000E+01  1.00800000E+00  1.00800000E+00  0.00000000E+00
  1.60000000E+01  1.00800000E+00  1.00800000E+00  0.00000000E+00  1.60000000E+01
  1.00800000E+00  1.00800000E+00  0.00000000E+00  1.60000000E+01  1.00800000E+00
  1.00800000E+00  0.00000000E+00  1.60000000E+01  1.00800000E+00  1.00800000E+00
  0.00000000E+00  1.60000000E+01  1.00800000E+00  1.00800000E+00  0.00000000E+00
  1.60000000E+01  1.00800000E+00  1.00800000E+00  0.00000000E+00  1.60000000E+01
  1.00800000E+00  1.00800000E+00  0.00000000E+00  1.60000000E+01  1.00800000E+00
  1.00800000E+00  0.00000000E+00  1.60000000E+01  1.00800000E+00  1.00800000E+00
  0.00000000E+00  1.60000000E+01  1.00800000E+00  1.00800000E+00  0.00000000E+00
  1.60000000E+01  1.00800000E+00  1.00800000E+00  0.00000000E+00  1.60000000E+01
  1.00800000E+00  1.00800000E+00  0.00000000E+00  1.60000000E+01  1.00800000E+00
  1.00800000E+00  0.00000000E+00  1.60000000E+01  1.00800000E+00  1.00800000E+00
  0.00000000E+00  1.60000000E+01  1.00800000E+00  1.00800000E+00  0.00000000E+00
  1.60000000E+01  1.00800000E+00  1.00800000E+00  0.00000000E+00  1.60000000E+01
  1.00800000E+00  1.00800000E+00  0.00000000E+00  1.60000000E+01  1.00800000E+00
  1.00800000E+00  0.00000000E+00  1.60000000E+01  1.00800000E+00  1.00800000E+00
  0.00000000E+00  1.60000000E+01  1.00800000E+00  1.00800000E+00  0.00000000E+00
  1.60000000E+01  1.00800000E+00  1.00800000E+00  0.00000000E+00  1.60000000E+01
  1.00800000E+00  1.00800000E+00  0.00000000E+00  1.60000000E+01  1.00800000E+00
  1.00800000E+00  0.00000000E+00  1.60000000E+01  1.00800000E+00  1.00800000E+00
  0.00000000E+00  1.60000000E+01  1.00800000E+00  1.00800000E+00  0.00000000E+00
  1.60000000E+01  1.00800000E+00  1.00800000E+00  0.00000000E+00  1.60000000E+01
  1.00800000E+00  1.00800000E+00  0.00000000E+00  1.60000000E+01  1.00800000E+00
  1.00800000E+00  0.00000000E+00  1.60000000E+01  1.00800000E+00  1.00800000E+00
  0.00000000E+00  1.60000000E+01  1.00800000E+00  1.00800000E+00  0.00000000E+00
  1.60000000E+01  1.00800000E+00  1.00800000E+00  0.00000000E+00  1.60000000E+01
  1.00800000E+00  1.00800000E+00  0.00000000E+00  1.60000000E+01  1.00800000E+00
  1.00800000E+00  0.00000000E+00  1.60000000E+01  1.00800000E+00  1.00800000E+00
  0.00000000E+00  1.60000000E+01  1.00800000E+00  1.00800000E+00  0.00000000E+00
  1.60000000E+01  1.00800000E+00  1.00800000E+00  0.00000000E+00  1.60000000E+01
  1.00800000E+00  1.00800000E+00  0.00000000E+00  1.60000000E+01  1.00800000E+00
  1.00800000E+00  0.00000000E+00  1.60000000E+01  1.00800000E+00  1.00800000E+00
  0.00000000E+00  1.60000000E+01  1.00800000E+00  1.00800000E+00  0.00000000E+00
  1.60000000E+01  1.00800000E+00  1.00800000E+00  0.00000000E+00  1.60000000E+01
  1.00800000E+00  1.00800000E+00  0.00000000E+00  1.60000000E+01  1.00800000E+00
  1.00800000E+00  0.00000000E+00  1.60000000E+01  1.00800000E+00  1.00800000E+00
  0.00000000E+00  1.60000000E+01  1.00800000E+00  1.00800000E+00  0.00000000E+00
  1.60000000E+01  1.00800000E+00  1.00800000E+00  0.00000000E+00  1.60000000E+01
  1.00800000E+00  1.00800000E+00  0.00000000E+00  1.60000000E+01  1.00800000E+00
  1.00800000E+00  0.00000000E+00  1.60000000E+01  1.00800000E+00  1.00800000E+00
  0.00000000E+00  1.60000000E+01  1.00800000E+00  1.00800000E+00  0.00000000E+00
  1.60000000E+01  1.00800000E+00  1.00800000E+00  0.00000000E+00  1.60000000E+01
  1.00800000E+00  1.00800000E+00  0.00000000E+00  1.60000000E+01  1.00800000E+00
  1.00800000E+00  0.00000000E+00  1.60000000E+01  1.00800000E+00  1.00800000E+00
  0.00000000E+00  1.60000000E+01  1.00800000E+00  1.00800000E+00  0.00000000E+00
  1.60000000E+01  1.00800000E+00  1.00800000E+00  0.00000000E+00  1.60000000E+01
  1.00800000E+00  1.00800000E+00  0.00000000E+00  1.60000000E+01  1.00800000E+00
  1.00800000E+00  0.00000000E+00  1.60000000E+01  1.00800000E+00  1.00800000E+00
  0.00000000E+00  1.60000000E+01  1.00800000E+00  1.00800000E+00  0.00000000E+00
  1.60000000E+01  1.00800000E+00  1.00800000E+00  0.00000000E+00  1.60000000E+01
  1.00800000E+00  1.00800000E+00  0.00000000E+00  1.60000000E+01  1.00800000E+00
  1.00800000E+00  0.00000000E+00  1.60000000E+01  1.00800000E+00  1.00800000E+00
  0.00000000E+00  1.60000000E+01  1.00800000E+00  1.00800000E+00  0.00000000E+00
  1.60000000E+01  1.00800000E+00  1.00800000E+00  0.00000000E+00  1.60000000E+01
  1.00800000E+00  1.00800000E+00  0.00000000E+00  1.60000000E+01  1.00800000E+00
  1.00800000E+00  0.00000000E+00  1.60000000E+01  1.00800000E+00  1.00800000E+00
  0.00000000E+00  1.60000000E+01  1.00800000E+00  1.00800000E+00  0.00000000E+00
  1.60000000E+01  1.00800000E+00  1.00800000E+00  0.00000000E+00  1.60000000E+01
  1.00800000E+00  1.00800000E+00  0.00000000E+00  1.60000000E+01  1.00800000E+00
  1.00800000E+00  0.00000000E+00  1.60000000E+01  1.00800000E+00  1.00800000E+00
  0.00000000E+00  1.60000000E+01  1.00800000E+00  1.00800000E+00  0.00000000E+00
  1.60000000E+01  1.00800000E+00  1.00800000E+00  0.00000000E+00  1.60000000E+01
  1.00800000E+00  1.00800000E+00  0.00000000E+00  1.60000000E+01  1.00800000E+00
  1.00800000E+00  0.00000000E+00  1.60000000E+01  1.00800000E+00  1.00800000E+00
  0.00000000E+00  1.60000000E+01  1.00800000E+00  1.00800000E+00  0.00000000E+00
  1.60000000E+01  1.00800000E+00  1.00800000E+00  0.00000000E+00  1.60000000E+01
  1.00800000E+00  1.00800000E+00  0.00000000E+00  1.60000000E+01  1.00800000E+00
  1.00800000E+00  0.00000000E+00  1.60000000E+01  1.00800000E+00  1.00800000E+00
  0.00000000E+00  1.60000000E+01  1.00800000E+00  1.00800000E+00  0.00000000E+00
  1.60000000E+01  1.00800000E+00  1.00800000E+00  0.00000000E+00  1.60000000E+01
  1.00800000E+00  1.00800000E+00  0.00000000E+00  1.60000000E+01  1.00800000E+00
  1.00800000E+00  0.00000000E+00  1.60000000E+01  1.00800000E+00  1.00800000E+00
  0.00000000E+00  1.60000000E+01  1.00800000E+00  1.00800000E+00  0.00000000E+00
  1.60000000E+01  1.00800000E+00  1.00800000E+00  0.00000000E+00  1.60000000E+01
  1.00800000E+00  1.00800000E+00  0.00000000E+00  1.60000000E+01  1.00800000E+00
  1.00800000E+00  0.00000000E+00  1.60000000E+01  1.00800000E+00  1.00800000E+00
  0.00000000E+00  1.60000000E+01  1.00800000E+00  1.00800000E+00  0.00000000E+00
  1.60000000E+01  1.00800000E+00  1.00800000E+00  0.00000000E+00  1.60000000E+01
  1.00800000E+00  1.00800000E+00  0.00000000E+00  1.60000000E+01  1.00800000E+00
  1.00800000E+00  0.00000000E+00  1.60000000E+01  1.00800000E+00  1.00800000E+00
  0.00000000E+00  1.60000000E+01  1.00800000E+00  1.00800000E+00  0.00000000E+00
  1.60000000E+01  1.00800000E+00  1.00800000E+00  0.00000000E+00  1.60000000E+01
  1.00800000E+00  1.00800000E+00  0.00000000E+00  1.60000000E+01  1.00800000E+00
  1.00800000E+00  0.00000000E+00  1.60000000E+01  1.00800000E+00  1.00800000E+00
  0.00000000E+00  1.60000000E+01  1.00800000E+00  1.00800000E+00  0.00000000E+00
  1.60000000E+01  1.00800000E+00  1.00800000E+00  0.00000000E+00  1.60000000E+01
  1.00800000E+00  1.00800000E+00  0.00000000E+00  1.60000000E+01  1.00800000E+00
  1.00800000E+00  0.00000000E+00  1.60000000E+01  1.00800000E+00  1.00800000E+00
  0.00000000E+00  1.60000000E+01  1.00800000E+00  1.00800000E+00  0.00000000E+00
  1.60000000E+01  1.00800000E+00  1.00800000E+00  0.00000000E+00  1.60000000E+01
  1.00800000E+00  1.00800000E+00  0.00000000E+00  1.60000000E+01  1.00800000E+00
  1.00800000E+00  0.00000000E+00  1.60000000E+01  1.00800000E+00  1.00800000E+00
  0.00000000E+00  1.60000000E+01  1.00800000E+00  1.00800000E+00  0.00000000E+00
  1.60000000E+01  1.00800000E+00  1.00800000E+00  0.00000000E+00  1.60000000E+01
  1.00800000E+00  1.00800000E+00  0.00000000E+00  1.60000000E+01  1.00800000E+00
  1.00800000E+00  0.00000000E+00  1.60000000E+01  1.00800000E+00  1.00800000E+00
  0.00000000E+00  1.60000000E+01  1.00800000E+00  1.00800000E+00  0.00000000E+00
  1.60000000E+01  1.00800000E+00  1.00800000E+00  0.00000000E+00  1.60000000E+01
  1.00800000E+00  1.00800000E+00  0.00000000E+00  1.60000000E+01  1.00800000E+00
  1.00800000E+00  0.00000000E+00  1.60000000E+01  1.00800000E+00  1.00800000E+00
  0.00000000E+00  1.60000000E+01  1.00800000E+00  1.00800000E+00  0.00000000E+00
  1.60000000E+01  1.00800000E+00  1.00800000E+00  0.00000000E+00  1.60000000E+01
  1.00800000E+00  1.00800000E+00  0.00000000E+00  1.60000000E+01  1.00800000E+00
  1.00800000E+00  0.00000000E+00  1.60000000E+01  1.00800000E+00  1.00800000E+00
  0.00000000E+00  1.60000000E+01  1.00800000E+00  1.00800000E+00  0.00000000E+00
  1.60000000E+01  1.00800000E+00  1.00800000E+00  0.00000000E+00  1.60000000E+01
  1.00800000E+00  1.00800000E+00  0.00000000E+00  1.60000000E+01  1.00800000E+00
  1.00800000E+00  0.00000000E+00  1.60000000E+01  1.00800000E+00  1.00800000E+00
  0.00000000E+00  1.60000000E+01  1.00800000E+00  1.00800000E+00  0.00000000E+00
  1.60000000E+01  1.00800000E+00  1.00800000E+00  0.00000000E+00  1.60000000E+01
  1.00800000E+00  1.00800000E+00  0.00000000E+00  1.60000000E+01  1.00800000E+00
  1.00800000E+00  0.00000000E+00  1.60000000E+01  1.00800000E+00  1.00800000E+00
  0.00000000E+00  1.60000000E+01  1.00800000E+00  1.00800000E+00  0.00000000E+00
  1.60000000E+01  1.00800000E+00  1.00800000E+00  0.00000000E+00  1.60000000E+01
  1.00800000E+00  1.00800000E+00  0.00000000E+00  1.60000000E+01  1.00800000E+00
  1.00800000E+00  0.00000000E+00  1.60000000E+01  1.00800000E+00  1.00800000E+00
  0.00000000E+00  1.60000000E+01  1.00800000E+00  1.00800000E+00  0.00000000E+00
  1.60000000E+01  1.00800000E+00  1.00800000E+00  0.00000000E+00  1.60000000E+01
  1.00800000E+00  1.00800000E+00  0.00000000E+00  1.60000000E+01  1.00800000E+00
  1.00800000E+00  0.00000000E+00  1.60000000E+01  1.00800000E+00  1.00800000E+00
  0.00000000E+00  1.60000000E+01  1.00800000E+00  1.00800000E+00  0.00000000E+00
  1.60000000E+01  1.00800000E+00  1.00800000E+00  0.00000000E+00  1.60000000E+01
  1.00800000E+00  1.00800000E+00  0.00000000E+00  1.60000000E+01  1.00800000E+00
  1.00800000E+00  0.00000000E+00  1.60000000E+01  1.00800000E+00  1.00800000E+00
  0.00000000E+00  1.60000000E+01  1.00800000E+00  1.00800000E+00  0.00000000E+00
  1.60000000E+01  1.00800000E+00  1.00800000E+00  0.00000000E+00  1.60000000E+01
  1.00800000E+00  1.00800000E+00  0.00000000E+00  1.60000000E+01  1.00800000E+00
  1.00800000E+00  0.00000000E+00  1.60000000E+01  1.00800000E+00  1.00800000E+00
  0.00000000E+00  1.60000000E+01  1.00800000E+00  1.00800000E+00  0.00000000E+00
  1.60000000E+01  1.00800000E+00  1.00800000E+00  0.00000000E+00  1.60000000E+01
  1.00800000E+00  1.00800000E+00  0.00000000E+00  1.60000000E+01  1.00800000E+00
  1.00800000E+00  0.00000000E+00  1.60000000E+01  1.00800000E+00  1.00800000E+00
  0.00000000E+00  1.60000000E+01  1.00800000E+00  1.00800000E+00  0.00000000E+00
  1.60000000E+01  1.00800000E+00  1.00800000E+00  0.00000000E+00  1.60000000E+01
  1.00800000E+00  1.00800000E+00  0.00000000E+00  1.60000000E+01  1.00800000E+00
  1.00800000E+00  0.00000000E+00  1.60000000E+01  1.00800000E+00  1.00800000E+00
  0.00000000E+00  1.60000000E+01  1.00800000E+00  1.00800000E+00  0.00000000E+00
  1.60000000E+01  1.00800000E+00  1.00800000E+00  0.00000000E+00  1.60000000E+01
  1.00800000E+00  1.00800000E+00  0.00000000E+00  1.60000000E+01  1.00800000E+00
  1.00800000E+00  0.00000000E+00  1.60000000E+01  1.00800000E+00  1.00800000E+00
  0.00000000E+00  1.60000000E+01  1.00800000E+00  1.00800000E+00  0.00000000E+00
  1.60000000E+01  1.00800000E+00  1.00800000E+00  0.00000000E+00  1.60000000E+01
  1.00800000E+00  1.00800000E+00  0.00000000E+00  1.60000000E+01  1.00800000E+00
  1.00800000E+00  0.00000000E+00  1.60000000E+01  1.00800000E+00  1.00800000E+00
  0.00000000E+00  1.60000000E+01  1.00800000E+00  1.00800000E+00  0.00000000E+00
  1.60000000E+01  1.00800000E+00  1.00800000E+00  0.00000000E+00  1.60000000E+01
  1.00800000E+00  1.00800000E+00  0.00000000E+00  1.60000000E+01  1.00800000E+00
  1.00800000E+00  0.00000000E+00  1.60000000E+01  1.00800000E+00  1.00800000E+00
  0.00000000E+00  1.60000000E+01  1.00800000E+00  1.00800000E+00  0.00000000E+00
  1.60000000E+01  1.00800000E+00  1.00800000E+00  0.00000000E+00  1.60000000E+01
  1.00800000E+00  1.00800000E+00  0.00000000E+00  1.60000000E+01  1.00800000E+00
  1.00800000E+00  0.00000000E+00  1.60000000E+01  1.00800000E+00  1.00800000E+00
  0.00000000E+00  1.60000000E+01  1.00800000E+00  1.00800000E+00  0.00000000E+00
  1.60000000E+01  1.00800000E+00  1.00800000E+00  0.00000000E+00  1.60000000E+01
  1.00800000E+00  1.00800000E+00  0.00000000E+00  1.60000000E+01  1.00800000E+00
  1.00800000E+00  0.00000000E+00  1.60000000E+01  1.00800000E+00  1.00800000E+00
  0.00000000E+00  1.60000000E+01  1.00800000E+00  1.00800000E+00  0.00000000E+00
  1.60000000E+01  1.00800000E+00  1.00800000E+00  0.00000000E+00  1.60000000E+01
  1.00800000E+00  1.00800000E+00  0.00000000E+00  1.60000000E+01  1.00800000E+00
  1.00800000E+00  0.00000000E+00  1.60000000E+01  1.00800000E+00  1.00800000E+00
  0.00000000E+00  1.60000000E+01  1.00800000E+00  1.00800000E+00  0.00000000E+00
  1.60000000E+01  1.00800000E+00  1.00800000E+00  0.00000000E+00  1.60000000E+01
  1.00800000E+00  1.00800000E+00  0.00000000E+00  1.60000000E+01  1.00800000E+00
  1.00800000E+00  0.00000000E+00  1.60000000E+01  1.00800000E+00  1.00800000E+00
  0.00000000E+00  1.60000000E+01  1.00800000E+00  1.00800000E+00  0.00000000E+00
  1.60000000E+01  1.00800000E+00  1.00800000E+00  0.00000000E+00  1.60000000E+01
  1.00800000E+00  1.00800000E+00  0.00000000E+00  1.60000000E+01  1.00800000E+00
  1.00800000E+00  0.00000000E+00  1.60000000E+01  1.00800000E+00  1.00800000E+00
  0.00000000E+00  1.60000000E+01  1.00800000E+00  1.00800000E+00  0.00000000E+00
  1.60000000E+01  1.00800000E+00  1.00800000E+00  0.00000000E+00  1.60000000E+01
  1.00800000E+00  1.00800000E+00  0.00000000E+00  1.60000000E+01  1.00800000E+00
  1.00800000E+00  0.00000000E+00  1.60000000E+01  1.00800000E+00  1.00800000E+00
  0.00000000E+00  1.60000000E+01  1.00800000E+00  1.00800000E+00  0.00000000E+00
  1.60000000E+01  1.00800000E+00  1.00800000E+00  0.00000000E+00  1.60000000E+01
  1.00800000E+00  1.00800000E+00  0.00000000E+00  1.60000000E+01  1.00800000E+00
  1.00800000E+00  0.00000000E+00  1.60000000E+01  1.00800000E+00  1.00800000E+00
  0.00000000E+00  1.60000000E+01  1.00800000E+00  1.00800000E+00  0.00000000E+00
  1.60000000E+01  1.00800000E+00  1.00800000E+00  0.00000000E+00  1.60000000E+01
  1.00800000E+00  1.00800000E+00  0.00000000E+00  1.60000000E+01  1.00800000E+00
  1.00800000E+00  0.00000000E+00  1.60000000E+01  1.00800000E+00  1.00800000E+00
  0.00000000E+00  1.60000000E+01  1.00800000E+00  1.00800000E+00  0.00000000E+00
  1.60000000E+01  1.00800000E+00  1.00800000E+00  0.00000000E+00  1.60000000E+01
  1.00800000E+00  1.00800000E+00  0.00000000E+00  1.60000000E+01  1.00800000E+00
  1.00800000E+00  0.00000000E+00  1.60000000E+01  1.00800000E+00  1.00800000E+00
  0.00000000E+00  1.60000000E+01  1.00800000E+00  1.00800000E+00  0.00000000E+00
  1.60000000E+01  1.00800000E+00  1.00800000E+00  0.00000000E+00  1.60000000E+01
  1.00800000E+00  1.00800000E+00  0.00000000E+00  1.60000000E+01  1.00800000E+00
  1.00800000E+00  0.00000000E+00  1.60000000E+01  1.00800000E+00  1.00800000E+00
  0.00000000E+00  1.60000000E+01  1.00800000E+00  1.00800000E+00  0.00000000E+00
  1.60000000E+01  1.00800000E+00  1.00800000E+00  0.00000000E+00  1.60000000E+01
  1.00800000E+00  1.00800000E+00  0.00000000E+00  1.60000000E+01  1.00800000E+00
  1.00800000E+00  0.00000000E+00  1.60000000E+01  1.00800000E+00  1.00800000E+00
  0.00000000E+00  1.60000000E+01  1.00800000E+00  1.00800000E+00  0.00000000E+00
  1.60000000E+01  1.00800000E+00  1.00800000E+00  0.00000000E+00  1.60000000E+01
  1.00800000E+00  1.00800000E+00  0.00000000E+00  1.60000000E+01  1.00800000E+00
  1.00800000E+00  0.00000000E+00  1.60000000E+01  1.00800000E+00  1.00800000E+00
  0.00000000E+00  1.60000000E+01  1.00800000E+00  1.00800000E+00  0.00000000E+00
  1.60000000E+01  1.00800000E+00  1.00800000E+00  0.00000000E+00  1.60000000E+01
  1.00800000E+00  1.00800000E+00  0.00000000E+00  1.60000000E+01  1.00800000E+00
  1.00800000E+00  0.00000000E+00  1.60000000E+01  1.00800000E+00  1.00800000E+00
  0.00000000E+00  1.60000000E+01  1.00800000E+00  1.00800000E+00  0.00000000E+00
  1.60000000E+01  1.00800000E+00  1.00800000E+00  0.00000000E+00  1.60000000E+01
  1.00800000E+00  1.00800000E+00  0.00000000E+00  1.60000000E+01  1.00800000E+00
  1.00800000E+00  0.00000000E+00  1.60000000E+01  1.00800000E+00  1.00800000E+00
  0.00000000E+00  1.60000000E+01  1.00800000E+00  1.00800000E+00  0.00000000E+00
  1.60000000E+01  1.00800000E+00  1.00800000E+00  0.00000000E+00  1.60000000E+01
  1.00800000E+00  1.00800000E+00  0.00000000E+00  1.60000000E+01  1.00800000E+00
  1.00800000E+00  0.00000000E+00  1.60000000E+01  1.00800000E+00  1.00800000E+00
  0.00000000E+00  1.60000000E+01  1.00800000E+00  1.00800000E+00  0.00000000E+00
  1.60000000E+01  1.00800000E+00  1.00800000E+00  0.00000000E+00  1.60000000E+01
  1.00800000E+00  1.00800000E+00  0.00000000E+00  1.60000000E+01  1.00800000E+00
  1.00800000E+00  0.00000000E+00  1.60000000E+01  1.00800000E+00  1.00800000E+00
  0.00000000E+00  1.60000000E+01  1.00800000E+00  1.00800000E+00  0.00000000E+00
  1.60000000E+01  1.00800000E+00  1.00800000E+00  0.00000000E+00  1.60000000E+01
  1.00800000E+00  1.00800000E+00  0.00000000E+00  1.60000000E+01  1.00800000E+00
  1.00800000E+00  0.00000000E+00  1.60000000E+01  1.00800000E+00  1.00800000E+00
  0.00000000E+00  1.60000000E+01  1.00800000E+00  1.00800000E+00  0.00000000E+00
  1.60000000E+01  1.00800000E+00  1.00800000E+00  0.00000000E+00  1.60000000E+01
  1.00800000E+00  1.00800000E+00  0.00000000E+00  1.60000000E+01  1.00800000E+00
  1.00800000E+00  0.00000000E+00  1.60000000E+01  1.00800000E+00  1.00800000E+00
  0.00000000E+00  1.60000000E+01  1.00800000E+00  1.00800000E+00  0.00000000E+00
  1.60000000E+01  1.00800000E+00  1.00800000E+00  0.00000000E+00  1.60000000E+01
  1.00800000E+00  1.00800000E+00  0.00000000E+00  1.60000000E+01  1.00800000E+00
  1.00800000E+00  0.00000000E+00  1.60000000E+01  1.00800000E+00  1.00800000E+00
  0.00000000E+00  1.60000000E+01  1.00800000E+00  1.00800000E+00  0.00000000E+00
  1.60000000E+01  1.00800000E+00  1.00800000E+00  0.00000000E+00  1.60000000E+01
  1.00800000E+00  1.00800000E+00  0.00000000E+00  1.60000000E+01  1.00800000E+00
  1.00800000E+00  0.00000000E+00  1.60000000E+01  1.00800000E+00  1.00800000E+00
  0.00000000E+00  1.60000000E+01  1.00800000E+00  1.00800000E+00  0.00000000E+00
  1.60000000E+01  1.00800000E+00  1.00800000E+00  0.00000000E+00  1.60000000E+01
  1.00800000E+00  1.00800000E+00  0.00000000E+00  1.60000000E+01  1.00800000E+00
  1.00800000E+00  0.00000000E+00  1.60000000E+01  1.00800000E+00  1.00800000E+00
  0.00000000E+00  1.60000000E+01  1.00800000E+00  1.00800000E+00  0.00000000E+00
  1.60000000E+01  1.00800000E+00  1.00800000E+00  0.00000000E+00  1.60000000E+01
  1.00800000E+00  1.00800000E+00  0.00000000E+00  1.60000000E+01  1.00800000E+00
  1.00800000E+00  0.00000000E+00  1.60000000E+01  1.00800000E+00  1.00800000E+00
  0.00000000E+00  1.60000000E+01  1.00800000E+00  1.00800000E+00  0.00000000E+00
  1.60000000E+01  1.00800000E+00  1.00800000E+00  0.00000000E+00  1.60000000E+01
  1.00800000E+00  1.00800000E+00  0.00000000E+00  1.60000000E+01  1.00800000E+00
  1.00800000E+00  0.00000000E+00  1.60000000E+01  1.00800000E+00  1.00800000E+00
  0.00000000E+00  1.60000000E+01  1.00800000E+00  1.00800000E+00  0.00000000E+00
  1.60000000E+01  1.00800000E+00  1.00800000E+00  0.00000000E+00  1.60000000E+01
  1.00800000E+00  1.00800000E+00  0.00000000E+00  1.60000000E+01  1.00800000E+00
  1.00800000E+00  0.00000000E+00  1.60000000E+01  1.00800000E+00  1.00800000E+00
  0.00000000E+00  1.60000000E+01  1.00800000E+00  1.00800000E+00  0.00000000E+00
  1.60000000E+01  1.00800000E+00  1.00800000E+00  0.00000000E+00  1.60000000E+01
  1.00800000E+00  1.00800000E+00  0.00000000E+00  1.60000000E+01  1.00800000E+00
  1.00800000E+00  0.00000000E+00  1.60000000E+01  1.00800000E+00  1.00800000E+00
  0.00000000E+00  1.60000000E+01  1.00800000E+00  1.00800000E+00  0.00000000E+00
  1.60000000E+01  1.00800000E+00  1.00800000E+00  0.00000000E+00  1.60000000E+01
  1.00800000E+00  1.00800000E+00  0.00000000E+00  1.60000000E+01  1.00800000E+00
  1.00800000E+00  0.00000000E+00  1.60000000E+01  1.00800000E+00  1.00800000E+00
  0.00000000E+00  1.60000000E+01  1.00800000E+00  1.00800000E+00  0.00000000E+00
  1.60000000E+01  1.00800000E+00  1.00800000E+00  0.00000000E+00  1.60000000E+01
  1.00800000E+00  1.00800000E+00  0.00000000E+00  1.60000000E+01  1.00800000E+00
  1.00800000E+00  0.00000000E+00  1.60000000E+01  1.00800000E+00  1.00800000E+00
  0.00000000E+00  1.60000000E+01  1.00800000E+00  1.00800000E+00  0.00000000E+00
  1.60000000E+01  1.00800000E+00  1.00800000E+00  0.00000000E+00  1.60000000E+01
  1.00800000E+00  1.00800000E+00  0.00000000E+00  1.60000000E+01  1.00800000E+00
  1.00800000E+00  0.00000000E+00  1.60000000E+01  1.00800000E+00  1.00800000E+00
  0.00000000E+00  1.60000000E+01  1.00800000E+00  1.00800000E+00  0.00000000E+00
  1.60000000E+01  1.00800000E+00  1.00800000E+00  0.00000000E+00  1.60000000E+01
  1.00800000E+00  1.00800000E+00  0.00000000E+00  1.60000000E+01  1.00800000E+00
  1.00800000E+00  0.00000000E+00  1.60000000E+01  1.00800000E+00  1.00800000E+00
  0.00000000E+00  1.60000000E+01  1.00800000E+00  1.00800000E+00  0.00000000E+00
  1.60000000E+01  1.00800000E+00  1.00800000E+00  0.00000000E+00  1.60000000E+01
  1.00800000E+00  1.00800000E+00  0.00000000E+00  1.60000000E+01  1.00800000E+00
  1.00800000E+00  0.00000000E+00  1.60000000E+01  1.00800000E+00  1.00800000E+00
  0.00000000E+00  1.60000000E+01  1.00800000E+00  1.00800000E+00  0.00000000E+00
  1.60000000E+01  1.00800000E+00  1.00800000E+00  0.00000000E+00  1.60000000E+01
  1.00800000E+00  1.00800000E+00  0.00000000E+00  1.60000000E+01  1.00800000E+00
  1.00800000E+00  0.00000000E+00  1.60000000E+01  1.00800000E+00  1.00800000E+00
  0.00000000E+00  1.60000000E+01  1.00800000E+00  1.00800000E+00  0.00000000E+00
  1.60000000E+01  1.00800000E+00  1.00800000E+00  0.00000000E+00  1.60000000E+01
  1.00800000E+00  1.00800000E+00  0.00000000E+00  1.60000000E+01  1.00800000E+00
  1.00800000E+00  0.00000000E+00  1.60000000E+01  1.00800000E+00  1.00800000E+00
  0.00000000E+00  1.60000000E+01  1.00800000E+00  1.00800000E+00  0.00000000E+00
  1.60000000E+01  1.00800000E+00  1.00800000E+00  0.00000000E+00  1.60000000E+01
  1.00800000E+00  1.00800000E+00  0.00000000E+00  1.60000000E+01  1.00800000E+00
  1.00800000E+00  0.00000000E+00  1.60000000E+01  1.00800000E+00  1.00800000E+00
  0.00000000E+00  1.60000000E+01  1.00800000E+00  1.00800000E+00  0.00000000E+00
  1.60000000E+01  1.00800000E+00  1.00800000E+00  0.00000000E+00  1.60000000E+01
  1.00800000E+00  1.00800000E+00  0.00000000E+00  1.60000000E+01  1.00800000E+00
  1.00800000E+00  0.00000000E+00  1.60000000E+01  1.00800000E+00  1.00800000E+00
  0.00000000E+00  1.60000000E+01  1.00800000E+00  1.00800000E+00  0.00000000E+00
  1.60000000E+01  1.00800000E+00  1.00800000E+00  0.00000000E+00  1.60000000E+01
  1.00800000E+00  1.00800000E+00  0.00000000E+00  1.60000000E+01  1.00800000E+00
  1.00800000E+00  0.00000000E+00  1.60000000E+01  1.00800000E+00  1.00800000E+00
  0.00000000E+00  1.60000000E+01  1.00800000E+00  1.00800000E+00  0.00000000E+00
  1.60000000E+01  1.00800000E+00  1.00800000E+00  0.00000000E+00  1.60000000E+01
  1.00800000E+00  1.00800000E+00  0.00000000E+00  1.60000000E+01  1.00800000E+00
  1.00800000E+00  0.00000000E+00  1.60000000E+01  1.00800000E+00  1.00800000E+00
  0.00000000E+00  1.60000000E+01  1.00800000E+00  1.00800000E+00  0.00000000E+00
  1.60000000E+01  1.00800000E+00  1.00800000E+00  0.00000000E+00  1.60000000E+01
  1.00800000E+00  1.00800000E+00  0.00000000E+00  1.60000000E+01  1.00800000E+00
  1.00800000E+00  0.00000000E+00  1.60000000E+01  1.00800000E+00  1.00800000E+00
  0.00000000E+00  1.60000000E+01  1.00800000E+00  1.00800000E+00  0.00000000E+00
  1.60000000E+01  1.00800000E+00  1.00800000E+00  0.00000000E+00  1.60000000E+01
  1.00800000E+00  1.00800000E+00  0.00000000E+00  1.60000000E+01  1.00800000E+00
  1.00800000E+00  0.00000000E+00  1.60000000E+01  1.00800000E+00  1.00800000E+00
  0.00000000E+00  1.60000000E+01  1.00800000E+00  1.00800000E+00  0.00000000E+00
  1.60000000E+01  1.00800000E+00  1.00800000E+00  0.00000000E+00  1.60000000E+01
  1.00800000E+00  1.00800000E+00  0.00000000E+00  1.60000000E+01  1.00800000E+00
  1.00800000E+00  0.00000000E+00  1.60000000E+01  1.00800000E+00  1.00800000E+00
  0.00000000E+00  1.60000000E+01  1.00800000E+00  1.00800000E+00  0.00000000E+00
  1.60000000E+01  1.00800000E+00  1.00800000E+00  0.00000000E+00  1.60000000E+01
  1.00800000E+00  1.00800000E+00  0.00000000E+00  1.60000000E+01  1.00800000E+00
  1.00800000E+00  0.00000000E+00  1.60000000E+01  1.00800000E+00  1.00800000E+00
  0.00000000E+00  1.60000000E+01  1.00800000E+00  1.00800000E+00  0.00000000E+00
  1.60000000E+01  1.00800000E+00  1.00800000E+00  0.00000000E+00  1.60000000E+01
  1.00800000E+00  1.00800000E+00  0.00000000E+00  1.60000000E+01  1.00800000E+00
  1.00800000E+00  0.00000000E+00  1.60000000E+01  1.00800000E+00  1.00800000E+00
  0.00000000E+00  1.60000000E+01  1.00800000E+00  1.00800000E+00  0.00000000E+00
  1.60000000E+01  1.00800000E+00  1.00800000E+00  0.00000000E+00  1.60000000E+01
  1.00800000E+00  1.00800000E+00  0.00000000E+00  1.60000000E+01  1.00800000E+00
  1.00800000E+00  0.00000000E+00  1.60000000E+01  1.00800000E+00  1.00800000E+00
  0.00000000E+00  1.60000000E+01  1.00800000E+00  1.00800000E+00  0.00000000E+00
  1.60000000E+01  1.00800000E+00  1.00800000E+00  0.00000000E+00  1.60000000E+01
  1.00800000E+00  1.00800000E+00  0.00000000E+00  1.60000000E+01  1.00800000E+00
  1.00800000E+00  0.00000000E+00  1.60000000E+01  1.00800000E+00  1.00800000E+00
  0.00000000E+00  1.60000000E+01  1.00800000E+00  1.00800000E+00  0.00000000E+00
  1.60000000E+01  1.00800000E+00  1.00800000E+00  0.00000000E+00  1.60000000E+01
  1.00800000E+00  1.00800000E+00  0.00000000E+00  1.60000000E+01  1.00800000E+00
  1.00800000E+00  0.00000000E+00  1.60000000E+01  1.00800000E+00  1.00800000E+00
  0.00000000E+00  1.60000000E+01  1.00800000E+00  1.00800000E+00  0.00000000E+00
  1.60000000E+01  1.00800000E+00  1.00800000E+00  0.00000000E+00  1.60000000E+01
  1.00800000E+00  1.00800000E+00  0.00000000E+00  1.60000000E+01  1.00800000E+00
  1.00800000E+00  0.00000000E+00  1.60000000E+01  1.00800000E+00  1.00800000E+00
  0.00000000E+00  1.60000000E+01  1.00800000E+00  1.00800000E+00  0.00000000E+00
  1.60000000E+01  1.00800000E+00  1.00800000E+00  0.00000000E+00  1.60000000E+01
  1.00800000E+00  1.00800000E+00  0.00000000E+00  1.60000000E+01  1.00800000E+00
  1.00800000E+00  0.00000000E+00  1.60000000E+01  1.00800000E+00  1.00800000E+00
  0.00000000E+00  1.60000000E+01  1.00800000E+00  1.00800000E+00  0.00000000E+00
  1.60000000E+01  1.00800000E+00  1.00800000E+00  0.00000000E+00  1.60000000E+01
  1.00800000E+00  1.00800000E+00  0.00000000E+00  1.60000000E+01  1.00800000E+00
  1.00800000E+00  0.00000000E+00  1.60000000E+01  1.00800000E+00  1.00800000E+00
  0.00000000E+00  1.60000000E+01  1.00800000E+00  1.00800000E+00  0.00000000E+00
  1.60000000E+01  1.00800000E+00  1.00800000E+00  0.00000000E+00  1.60000000E+01
  1.00800000E+00  1.00800000E+00  0.00000000E+00  1.60000000E+01  1.00800000E+00
  1.00800000E+00  0.00000000E+00  1.60000000E+01  1.00800000E+00  1.00800000E+00
  0.00000000E+00  1.60000000E+01  1.00800000E+00  1.00800000E+00  0.00000000E+00
  1.60000000E+01  1.00800000E+00  1.00800000E+00  0.00000000E+00  1.60000000E+01
  1.00800000E+00  1.00800000E+00  0.00000000E+00  1.60000000E+01  1.00800000E+00
  1.00800000E+00  0.00000000E+00  1.60000000E+01  1.00800000E+00  1.00800000E+00
  0.00000000E+00  1.60000000E+01  1.00800000E+00  1.00800000E+00  0.00000000E+00
  1.60000000E+01  1.00800000E+00  1.00800000E+00  0.00000000E+00  1.60000000E+01
  1.00800000E+00  1.00800000E+00  0.00000000E+00  1.60000000E+01  1.00800000E+00
  1.00800000E+00  0.00000000E+00  1.60000000E+01  1.00800000E+00  1.00800000E+00
  0.00000000E+00  1.60000000E+01  1.00800000E+00  1.00800000E+00  0.00000000E+00
  1.60000000E+01  1.00800000E+00  1.00800000E+00  0.00000000E+00  1.60000000E+01
  1.00800000E+00  1.00800000E+00  0.00000000E+00  1.60000000E+01  1.00800000E+00
  1.00800000E+00  0.00000000E+00  1.60000000E+01  1.00800000E+00  1.00800000E+00
  0.00000000E+00  1.60000000E+01  1.00800000E+00  1.00800000E+00  0.00000000E+00
  1.60000000E+01  1.00800000E+00  1.00800000E+00  0.00000000E+00  1.60000000E+01
  1.00800000E+00  1.00800000E+00  0.00000000E+00  1.60000000E+01  1.00800000E+00
  1.00800000E+00  0.00000000E+00  1.60000000E+01  1.00800000E+00  1.00800000E+00
  0.00000000E+00  1.60000000E+01  1.00800000E+00  1.00800000E+00  0.00000000E+00
  1.60000000E+01  1.00800000E+00  1.00800000E+00  0.00000000E+00  1.60000000E+01
  1.00800000E+00  1.00800000E+00  0.00000000E+00  1.60000000E+01  1.00800000E+00
  1.00800000E+00  0.00000000E+00  1.60000000E+01  1.00800000E+00  1.00800000E+00
  0.00000000E+00  1.60000000E+01  1.00800000E+00  1.00800000E+00  0.00000000E+00
  1.60000000E+01  1.00800000E+00  1.00800000E+00  0.00000000E+00  1.60000000E+01
  1.00800000E+00  1.00800000E+00  0.00000000E+00  1.60000000E+01  1.00800000E+00
  1.00800000E+00  0.00000000E+00  1.60000000E+01  1.00800000E+00  1.00800000E+00
  0.00000000E+00  1.60000000E+01  1.00800000E+00  1.00800000E+00  0.00000000E+00
  1.60000000E+01  1.00800000E+00  1.00800000E+00  0.00000000E+00  1.60000000E+01
  1.00800000E+00  1.00800000E+00  0.00000000E+00  1.60000000E+01  1.00800000E+00
  1.00800000E+00  0.00000000E+00  1.60000000E+01  1.00800000E+00  1.00800000E+00
  0.00000000E+00  1.60000000E+01  1.00800000E+00  1.00800000E+00  0.00000000E+00
  1.60000000E+01  1.00800000E+00  1.00800000E+00  0.00000000E+00  1.60000000E+01
  1.00800000E+00  1.00800000E+00  0.00000000E+00  1.60000000E+01  1.00800000E+00
  1.00800000E+00  0.00000000E+00  1.60000000E+01  1.00800000E+00  1.00800000E+00
  0.00000000E+00  1.60000000E+01  1.00800000E+00  1.00800000E+00  0.00000000E+00
  1.60000000E+01  1.00800000E+00  1.00800000E+00  0.00000000E+00  1.60000000E+01
  1.00800000E+00  1.00800000E+00  0.00000000E+00  1.60000000E+01  1.00800000E+00
  1.00800000E+00  0.00000000E+00  1.60000000E+01  1.00800000E+00  1.00800000E+00
  0.00000000E+00  1.60000000E+01  1.00800000E+00  1.00800000E+00  0.00000000E+00
  1.60000000E+01  1.00800000E+00  1.00800000E+00  0.00000000E+00  1.60000000E+01
  1.00800000E+00  1.00800000E+00  0.00000000E+00  1.60000000E+01  1.00800000E+00
  1.00800000E+00  0.00000000E+00  1.60000000E+01  1.00800000E+00  1.00800000E+00
  0.00000000E+00  1.60000000E+01  1.00800000E+00  1.00800000E+00  0.00000000E+00
  1.60000000E+01  1.00800000E+00  1.00800000E+00  0.00000000E+00  1.60000000E+01
  1.00800000E+00  1.00800000E+00  0.00000000E+00  1.60000000E+01  1.00800000E+00
  1.00800000E+00  0.00000000E+00  1.60000000E+01  1.00800000E+00  1.00800000E+00
  0.00000000E+00  1.60000000E+01  1.00800000E+00  1.00800000E+00  0.00000000E+00
  1.60000000E+01  1.00800000E+00  1.00800000E+00  0.00000000E+00  1.60000000E+01
  1.00800000E+00  1.00800000E+00  0.00000000E+00  1.60000000E+01  1.00800000E+00
  1.00800000E+00  0.00000000E+00  1.60000000E+01  1.00800000E+00  1.00800000E+00
  0.00000000E+00  1.60000000E+01  1.00800000E+00  1.00800000E+00  0.00000000E+00
  1.60000000E+01  1.00800000E+00  1.00800000E+00  0.00000000E+00  1.60000000E+01
  1.00800000E+00  1.00800000E+00  0.00000000E+00  1.60000000E+01  1.00800000E+00
  1.00800000E+00  0.00000000E+00  1.60000000E+01  1.00800000E+00  1.00800000E+00
  0.00000000E+00  1.60000000E+01  1.00800000E+00  1.00800000E+00  0.00000000E+00
  1.60000000E+01  1.00800000E+00  1.00800000E+00  0.00000000E+00  1.60000000E+01
  1.00800000E+00  1.00800000E+00  0.00000000E+00  1.60000000E+01  1.00800000E+00
  1.00800000E+00  0.00000000E+00  1.60000000E+01  1.00800000E+00  1.00800000E+00
  0.00000000E+00  1.60000000E+01  1.00800000E+00  1.00800000E+00  0.00000000E+00
  1.60000000E+01  1.00800000E+00  1.00800000E+00  0.00000000E+00  1.60000000E+01
  1.00800000E+00  1.00800000E+00  0.00000000E+00  1.60000000E+01  1.00800000E+00
  1.00800000E+00  0.00000000E+00  1.60000000E+01  1.00800000E+00  1.00800000E+00
  0.00000000E+00  1.60000000E+01  1.00800000E+00  1.00800000E+00  0.00000000E+00
  1.60000000E+01  1.00800000E+00  1.00800000E+00  0.00000000E+00  1.60000000E+01
  1.00800000E+00  1.00800000E+00  0.00000000E+00  1.60000000E+01  1.00800000E+00
  1.00800000E+00  0.00000000E+00  1.60000000E+01  1.00800000E+00  1.00800000E+00
  0.00000000E+00  1.60000000E+01  1.00800000E+00  1.00800000E+00  0.00000000E+00
  1.60000000E+01  1.00800000E+00  1.00800000E+00  0.00000000E+00  1.60000000E+01
  1.00800000E+00  1.00800000E+00  0.00000000E+00  1.60000000E+01  1.00800000E+00
  1.00800000E+00  0.00000000E+00  1.60000000E+01  1.00800000E+00  1.00800000E+00
  0.00000000E+00  1.60000000E+01  1.00800000E+00  1.00800000E+00  0.00000000E+00
  1.60000000E+01  1.00800000E+00  1.00800000E+00  0.00000000E+00  1.60000000E+01
  1.00800000E+00  1.00800000E+00  0.00000000E+00  1.60000000E+01  1.00800000E+00
  1.00800000E+00  0.00000000E+00  1.60000000E+01  1.00800000E+00  1.00800000E+00
  0.00000000E+00  1.60000000E+01  1.00800000E+00  1.00800000E+00  0.00000000E+00
  1.60000000E+01  1.00800000E+00  1.00800000E+00  0.00000000E+00  1.60000000E+01
  1.00800000E+00  1.00800000E+00  0.00000000E+00  1.60000000E+01  1.00800000E+00
  1.00800000E+00  0.00000000E+00  1.60000000E+01  1.00800000E+00  1.00800000E+00
  0.00000000E+00  1.60000000E+01  1.00800000E+00  1.00800000E+00  0.00000000E+00
  1.60000000E+01  1.00800000E+00  1.00800000E+00  0.00000000E+00  1.60000000E+01
  1.00800000E+00  1.00800000E+00  0.00000000E+00  1.60000000E+01  1.00800000E+00
  1.00800000E+00  0.00000000E+00  1.60000000E+01  1.00800000E+00  1.00800000E+00
  0.00000000E+00  1.60000000E+01  1.00800000E+00  1.00800000E+00  0.00000000E+00
  1.60000000E+01  1.00800000E+00  1.00800000E+00  0.00000000E+00  1.60000000E+01
  1.00800000E+00  1.00800000E+00  0.00000000E+00  1.60000000E+01  1.00800000E+00
  1.00800000E+00  0.00000000E+00  1.60000000E+01  1.00800000E+00  1.00800000E+00
  0.00000000E+00  1.60000000E+01  1.00800000E+00  1.00800000E+00  0.00000000E+00
  1.60000000E+01  1.00800000E+00  1.00800000E+00  0.00000000E+00  1.60000000E+01
  1.00800000E+00  1.00800000E+00  0.00000000E+00  1.60000000E+01  1.00800000E+00
  1.00800000E+00  0.00000000E+00  1.60000000E+01  1.00800000E+00  1.00800000E+00
  0.00000000E+00  1.60000000E+01  1.00800000E+00  1.00800000E+00  0.00000000E+00
  1.60000000E+01  1.00800000E+00  1.00800000E+00  0.00000000E+00  1.60000000E+01
  1.00800000E+00  1.00800000E+00  0.00000000E+00  1.60000000E+01  1.00800000E+00
  1.00800000E+00  0.00000000E+00  1.60000000E+01  1.00800000E+00  1.00800000E+00
  0.00000000E+00  1.60000000E+01  1.00800000E+00  1.00800000E+00  0.00000000E+00
  1.60000000E+01  1.00800000E+00  1.00800000E+00  0.00000000E+00  1.60000000E+01
  1.00800000E+00  1.00800000E+00  0.00000000E+00  1.60000000E+01  1.00800000E+00
  1.00800000E+00  0.00000000E+00  1.60000000E+01  1.00800000E+00  1.00800000E+00
  0.00000000E+00  1.60000000E+01  1.00800000E+00  1.00800000E+00  0.00000000E+00
  1.60000000E+01  1.00800000E+00  1.00800000E+00  0.00000000E+00  1.60000000E+01
  1.00800000E+00  1.00800000E+00  0.00000000E+00  1.60000000E+01  1.00800000E+00
  1.00800000E+00  0.00000000E+00  1.60000000E+01  1.00800000E+00  1.00800000E+00
  0.00000000E+00  1.60000000E+01  1.00800000E+00  1.00800000E+00  0.00000000E+00
  1.60000000E+01  1.00800000E+00  1.00800000E+00  0.00000000E+00  1.60000000E+01
  1.00800000E+00  1.00800000E+00  0.00000000E+00  1.60000000E+01  1.00800000E+00
  1.00800000E+00  0.00000000E+00  1.60000000E+01  1.00800000E+00  1.00800000E+00
  0.00000000E+00  1.60000000E+01  1.00800000E+00  1.00800000E+00  0.00000000E+00
  1.60000000E+01  1.00800000E+00  1.00800000E+00  0.00000000E+00  1.60000000E+01
  1.00800000E+00  1.00800000E+00  0.00000000E+00  1.60000000E+01  1.00800000E+00
  1.00800000E+00  0.00000000E+00  1.60000000E+01  1.00800000E+00  1.00800000E+00
  0.00000000E+00  1.60000000E+01  1.00800000E+00  1.00800000E+00  0.00000000E+00
  1.60000000E+01  1.00800000E+00  1.00800000E+00  0.00000000E+00  1.60000000E+01
  1.00800000E+00  1.00800000E+00  0.00000000E+00  1.60000000E+01  1.00800000E+00
  1.00800000E+00  0.00000000E+00  1.60000000E+01  1.00800000E+00  1.00800000E+00
  0.00000000E+00  1.60000000E+01  1.00800000E+00  1.00800000E+00  0.00000000E+00
  1.60000000E+01  1.00800000E+00  1.00800000E+00  0.00000000E+00  1.60000000E+01
  1.00800000E+00  1.00800000E+00  0.00000000E+00  1.60000000E+01  1.00800000E+00
  1.00800000E+00  0.00000000E+00  1.60000000E+01  1.00800000E+00  1.00800000E+00
  0.00000000E+00  1.60000000E+01  1.00800000E+00  1.00800000E+00  0.00000000E+00
  1.60000000E+01  1.00800000E+00  1.00800000E+00  0.00000000E+00  1.60000000E+01
  1.00800000E+00  1.00800000E+00  0.00000000E+00  1.60000000E+01  1.00800000E+00
  1.00800000E+00  0.00000000E+00  1.60000000E+01  1.00800000E+00  1.00800000E+00
  0.00000000E+00  1.60000000E+01  1.00800000E+00  1.00800000E+00  0.00000000E+00
  1.60000000E+01  1.00800000E+00  1.00800000E+00  0.00000000E+00  1.60000000E+01
  1.00800000E+00  1.00800000E+00  0.00000000E+00  1.60000000E+01  1.00800000E+00
  1.00800000E+00  0.00000000E+00  1.60000000E+01  1.00800000E+00  1.00800000E+00
  0.00000000E+00  1.60000000E+01  1.00800000E+00  1.00800000E+00  0.00000000E+00
  1.60000000E+01  1.00800000E+00  1.00800000E+00  0.00000000E+00  1.60000000E+01
  1.00800000E+00  1.00800000E+00  0.00000000E+00  1.60000000E+01  1.00800000E+00
  1.00800000E+00  0.00000000E+00  1.60000000E+01  1.00800000E+00  1.00800000E+00
  0.00000000E+00  1.60000000E+01  1.00800000E+00  1.00800000E+00  0.00000000E+00
  1.60000000E+01  1.00800000E+00  1.00800000E+00  0.00000000E+00  1.60000000E+01
  1.00800000E+00  1.00800000E+00  0.00000000E+00  1.60000000E+01  1.00800000E+00
  1.00800000E+00  0.00000000E+00  1.60000000E+01  1.00800000E+00  1.00800000E+00
  0.00000000E+00
%FLAG ATOM_TYPE_INDEX                                                           
%FORMAT(10I8)                                                                   
       1       2       1       1       3       4       5       6       2       7
       2       1       1       1       3       4       5       2       7       7
       2       1       1       2       1       1       2       7       3       4
       5       6       2       7       2       1       1       1       3       4
       5       6       2       7       7       7       8       9       9      10
       8       9       9      10       8       9       9      10       8       9
       9      10       8       9       9      10       8       9       9      10
       8       9       9      10       8       9       9      10       8       9
       9      10       8       9       9      10       8       9       9      10
       8       9       9      10       8       9       9      10       8       9
       9      10       8       9       9      10       8       9       9      10
       8       9       9      10       8       9       9      10       8       9
       9      10       8       9       9      10       8       9       9      10
       8       9       9      10       8       9       9      10       8       9
       9      10       8       9       9      10       8       9       9      10
       8       9       9      10       8       9       9      10       8       9
       9      10       8       9       9      10       8       9       9      10
       8       9       9      10       8       9       9      10       8       9
       9      10       8       9       9      10       8       9       9      10
       8       9       9      10       8       9       9      10       8       9
       9      10       8       9       9      10       8       9       9      10
       8       9       9      10       8       9       9      10       8       9
       9      10       8       9       9      10       8       9       9      10
       8       9       9      10       8       9       9      10       8       9
       9      10       8       9       9      10       8       9       9      10
       8       9       9      10       8       9       9      10       8       9
       9      10       8       9       9      10       8       9       9      10
       8       9       9      10       8       9       9      10       8       9
       9      10       8       9       9      10       8       9       9      10
       8       9       9      10       8       9       9      10       8       9
       9      10       8       9       9      10       8       9       9      10
       8       9       9      10       8       9       9      10       8       9
       9      10       8       9       9      10       8       9       9      10
       8       9       9      10       8       9       9      10       8       9
       9      10       8       9       9      10       8       9       9      10
       8       9       9      10       8       9       9      10       8       9
       9      10       8       9       9      10       8       9       9      10
       8       9       9      10       8       9       9      10       8       9
       9      10       8       9       9      10       8       9       9      10
       8       9       9      10       8       9       9      10       8       9
       9      10       8       9       9      10       8       9       9      10
       8       9       9      10       8       9       9      10       8       9
       9      10       8       9       9      10       8       9       9      10
       8       9       9      10       8       9       9      10       8       9
       9      10       8       9       9      10       8       9       9      10
       8       9       9      10       8       9       9      10       8       9
       9      10       8       9       9      10       8       9       9      10
       8       9       9      10       8       9       9      10       8       9
       9      10       8       9       9      10       8       9       9      10
       8       9       9      10       8       9       9      10       8       9
       9      10       8       9       9      10       8       9       9      10
       8       9       9      10       8       9       9      10       8       9
       9      10       8       9       9      10       8       9       9      10
       8       9       9      10       8       9       9      10       8       9
       9      10       8       9       9      10       8       9       9      10
       8       9       9      10       8       9       9      10       8       9
       9      10       8       9       9      10       8       9       9      10
       8       9       9      10       8       9       9      10       8       9
       9      10       8       9       9      10       8       9       9      10
       8       9       9      10       8       9       9      10       8       9
       9      10       8       9       9      10       8       9       9      10
       8       9       9      10       8       9       9      10       8       9
       9      10       8       9       9      10       8       9       9      10
       8       9       9      10       8       9       9      10       8       9
       9      10       8       9       9      10       8       9       9      10
       8       9       9      10       8       9       9      10       8       9
       9      10       8       9       9      10       8       9       9      10
       8       9       9      10       8       9       9      10       8       9
       9      10       8       9       9      10       8       9       9      10
       8       9       9      10       8       9       9      10       8       9
       9      10       8       9       9      10       8       9       9      10
       8       9       9      10       8       9       9      10       8       9
       9      10       8       9       9      10       8       9       9      10
       8       9       9      10       8       9       9      10       8       9
       9      10       8       9       9      10       8       9       9      10
       8       9       9      10       8       9       9      10       8       9
       9      10       8       9       9      10       8       9       9      10
       8       9       9      10       8       9       9      10       8       9
       9      10       8       9       9      10       8       9       9      10
       8       9       9      10       8       9       9      10       8       9
       9      10       8       9       9      10       8       9       9      10
       8       9       9      10       8       9       9      10       8       9
       9      10       8       9       9      10       8       9       9      10
       8       9       9      10       8       9       9      10       8       9
       9      10       8       9       9      10       8       9       9      10
       8       9       9      10       8       9       9      10       8       9
       9      10       8       9       9      10       8       9       9      10
       8       9       9      10       8       9       9      10       8       9
       9      10       8       9       9      10       8       9       9      10
       8       9       9      10       8       9       9      10       8       9
       9      10       8       9       9      10       8       9       9      10
       8       9       9      10       8       9       9      10       8       9
       9      10       8       9       9      10       8       9       9      10
       8       9       9      10       8       9       9      10       8       9
       9      10       8       9       9      10       8       9       9      10
       8       9       9      10       8       9       9      10       8       9
       9      10       8       9       9      10       8       9       9      10
       8       9       9      10       8       9       9      10       8       9
       9      10       8       9       9      10       8       9       9      10
       8       9       9      10       8       9       9      10       8       9
       9      10       8       9       9      10       8       9       9      10
       8       9       9      10       8       9       9      10       8       9
       9      10       8       9       9      10       8       9       9      10
       8       9       9      10       8       9       9      10       8       9
       9      10       8       9       9      10       8       9       9      10
       8       9       9      10       8       9       9      10       8       9
       9      10       8       9       9      10       8       9       9      10
       8       9       9      10       8       9       9      10       8       9
       9      10       8       9       9      10       8       9       9      10
       8       9       9      10       8       9       9      10       8       9
       9      10       8       9       9      10       8       9       9      10
       8       9       9      10       8       9       9      10       8       9
       9      10       8       9       9      10       8       9       9      10
       8       9       9      10       8       9       9      10       8       9
       9      10       8       9       9      10       8       9       9      10
       8       9       9      10       8       9       9      10       8       9
       9      10       8       9       9      10       8       9       9      10
       8       9       9      10       8       9       9      10       8       9
       9      10       8       9       9      10       8       9       9      10
       8       9       9      10       8       9       9      10       8       9
       9      10       8       9       9      10       8       9       9      10
       8       9       9      10       8       9       9      10       8       9
       9      10       8       9       9      10       8       9       9      10
       8       9       9      10       8       9       9      10       8       9
       9      10       8       9       9      10       8       9       9      10
       8       9       9      10       8       9       9      10       8       9
       9      10       8       9       9      10       8       9       9      10
       8       9       9      10       8       9       9      10       8       9
       9      10       8       9       9      10       8       9       9      10
       8       9       9      10       8       9       9      10       8       9
       9      10       8       9       9      10       8       9       9      10
       8       9       9      10       8       9       9      10       8       9
       9      10       8       9       9      10       8       9       9      10
       8       9       9      10       8       9       9      10       8       9
       9      10       8       9       9      10       8       9       9      10
       8       9       9      10       8       9       9      10       8       9
       9      10       8       9       9      10       8       9       9      10
       8       9       9      10       8       9       9      10       8       9
       9      10       8       9       9      10       8       9       9      10
       8       9       9      10       8       9       9      10       8       9
       9      10       8       9       9      10       8       9       9      10
       8       9       9      10       8       9       9      10       8       9
       9      10       8       9       9      10       8       9       9      10
       8       9       9      10       8       9       9      10       8       9
       9      10       8       9       9      10       8       9       9      10
       8       9       9      10       8       9       9      10       8       9
       9      10       8       9       9      10       8       9       9      10
       8       9       9      10       8       9       9      10       8       9
       9      10       8       9       9      10       8       9       9      10
       8       9       9      10       8       9       9      10       8       9
       9      10       8       9       9      10       8       9       9      10
       8       9       9      10       8       9       9      10       8       9
       9      10       8       9       9      10       8       9       9      10
       8       9       9      10       8       9       9      10       8       9
       9      10       8       9       9      10       8       9       9      10
       8       9       9      10       8       9       9      10       8       9
       9      10       8       9       9      10       8       9       9      10
       8       9       9      10       8       9       9      10       8       9
       9      10       8       9       9      10       8       9       9      10
       8       9       9      10       8       9       9      10       8       9
       9      10       8       9       9      10       8       9       9      10
       8       9       9      10       8       9       9      10       8       9
       9      10       8       9       9      10       8       9       9      10
       8       9       9      10       8       9       9      10       8       9
       9      10       8       9       9      10       8       9       9      10
       8       9       9      10       8       9       9      10       8       9
       9      10       8       9       9      10       8       9       9      10
       8       9       9      10       8       9       9      10       8       9
       9      10       8       9       9      10       8       9       9      10
       8       9       9      10       8       9       9      10       8       9
       9      10       8       9       9      10       8       9       9      10
       8       9       9      10       8       9       9      10       8       9
       9      10       8       9       9      10       8       9       9      10
       8       9       9      10       8       9       9      10       8       9
       9      10       8       9       9      10       8       9       9      10
       8       9       9      10       8       9       9      10       8       9
       9      10       8       9       9      10       8       9       9      10
       8       9       9      10       8       9       9      10       8       9
       9      10       8       9       9      10       8       9       9      10
       8       9       9      10       8       9       9      10       8       9
       9      10       8       9       9      10       8       9       9      10
       8       9       9      10       8       9       9      10       8       9
       9      10       8       9       9      10       8       9       9      10
       8       9       9      10       8       9       9      10       8       9
       9      10       8       9       9      10       8       9       9      10
       8       9       9      10       8       9       9      10       8       9
       9      10       8       9       9      10       8       9       9      10
       8       9       9      10       8       9       9      10       8       9
       9      10       8       9       9      10       8       9       9      10
       8       9       9      10       8       9       9      10       8       9
       9      10       8       9       9      10       8       9       9      10
       8       9       9      10       8       9       9      10       8       9
       9      10       8       9       9      10       8       9       9      10
       8       9       9      10       8       9       9      10       8       9
       9      10       8       9       9      10       8       9       9      10
       8       9       9      10       8       9       9      10       8       9
       9      10       8       9       9      10       8       9       9      10
       8       9       9      10       8       9       9      10       8       9
       9      10       8       9       9      10       8       9       9      10
       8       9       9      10       8       9       9      10       8       9
       9      10       8       9       9      10       8       9       9      10
       8       9       9      10       8       9       9      10       8       9
       9      10       8       9       9      10       8       9       9      10
       8       9       9      10       8       9       9      10       8       9
       9      10       8       9       9      10       8       9       9      10
       8       9       9      10       8       9       9      10       8       9
       9      10       8       9       9      10       8       9       9      10
       8       9       9      10       8       9       9      10       8       9
       9      10       8       9       9      10       8       9       9      10
       8       9       9      10       8       9       9      10       8       9
       9      10       8       9       9      10       8       9       9      10
       8       9       9      10       8       9       9      10       8       9
       9      10       8       9       9      10       8       9       9      10
       8       9       9      10       8       9       9      10       8       9
       9      10       8       9       9      10       8       9       9      10
       8       9       9      10       8       9       9      10       8       9
       9      10       8       9       9      10       8       9       9      10
       8       9       9      10       8       9       9      10       8       9
       9      10       8       9       9      10       8       9       9      10
       8       9       9      10       8       9       9      10       8       9
       9      10       8       9       9      10       8       9       9      10
       8       9       9      10       8       9       9      10       8       9
       9      10       8       9       9      10       8       9       9      10
       8       9       9      10       8       9       9      10       8       9
       9      10       8       9       9      10       8       9       9      10
       8       9       9      10       8       9       9      10       8       9
       9      10       8       9       9      10       8       9       9      10
       8       9       9      10       8       9       9      10       8       9
       9      10       8       9       9      10       8       9       9      10
       8       9       9      10       8       9       9      10       8       9
       9      10       8       9       9      10       8       9       9      10
       8       9       9      10       8       9       9      10       8       9
       9      10       8       9       9      10       8       9       9      10
       8       9       9      10       8       9       9      10       8       9
       9      10       8       9       9      10       8       9       9      10
       8       9       9      10       8       9       9      10       8       9
       9      10       8       9       9      10       8       9       9      10
       8       9       9      10       8       9       9      10       8       9
       9      10       8       9       9      10       8       9       9      10
       8       9       9      10       8       9       9      10       8       9
       9      10       8       9       9      10       8       9       9      10
       8       9       9      10       8       9       9      10       8       9
       9      10       8       9       9      10       8       9       9      10
       8       9       9      10       8       9       9      10       8       9
       9      10       8       9       9      10       8       9       9      10
       8       9       9      10       8       9       9      10       8       9
       9      10       8       9       9      10       8       9       9      10
       8       9       9      10       8       9       9      10       8       9
       9      10       8       9       9      10       8       9       9      10
       8       9       9      10       8       9       9      10       8       9
       9      10       8       9       9      10       8       9       9      10
       8       9       9      10       8       9       9      10       8       9
       9      10       8       9       9      10       8       9       9      10
       8       9       9      10       8       9       9      10       8       9
       9      10       8       9       9      10       8       9       9      10
       8       9       9      10       8       9       9      10       8       9
       9      10       8       9       9      10       8       9       9      10
       8       9       9      10       8       9       9      10       8       9
       9      10       8       9       9      10       8       9       9      10
       8       9       9      10       8       9       9      10       8       9
       9      10       8       9       9      10       8       9       9      10
       8       9       9      10       8       9       9      10       8       9
       9      10       8       9       9      10       8       9       9      10
       8       9       9      10       8       9       9      10       8       9
       9      10       8       9       9      10       8       9       9      10
       8       9       9      10       8       9       9      10       8       9
       9      10       8       9       9      10       8       9       9      10
       8       9       9      10       8       9       9      10       8       9
       9      10       8       9       9      10       8       9       9      10
       8       9       9      10       8       9       9      10       8       9
       9      10       8       9       9      10       8       9       9      10
       8       9       9      10       8       9       9      10       8       9
       9      10       8       9       9      10       8       9       9      10
       8       9       9      10       8       9       9      10       8       9
       9      10       8       9       9      10       8       9       9      10
       8       9       9      10       8       9       9      10       8       9
       9      10       8       9       9      10       8       9       9      10
       8       9       9      10       8       9       9      10       8       9
       9      10       8       9       9      10       8       9       9      10
       8       9       9      10       8       9       9      10       8       9
       9      10       8       9       9      10       8       9       9      10
       8       9       9      10       8       9       9      10       8       9
       9      10       8       9       9      10       8       9       9      10
       8       9       9      10       8       9       9      10       8       9
       9      10       8       9       9      10       8       9       9      10
       8       9       9      10       8       9       9      10       8       9
       9      10       8       9       9      10       8       9       9      10
       8       9       9      10       8       9       9      10       8       9
       9      10       8       9       9      10       8       9       9      10
       8       9       9      10       8       9       9      10       8       9
       9      10       8       9       9      10       8       9       9      10
       8       9       9      10       8       9       9      10       8       9
       9      10       8       9       9      10       8       9       9      10
       8       9       9      10       8       9       9      10       8       9
       9      10       8       9       9      10       8       9       9      10
       8       9       9      10       8       9       9      10       8       9
       9      10       8       9       9      10       8       9       9      10
       8       9       9      10       8       9       9      10       8       9
       9      10       8       9       9      10       8       9       9      10
       8       9       9      10       8       9       9      10       8       9
       9      10       8       9       9      10       8       9       9      10
       8       9       9      10       8       9       9      10       8       9
       9      10       8       9       9      10       8       9       9      10
       8       9       9      10       8       9       9      10       8       9
       9      10       8       9       9      10       8       9       9      10
       8       9       9      10       8       9       9      10       8       9
       9      10       8       9       9      10       8       9       9      10
       8       9       9      10       8       9       9      10       8       9
       9      10       8       9       9      10       8       9       9      10
       8       9       9      10       8       9       9      10       8       9
       9      10       8       9       9      10       8       9       9      10
       8       9       9      10       8       9       9      10       8       9
       9      10       8       9       9      10       8       9       9      10
       8       9       9      10       8       9       9      10       8       9
       9      10       8       9       9      10       8       9       9      10
       8       9       9      10       8       9       9      10       8       9
       9      10       8       9       9      10       8       9       9      10
       8       9       9      10       8       9       9      10       8       9
       9      10       8       9       9      10       8       9       9      10
       8       9       9      10       8       9       9      10       8       9
       9      10       8       9       9      10       8       9       9      10
       8       9       9      10       8       9       9      10       8       9
       9      10       8       9       9      10       8       9       9      10
       8       9       9      10       8       9       9      10       8       9
       9      10       8       9       9      10       8       9       9      10
       8       9       9      10       8       9       9      10       8       9
       9      10       8       9       9      10       8       9       9      10
       8       9       9      10       8       9       9      10       8       9
       9      10       8       9       9      10       8       9       9      10
       8       9       9      10       8       9       9      10       8       9
       9      10       8       9       9      10       8       9       9      10
       8       9       9      10       8       9       9      10       8       9
       9      10       8       9       9      10       8       9       9      10
       8       9       9      10       8       9       9      10       8       9
       9      10       8       9       9      10       8       9       9      10
       8       9       9      10       8       9       9      10       8       9
       9      10       8       9       9      10       8       9       9      10
       8       9       9      10       8       9       9      10       8       9
       9      10       8       9       9      10       8       9       9      10
       8       9       9      10       8       9       9      10       8       9
       9      10       8       9       9      10       8       9       9      10
       8       9       9      10       8       9       9      10       8       9
       9      10       8       9       9      10       8       9       9      10
       8       9       9      10       8       9       9      10       8       9
       9      10       8       9       9      10       8       9       9      10
       8       9       9      10       8       9       9      10       8       9
       9      10       8       9       9      10       8       9       9      10
       8       9       9      10       8       9       9      10       8       9
       9      10       8       9       9      10       8       9       9      10
       8       9       9      10       8       9       9      10       8       9
       9      10       8       9       9      10       8       9       9      10
       8       9       9      10       8       9       9      10       8       9
       9      10       8       9       9      10       8       9       9      10
       8       9       9      10       8       9       9      10       8       9
       9      10       8       9       9      10       8       9       9      10
       8       9       9      10       8       9       9      10       8       9
       9      10       8       9       9      10       8       9       9      10
       8       9       9      10       8       9       9      10       8       9
       9      10       8       9       9      10       8       9       9      10
       8       9       9      10       8       9       9      10       8       9
       9      10       8       9       9      10       8       9       9      10
       8       9       9      10       8       9       9      10       8       9
       9      10       8       9       9      10       8       9       9      10
       8       9       9      10       8       9       9      10       8       9
       9      10       8       9       9      10       8       9       9      10
       8       9       9      10       8       9       9      10       8       9
       9      10       8       9       9      10       8       9       9      10
       8       9       9      10       8       9       9      10       8       9
       9      10       8       9       9      10       8       9       9      10
       8       9       9      10       8       9       9      10       8       9
       9      10       8       9       9      10       8       9       9      10
       8       9       9      10       8       9       9      10       8       9
       9      10       8       9       9      10       8       9       9      10
       8       9       9      10       8       9       9      10       8       9
       9      10       8       9       9      10       8       9       9      10
       8       9       9      10       8       9       9      10       8       9
       9      10       8       9       9      10       8       9       9      10
       8       9       9      10       8       9       9      10       8       9
       9      10       8       9       9      10       8       9       9      10
       8       9       9      10       8       9       9      10       8       9
       9      10       8       9       9      10       8       9       9      10
       8       9       9      10       8       9       9      10       8       9
       9      10       8       9       9      10       8       9       9      10
       8       9       9      10       8       9       9      10       8       9
       9      10       8       9       9      10       8       9       9      10
       8       9       9      10       8       9       9      10       8       9
       9      10       8       9       9      10       8       9       9      10
       8       9       9      10       8       9       9      10       8       9
       9      10       8       9       9      10       8       9       9      10
       8       9       9      10       8       9       9      10       8       9
       9      10       8       9       9      10       8       9       9      10
       8       9       9      10       8       9       9      10       8       9
       9      10       8       9       9      10       8       9       9      10
       8       9       9      10       8       9       9      10       8       9
       9      10       8       9       9      10       8       9       9      10
       8       9       9      10       8       9       9      10       8       9
       9      10       8       9       9      10       8       9       9      10
       8       9       9      10       8       9       9      10       8       9
       9      10       8       9       9      10       8       9       9      10
       8       9       9      10       8       9       9      10       8       9
       9      10       8       9       9      10       8       9       9      10
       8       9       9      10       8       9       9      10       8       9
       9      10       8       9       9      10       8       9       9      10
       8       9       9      10       8       9       9      10       8       9
       9      10       8       9       9      10       8       9       9      10
       8       9       9      10       8       9       9      10       8       9
       9      10       8       9       9      10       8       9       9      10
       8       9       9      10       8       9       9      10       8       9
       9      10       8       9       9      10       8       9       9      10
       8       9       9      10       8       9       9      10       8       9
       9      10       8       9       9      10       8       9       9      10
       8       9       9      10       8       9       9      10       8       9
       9      10       8       9       9      10       8       9       9      10
       8       9       9      10       8       9       9      10       8       9
       9      10       8       9       9      10       8       9       9      10
       8       9       9      10       8       9       9      10       8       9
       9      10       8       9       9      10       8       9       9      10
       8       9       9      10       8       9       9      10       8       9
       9      10       8       9       9      10       8       9       9      10
       8       9       9      10       8       9       9      10       8       9
       9      10       8       9       9      10       8       9       9      10
       8       9       9      10       8       9       9      10       8       9
       9      10       8       9       9      10       8       9       9      10
       8       9       9      10       8       9       9      10       8       9
       9      10       8       9       9      10       8       9       9      10
       8       9       9      10       8       9       9      10       8       9
       9      10       8       9       9      10       8       9       9      10
       8       9       9      10       8       9       9      10       8       9
       9      10       8       9       9      10       8       9       9      10
       8       9       9      10       8       9       9      10       8       9
       9      10       8       9       9      10       8       9       9      10
       8       9       9      10       8       9       9      10       8       9
       9      10       8       9       9      10       8       9       9      10
       8       9       9      10       8       9       9      10       8       9
       9      10       8       9       9      10       8       9       9      10
       8       9       9      10       8       9       9      10       8       9
       9      10       8       9       9      10       8       9       9      10
       8       9       9      10       8       9       9      10       8       9
       9      10       8       9       9      10       8       9       9      10
       8       9       9      10       8       9       9      10       8       9
       9      10       8       9       9      10       8       9       9      10
       8       9       9      10       8       9       9      10       8       9
       9      10       8       9       9      10       8       9       9      10
       8       9       9      10       8       9       9      10       8       9
       9      10       8       9       9      10       8       9       9      10
       8       9       9      10       8       9       9      10       8       9
       9      10       8       9       9      10       8       9       9      10
       8       9       9      10       8       9       9      10       8       9
       9      10       8       9       9      10       8       9       9      10
       8       9       9      10       8       9       9      10       8       9
       9      10       8       9       9      10       8       9       9      10
       8       9       9      10       8       9       9      10       8       9
       9      10       8       9       9      10       8       9       9      10
       8       9       9      10       8       9       9      10       8       9
       9      10       8       9       9      10       8       9       9      10
       8       9       9      10       8       9       9      10       8       9
       9      10       8       9       9      10       8       9       9      10
       8       9       9      10       8       9       9      10       8       9
       9      10       8       9       9      10       8       9       9      10
       8       9       9      10       8       9       9      10       8       9
       9      10       8       9       9      10       8       9       9      10
       8       9       9      10       8       9       9      10       8       9
       9      10       8       9       9      10       8       9       9      10
       8       9       9      10       8       9       9      10       8       9
       9      10       8       9       9      10       8       9       9      10
       8       9       9      10       8       9       9      10       8       9
       9      10       8       9       9      10       8       9       9      10
       8       9       9      10       8       9       9      10       8       9
       9      10       8       9       9      10       8       9       9      10
       8       9       9      10       8       9       9      10       8       9
       9      10       8       9       9      10       8       9       9      10
       8       9       9      10       8       9       9      10       8       9
       9      10       8       9       9      10       8       9       9      10
       8       9       9      10       8       9       9      10       8       9
       9      10       8       9       9      10       8       9       9      10
       8       9       9      10       8       9       9      10       8       9
       9      10       8       9       9      10       8       9       9      10
       8       9       9      10       8       9       9      10       8       9
       9      10       8       9       9      10       8       9       9      10
       8       9       9      10       8       9       9      10       8       9
       9      10       8       9       9      10       8       9       9      10
       8       9       9      10       8       9       9      10       8       9
       9      10       8       9       9      10       8       9       9      10
       8       9       9      10       8       9       9      10       8       9
       9      10       8       9       9      10       8       9       9      10
       8       9       9      10       8       9       9      10       8       9
       9      10       8       9       9      10       8       9       9      10
       8       9       9      10       8       9       9      10       8       9
       9      10       8       9       9      10       8       9       9      10
       8       9       9      10       8       9       9      10       8       9
       9      10       8       9       9      10       8       9       9      10
       8       9       9      10       8       9       9      10       8       9
       9      10       8       9       9      10       8       9       9      10
       8       9       9      10       8       9       9      10       8       9
       9      10       8       9       9      10       8       9       9      10
       8       9       9      10       8       9       9      10       8       9
       9      10       8       9       9      10       8       9       9      10
       8       9       9      10       8       9       9      10       8       9
       9      10       8       9       9      10       8       9       9      10
       8       9       9      10       8       9       9      10       8       9
       9      10       8       9       9      10       8       9       9      10
       8       9       9      10       8       9       9      10       8       9
       9      10       8       9       9      10       8       9       9      10
       8       9       9      10       8       9       9      10       8       9
       9      10       8       9       9      10       8       9       9      10
       8       9       9      10       8       9       9      10       8       9
       9      10       8       9       9      10       8       9       9      10
       8       9       9      10       8       9       9      10       8       9
       9      10       8       9       9      10       8       9       9      10
       8       9       9      10       8       9       9      10       8       9
       9      10       8       9       9      10       8       9       9      10
       8       9       9      10       8       9       9      10       8       9
       9      10       8       9       9      10       8       9       9      10
       8       9       9      10       8       9       9      10       8       9
       9      10       8       9       9      10       8       9       9      10
       8       9       9      10       8       9       9      10       8       9
       9      10       8       9       9      10       8       9       9      10
       8       9       9      10       8       9       9      10       8       9
       9      10       8       9       9      10       8       9       9      10
       8       9       9      10       8       9       9      10       8       9
       9      10       8       9       9      10       8       9       9      10
       8       9       9      10       8       9       9      10       8       9
       9      10       8       9       9      10       8       9       9      10
       8       9       9      10       8       9       9      10       8       9
       9      10       8       9       9      10       8       9       9      10
       8       9       9      10       8       9       9      10       8       9
       9      10       8       9       9      10       8       9       9      10
       8       9       9      10       8       9       9      10       8       9
       9      10       8       9       9      10       8       9       9      10
       8       9       9      10       8       9       9      10       8       9
       9      10       8       9       9      10       8       9       9      10
       8       9       9      10       8       9       9      10       8       9
       9      10       8       9       9      10       8       9       9      10
       8       9       9      10       8       9       9      10       8       9
       9      10       8       9       9      10       8       9       9      10
       8       9       9      10       8       9       9      10       8       9
       9      10       8       9       9      10       8       9       9      10
       8       9       9      10       8       9       9      10       8       9
       9      10       8       9       9      10       8       9       9      10
       8       9       9      10       8       9       9      10       8       9
       9      10       8       9       9      10       8       9       9      10
       8       9       9      10       8       9       9      10       8       9
       9      10       8       9       9      10       8       9       9      10
       8       9       9      10       8       9       9      10       8       9
       9      10       8       9       9      10       8       9       9      10
       8       9       9      10       8       9       9      10       8       9
       9      10       8       9       9      10       8       9       9      10
       8       9       9      10       8       9       9      10       8       9
       9      10       8       9       9      10       8       9       9      10
       8       9       9      10       8       9       9      10       8       9
       9      10       8       9       9      10       8       9       9      10
       8       9       9      10       8       9       9      10       8       9
       9      10       8       9       9      10       8       9       9      10
       8       9       9      10       8       9       9      10       8       9
       9      10       8       9       9      10       8       9       9      10
       8       9       9      10       8       9       9      10       8       9
       9      10       8       9       9      10       8       9       9      10
       8       9       9      10       8       9       9      10       8       9
       9      10       8       9       9      10       8       9       9      10
       8       9       9      10       8       9       9      10       8       9
       9      10       8       9       9      10       8       9       9      10
       8       9       9      10       8       9       9      10       8       9
       9      10       8       9       9      10       8       9       9      10
       8       9       9      10       8       9       9      10       8       9
       9      10       8       9       9      10       8       9       9      10
       8       9       9      10       8       9       9      10       8       9
       9      10       8       9       9      10       8       9       9      10
       8       9       9      10       8       9       9      10       8       9
       9      10       8       9       9      10       8       9       9      10
       8       9       9      10       8       9       9      10       8       9
       9      10       8       9       9      10       8       9       9      10
       8       9       9      10       8       9       9      10       8       9
       9      10       8       9       9      10       8       9       9      10
       8       9       9      10       8       9       9      10       8       9
       9      10       8       9       9      10       8       9       9      10
       8       9       9      10       8       9       9      10       8       9
       9      10       8       9       9      10       8       9       9      10
       8       9       9      10       8       9       9      10       8       9
       9      10       8       9       9      10       8       9       9      10
       8       9       9      10       8       9       9      10       8       9
       9      10       8       9       9      10       8       9       9      10
       8       9       9      10       8       9       9      10       8       9
       9      10       8       9       9      10       8       9       9      10
       8       9       9      10       8       9       9      10       8       9
       9      10       8       9       9      10       8       9       9      10
       8       9       9      10       8       9       9      10       8       9
       9      10       8       9       9      10       8       9       9      10
       8       9       9      10       8       9       9      10       8       9
       9      10       8       9       9      10       8       9       9      10
       8       9       9      10       8       9       9      10       8       9
       9      10       8       9       9      10       8       9       9      10
       8       9       9      10       8       9       9      10       8       9
       9      10       8       9       9      10       8       9       9      10
       8       9       9      10       8       9       9      10       8       9
       9      10       8       9       9      10       8       9       9      10
       8       9       9      10       8       9       9      10       8       9
       9      10       8       9       9      10       8       9       9      10
       8       9       9      10       8       9       9      10       8       9
       9      10       8       9       9      10       8       9       9      10
       8       9       9      10       8       9       9      10       8       9
       9      10       8       9       9      10       8       9       9      10
       8       9       9      10       8       9       9      10       8       9
       9      10       8       9       9      10       8       9       9      10
       8       9       9      10       8       9       9      10       8       9
       9      10       8       9       9      10       8       9       9      10
       8       9       9      10       8       9       9      10       8       9
       9      10       8       9       9      10       8       9       9      10
       8       9       9      10       8       9       9      10       8       9
       9      10       8       9       9      10       8       9       9      10
       8       9       9      10       8       9       9      10       8       9
       9      10       8       9       9      10       8       9       9      10
       8       9       9      10       8       9       9      10       8       9
       9      10       8       9       9      10       8       9       9      10
       8       9       9      10       8       9       9      10       8       9
       9      10       8       9       9      10       8       9       9      10
       8       9       9      10       8       9       9      10       8       9
       9      10       8       9       9      10       8       9       9      10
       8       9       9      10       8       9       9      10       8       9
       9      10       8       9       9      10       8       9       9      10
       8       9       9      10       8       9       9      10       8       9
       9      10       8       9       9      10       8       9       9      10
       8       9       9      10       8       9       9      10       8       9
       9      10       8       9       9      10       8       9       9      10
       8       9       9      10       8       9       9      10       8       9
       9      10       8       9       9      10       8       9       9      10
       8       9       9      10       8       9       9      10       8       9
       9      10       8       9       9      10       8       9       9      10
       8       9       9      10       8       9       9      10       8       9
       9      10       8       9       9      10       8       9       9      10
       8       9       9      10       8       9       9      10       8       9
       9      10       8       9       9      10       8       9       9      10
       8       9       9      10       8       9       9      10       8       9
       9      10       8       9       9      10       8       9       9      10
       8       9       9      10       8       9       9      10       8       9
       9      10       8       9       9      10       8       9       9      10
       8       9       9      10       8       9       9      10       8       9
       9      10       8       9       9      10       8       9       9      10
       8       9       9      10       8       9       9      10       8       9
       9      10       8       9       9      10       8       9       9      10
       8       9       9      10       8       9       9      10       8       9
       9      10       8       9       9      10       8       9       9      10
       8       9       9      10       8       9       9      10       8       9
       9      10       8       9       9      10       8       9       9      10
       8       9       9      10       8       9       9      10       8       9
       9      10       8       9       9      10       8       9       9      10
       8       9       9      10       8       9       9      10       8       9
       9      10       8       9       9      10       8       9       9      10
       8       9       9      10       8       9       9      10       8       9
       9      10       8       9       9      10
%FLAG NUMBER_EXCLUDED_ATOMS                                                     
%FORMAT(10I8)                                                                   
       6       7       4       3       7       3      10       4      10       7
       6       3       2       1      10       3      14      11       6       5
       8       5       4       7       4       3       6       3       7       3
      10       4      10       7       6       3       2       1       7       3
       5       4       3       2       1       1       3       2       1       1
       3       2       1       1       3       2       1       1       3       2
       1       1       3       2       1       1       3       2       1       1
       3       2       1       1       3       2       1       1       3       2
       1       1       3       2       1       1       3       2       1       1
       3       2       1       1       3       2       1       1       3       2
       1       1       3       2       1       1       3       2       1       1
       3       2       1       1       3       2       1       1       3       2
       1       1       3       2       1       1       3       2       1       1
       3       2       1       1       3       2       1       1       3       2
       1       1       3       2       1       1       3       2       1       1
       3       2       1       1       3       2       1       1       3       2
       1       1       3       2       1       1       3       2       1       1
       3       2       1       1       3       2       1       1       3       2
       1       1       3       2       1       1       3       2       1       1
       3       2       1       1       3       2       1       1       3       2
       1       1       3       2       1       1       3       2       1       1
       3       2       1       1       3       2       1       1       3       2
       1       1       3       2       1       1       3       2       1       1
       3       2       1       1       3       2       1       1       3       2
       1       1       3       2       1       1       3       2       1       1
       3       2       1       1       3       2       1       1       3       2
       1       1       3       2       1       1       3       2       1       1
       3       2       1       1       3       2       1       1       3       2
       1       1       3       2       1       1       3       2       1       1
       3       2       1       1       3       2       1       1       3       2
       1       1       3       2       1       1       3       2       1       1
       3       2       1       1       3       2       1       1       3       2
       1       1       3       2       1       1       3       2       1       1
       3       2       1       1       3       2       1       1       3       2
       1       1       3       2       1       1       3       2       1       1
       3       2       1       1       3       2       1       1       3       2
       1       1       3       2       1       1       3       2       1       1
       3       2       1       1       3       2       1       1       3       2
       1       1       3       2       1       1       3       2       1       1
       3       2       1       1       3       2       1       1       3       2
       1       1       3       2       1       1       3       2       1       1
       3       2       1       1       3       2       1       1       3       2
       1       1       3       2       1       1       3       2       1       1
       3       2       1       1       3       2       1       1       3       2
       1       1       3       2       1       1       3       2       1       1
       3       2       1       1       3       2       1       1       3       2
       1       1       3       2       1       1       3       2       1       1
       3       2       1       1       3       2       1       1       3       2
       1       1       3       2       1       1       3       2       1       1
       3       2       1       1       3       2       1       1       3       2
       1       1       3       2       1       1       3       2       1       1
       3       2       1       1       3       2       1       1       3       2
       1       1       3       2       1       1       3       2       1       1
       3       2       1       1       3       2       1       1       3       2
       1       1       3       2       1       1       3       2       1       1
       3       2       1       1       3       2       1       1       3       2
       1       1       3       2       1       1       3       2       1       1
       3       2       1       1       3       2       1       1       3       2
       1       1       3       2       1       1       3       2       1       1
       3       2       1       1       3       2       1       1       3       2
       1       1       3       2       1       1       3       2       1       1
       3       2       1       1       3       2       1       1       3       2
       1       1       3       2       1       1       3       2       1       1
       3       2       1       1       3       2       1       1       3       2
       1       1       3       2       1       1       3       2       1       1
       3       2       1       1       3       2       1       1       3       2
       1       1       3       2       1       1       3       2       1       1
       3       2       1       1       3       2       1       1       3       2
       1       1       3       2       1       1       3       2       1       1
       3       2       1       1       3       2       1       1       3       2
       1       1       3       2       1       1       3       2       1       1
       3       2       1       1       3       2       1       1       3       2
       1       1       3       2       1       1       3       2       1       1
       3       2       1       1       3       2       1       1       3       2
       1       1       3       2       1       1       3       2       1       1
       3       2       1       1       3       2       1       1       3       2
       1       1       3       2       1       1       3       2       1       1
       3       2       1       1       3       2       1       1       3       2
       1       1       3       2       1       1       3       2       1       1
       3       2       1       1       3       2       1       1       3       2
       1       1       3       2       1       1       3       2       1       1
       3       2       1       1       3       2       1       1       3       2
       1       1       3       2       1       1       3       2       1       1
       3       2       1       1       3       2       1       1       3       2
       1       1       3       2       1       1       3       2       1       1
       3       2       1       1       3       2       1       1       3       2
       1       1       3       2       1       1       3       2       1       1
       3       2       1       1       3       2       1       1       3       2
       1       1       3       2       1       1       3       2       1       1
       3       2       1       1       3       2       1       1       3       2
       1       1       3       2       1       1       3       2       1       1
       3       2       1       1       3       2       1       1       3       2
       1       1       3       2       1       1       3       2       1       1
       3       2       1       1       3       2       1       1       3       2
       1       1       3       2       1       1       3       2       1       1
       3       2       1       1       3       2       1       1       3       2
       1       1       3       2       1       1       3       2       1       1
       3       2       1       1       3       2       1       1       3       2
       1       1       3       2       1       1       3       2       1       1
       3       2       1       1       3       2       1       1       3       2
       1       1       3       2       1       1       3       2       1       1
       3       2       1       1       3       2       1       1       3       2
       1       1       3       2       1       1       3       2       1       1
       3       2       1       1       3       2       1       1       3       2
       1       1       3       2       1       1       3       2       1       1
       3       2       1       1       3       2       1       1       3       2
       1       1       3       2       1       1       3       2       1       1
       3       2       1       1       3       2       1       1       3       2
       1       1       3       2       1       1       3       2       1       1
       3       2       1       1       3       2       1       1       3       2
       1       1       3       2       1       1       3       2       1       1
       3       2       1       1       3       2       1       1       3       2
       1       1       3       2       1       1       3       2       1       1
       3       2       1       1       3       2       1       1       3       2
       1       1       3       2       1       1       3       2       1       1
       3       2       1       1       3       2       1       1       3       2
       1       1       3       2       1       1       3       2       1       1
       3       2       1       1       3       2       1       1       3       2
       1       1       3       2       1       1       3       2       1       1
       3       2       1       1       3       2       1       1       3       2
       1       1       3       2       1       1       3       2       1       1
       3       2       1       1       3       2       1       1       3       2
       1       1       3       2       1       1       3       2       1       1
       3       2       1       1       3       2       1       1       3       2
       1       1       3       2       1       1       3       2       1       1
       3       2       1       1       3       2       1       1       3       2
       1       1       3       2       1       1       3       2       1       1
       3       2       1       1       3       2       1       1       3       2
       1       1       3       2       1       1       3       2       1       1
       3       2       1       1       3       2       1       1       3       2
       1       1       3       2       1       1       3       2       1       1
       3       2       1       1       3       2       1       1       3       2
       1       1       3       2       1       1       3       2       1       1
       3       2       1       1       3       2       1       1       3       2
       1       1       3       2       1       1       3       2       1       1
       3       2       1       1       3       2       1       1       3       2
       1       1       3       2       1       1       3       2       1       1
       3       2       1       1       3       2       1       1       3       2
       1       1       3       2       1       1       3       2       1       1
       3       2       1       1       3       2       1       1       3       2
       1       1       3       2       1       1       3       2       1       1
       3       2       1       1       3       2       1       1       3       2
       1       1       3       2       1       1       3       2       1       1
       3       2       1       1       3       2       1       1       3       2
       1       1       3       2       1       1       3       2       1       1
       3       2       1       1       3       2       1       1       3       2
       1       1       3       2       1       1       3       2       1       1
       3       2       1       1       3       2       1       1       3       2
       1       1       3       2       1       1       3       2       1       1
       3       2       1       1       3       2       1       1       3       2
       1       1       3       2       1       1       3       2       1       1
       3       2       1       1       3       2       1       1       3       2
       1       1       3       2       1       1       3       2       1       1
       3       2       1       1       3       2       1       1       3       2
       1       1       3       2       1       1       3       2       1       1
       3       2       1       1       3       2       1       1       3       2
       1       1       3       2       1       1       3       2       1       1
       3       2       1       1       3       2       1       1       3       2
       1       1       3       2       1       1       3       2       1       1
       3       2       1       1       3       2       1       1       3       2
       1       1       3       2       1       1       3       2       1       1
       3       2       1       1       3       2       1       1       3       2
       1       1       3       2       1       1       3       2       1       1
       3       2       1       1       3       2       1       1       3       2
       1       1       3       2       1       1       3       2       1       1
       3       2       1       1       3       2       1       1       3       2
       1       1       3       2       1       1       3       2       1       1
       3       2       1       1       3       2       1       1       3       2
       1       1       3       2       1       1       3       2       1       1
       3       2       1       1       3       2       1       1       3       2
       1       1       3       2       1       1       3       2       1       1
       3       2       1       1       3       2       1       1       3       2
       1       1       3       2       1       1       3       2       1       1
       3       2       1       1       3       2       1       1       3       2
       1       1       3       2       1       1       3       2       1       1
       3       2       1       1       3       2       1       1       3       2
       1       1       3       2       1       1       3       2       1       1
       3       2       1       1       3       2       1       1       3       2
       1       1       3       2       1       1       3       2       1       1
       3       2       1       1       3       2       1       1       3       2
       1       1       3       2       1       1       3       2       1       1
       3       2       1       1       3       2       1       1       3       2
       1       1       3       2       1       1       3       2       1       1
       3       2       1       1       3       2       1       1       3       2
       1       1       3       2       1       1       3       2       1       1
       3       2       1       1       3       2       1       1       3       2
       1       1       3       2       1       1       3       2       1       1
       3       2       1       1       3       2       1       1       3       2
       1       1       3       2       1       1       3       2       1       1
       3       2       1       1       3       2       1       1       3       2
       1       1       3       2       1       1       3       2       1       1
       3       2       1       1       3       2       1       1       3       2
       1       1       3       2       1       1       3       2       1       1
       3       2       1       1       3       2       1       1       3       2
       1       1       3       2       1       1       3       2       1       1
       3       2       1       1       3       2       1       1       3       2
       1       1       3       2       1       1       3       2       1       1
       3       2       1       1       3       2       1       1       3       2
       1       1       3       2       1       1       3       2       1       1
       3       2       1       1       3       2       1       1       3       2
       1       1       3       2       1       1       3       2       1       1
       3       2       1       1       3       2       1       1       3       2
       1       1       3       2       1       1       3       2       1       1
       3       2       1       1       3       2       1       1       3       2
       1       1       3       2       1       1       3       2       1       1
       3       2       1       1       3       2       1       1       3       2
       1       1       3       2       1       1       3       2       1       1
       3       2       1       1       3       2       1       1       3       2
       1       1       3       2       1       1       3       2       1       1
       3       2       1       1       3       2       1       1       3       2
       1       1       3       2       1       1       3       2       1       1
       3       2       1       1       3       2       1       1       3       2
       1       1       3       2       1       1       3       2       1       1
       3       2       1       1       3       2       1       1       3       2
       1       1       3       2       1       1       3       2       1       1
       3       2       1       1       3       2       1       1       3       2
       1       1       3       2       1       1       3       2       1       1
       3       2       1       1       3       2       1       1       3       2
       1       1       3       2       1       1       3       2       1       1
       3       2       1       1       3       2       1       1       3       2
       1       1       3       2       1       1       3       2       1       1
       3       2       1       1       3       2       1       1       3       2
       1       1       3       2       1       1       3       2       1       1
       3       2       1       1       3       2       1       1       3       2
       1       1       3       2       1       1       3       2       1       1
       3       2       1       1       3       2       1       1       3       2
       1       1       3       2       1       1       3       2       1       1
       3       2       1       1       3       2       1       1       3       2
       1       1       3       2       1       1       3       2       1       1
       3       2       1       1       3       2       1       1       3       2
       1       1       3       2       1       1       3       2       1       1
       3       2       1       1       3       2       1       1       3       2
       1       1       3       2       1       1       3       2       1       1
       3       2       1       1       3       2       1       1       3       2
       1       1       3       2       1       1       3       2       1       1
       3       2       1       1       3       2       1       1       3       2
       1       1       3       2       1       1       3       2       1       1
       3       2       1       1       3       2       1       1       3       2
       1       1       3       2       1       1       3       2       1       1
       3       2       1       1       3       2       1       1       3       2
       1       1       3       2       1       1       3       2       1       1
       3       2       1       1       3       2       1       1       3       2
       1       1       3       2       1       1       3       2       1       1
       3       2       1       1       3       2       1       1       3       2
       1       1       3       2       1       1       3       2       1       1
       3       2       1       1       3       2       1       1       3       2
       1       1       3       2       1       1       3       2       1       1
       3       2       1       1       3       2       1       1       3       2
       1       1       3       2       1       1       3       2       1       1
       3       2       1       1       3       2       1       1       3       2
       1       1       3       2       1       1       3       2       1       1
       3       2       1       1       3       2       1       1       3       2
       1       1       3       2       1       1       3       2       1       1
       3       2       1       1       3       2       1       1       3       2
       1       1       3       2       1       1       3       2       1       1
       3       2       1       1       3       2       1       1       3       2
       1       1       3       2       1       1       3       2       1       1
       3       2       1       1       3       2       1       1       3       2
       1       1       3       2       1       1       3       2       1       1
       3       2       1       1       3       2       1       1       3       2
       1       1       3       2       1       1       3       2       1       1
       3       2       1       1       3       2       1       1       3       2
       1       1       3       2       1       1       3       2       1       1
       3       2       1       1       3       2       1       1       3       2
       1       1       3       2       1       1       3       2       1       1
       3       2       1       1       3       2       1       1       3       2
       1       1       3       2       1       1       3       2       1       1
       3       2       1       1       3       2       1       1       3       2
       1       1       3       2       1       1       3       2       1       1
       3       2       1       1       3       2       1       1       3       2
       1       1       3       2       1       1       3       2       1       1
       3       2       1       1       3       2       1       1       3       2
       1       1       3       2       1       1       3       2       1       1
       3       2       1       1       3       2       1       1       3       2
       1       1       3       2       1       1       3       2       1       1
       3       2       1       1       3       2       1       1       3       2
       1       1       3       2       1       1       3       2       1       1
       3       2       1       1       3       2       1       1       3       2
       1       1       3       2       1       1       3       2       1       1
       3       2       1       1       3       2       1       1       3       2
       1       1       3       2       1       1       3       2       1       1
       3       2       1       1       3       2       1       1       3       2
       1       1       3       2       1       1       3       2       1       1
       3       2       1       1       3       2       1       1       3       2
       1       1       3       2       1       1       3       2       1       1
       3       2       1       1       3       2       1       1       3       2
       1       1       3       2       1       1       3       2       1       1
       3       2       1       1       3       2       1       1       3       2
       1       1       3       2       1       1       3       2       1       1
       3       2       1       1       3       2       1       1       3       2
       1       1       3       2       1       1       3       2       1       1
       3       2       1       1       3       2       1       1       3       2
       1       1       3       2       1       1       3       2       1       1
       3       2       1       1       3       2       1       1       3       2
       1       1       3       2       1       1       3       2       1       1
       3       2       1       1       3       2       1       1       3       2
       1       1       3       2       1       1       3       2       1       1
       3       2       1       1       3       2       1       1       3       2
       1       1       3       2       1       1       3       2       1       1
       3       2       1       1       3       2       1       1       3       2
       1       1       3       2       1       1       3       2       1       1
       3       2       1       1       3       2       1       1       3       2
       1       1       3       2       1       1       3       2       1       1
       3       2       1       1       3       2       1       1       3       2
       1       1       3       2       1       1       3       2       1       1
       3       2       1       1       3       2       1       1       3       2
       1       1       3       2       1       1       3       2       1       1
       3       2       1       1       3       2       1       1       3       2
       1       1       3       2       1       1       3       2       1       1
       3       2       1       1       3       2       1       1       3       2
       1       1       3       2       1       1       3       2       1       1
       3       2       1       1       3       2       1       1       3       2
       1       1       3       2       1       1       3       2       1       1
       3       2       1       1       3       2       1       1       3       2
       1       1       3       2       1       1       3       2       1       1
       3       2       1       1       3       2       1       1       3       2
       1       1       3       2       1       1       3       2       1       1
       3       2       1       1       3       2       1       1       3       2
       1       1       3       2       1       1       3       2       1       1
       3       2       1       1       3       2       1       1       3       2
       1       1       3       2       1       1       3       2       1       1
       3       2       1       1       3       2       1       1       3       2
       1       1       3       2       1       1       3       2       1       1
       3       2       1       1       3       2       1       1       3       2
       1       1       3       2       1       1       3       2       1       1
       3       2       1       1       3       2       1       1       3       2
       1       1       3       2       1       1       3       2       1       1
       3       2       1       1       3       2       1       1       3       2
       1       1       3       2       1       1       3       2       1       1
       3       2       1       1       3       2       1       1       3       2
       1       1       3       2       1       1       3       2       1       1
       3       2       1       1       3       2       1       1       3       2
       1       1       3       2       1       1       3       2       1       1
       3       2       1       1       3       2       1       1       3       2
       1       1       3       2       1       1       3       2       1       1
       3       2       1       1       3       2       1       1       3       2
       1       1       3       2       1       1       3       2       1       1
       3       2       1       1       3       2       1       1       3       2
       1       1       3       2       1       1       3       2       1       1
       3       2       1       1       3       2       1       1       3       2
       1       1       3       2       1       1       3       2       1       1
       3       2       1       1       3       2       1       1       3       2
       1       1       3       2       1       1       3       2       1       1
       3       2       1       1       3       2       1       1       3       2
       1       1       3       2       1       1       3       2       1       1
       3       2       1       1       3       2       1       1       3       2
       1       1       3       2       1       1       3       2       1       1
       3       2       1       1       3       2       1       1       3       2
       1       1       3       2       1       1       3       2       1       1
       3       2       1       1       3       2       1       1       3       2
       1       1       3       2       1       1       3       2       1       1
       3       2       1       1       3       2       1       1       3       2
       1       1       3       2       1       1       3       2       1       1
       3       2       1       1       3       2       1       1       3       2
       1       1       3       2       1       1       3       2       1       1
       3       2       1       1       3       2       1       1       3       2
       1       1       3       2       1       1       3       2       1       1
       3       2       1       1       3       2       1       1       3       2
       1       1       3       2       1       1       3       2       1       1
       3       2       1       1       3       2       1       1       3       2
       1       1       3       2       1       1       3       2       1       1
       3       2       1       1       3       2       1       1       3       2
       1       1       3       2       1       1       3       2       1       1
       3       2       1       1       3       2       1       1       3       2
       1       1       3       2       1       1       3       2       1       1
       3       2       1       1       3       2       1       1       3       2
       1       1       3       2       1       1       3       2       1       1
       3       2       1       1       3       2       1       1       3       2
       1       1       3       2       1       1       3       2       1       1
       3       2       1       1       3       2       1       1       3       2
       1       1       3       2       1       1       3       2       1       1
       3       2       1       1       3       2       1       1       3       2
       1       1       3       2       1       1       3       2       1       1
       3       2       1       1       3       2       1       1       3       2
       1       1       3       2       1       1       3       2       1       1
       3       2       1       1       3       2       1       1       3       2
       1       1       3       2       1       1       3       2       1       1
       3       2       1       1       3       2       1       1       3       2
       1       1       3       2       1       1       3       2       1       1
       3       2       1       1       3       2       1       1       3       2
       1       1       3       2       1       1       3       2       1       1
       3       2       1       1       3       2       1       1       3       2
       1       1       3       2       1       1       3       2       1       1
       3       2       1       1       3       2       1       1       3       2
       1       1       3       2       1       1       3       2       1       1
       3       2       1       1       3       2       1       1       3       2
       1       1       3       2       1       1       3       2       1       1
       3       2       1       1       3       2       1       1       3       2
       1       1       3       2       1       1       3       2       1       1
       3       2       1       1       3       2       1       1       3       2
       1       1       3       2       1       1       3       2       1       1
       3       2       1       1       3       2       1       1       3       2
       1       1       3       2       1       1       3       2       1       1
       3       2       1       1       3       2       1       1       3       2
       1       1       3       2       1       1       3       2       1       1
       3       2       1       1       3       2       1       1       3       2
       1       1       3       2       1       1       3       2       1       1
       3       2       1       1       3       2       1       1       3       2
       1       1       3       2       1       1       3       2       1       1
       3       2       1       1       3       2       1       1       3       2
       1       1       3       2       1       1       3       2       1       1
       3       2       1       1       3       2       1       1       3       2
       1       1       3       2       1       1       3       2       1       1
       3       2       1       1       3       2       1       1       3       2
       1       1       3       2       1       1       3       2       1       1
       3       2       1       1       3       2       1       1       3       2
       1       1       3       2       1       1       3       2       1       1
       3       2       1       1       3       2       1       1       3       2
       1       1       3       2       1       1       3       2       1       1
       3       2       1       1       3       2       1       1       3       2
       1       1       3       2       1       1       3       2       1       1
       3       2       1       1       3       2       1       1       3       2
       1       1       3       2       1       1       3       2       1       1
       3       2       1       1       3       2       1       1       3       2
       1       1       3       2       1       1       3       2       1       1
       3       2       1       1       3       2       1       1       3       2
       1       1       3       2       1       1       3       2       1       1
       3       2       1       1       3       2       1       1       3       2
       1       1       3       2       1       1       3       2       1       1
       3       2       1       1       3       2       1       1       3       2
       1       1       3       2       1       1       3       2       1       1
       3       2       1       1       3       2       1       1       3       2
       1       1       3       2       1       1       3       2       1       1
       3       2       1       1       3       2       1       1       3       2
       1       1       3       2       1       1       3       2       1       1
       3       2       1       1       3       2       1       1       3       2
       1       1       3       2       1       1       3       2       1       1
       3       2       1       1       3       2       1       1       3       2
       1       1       3       2       1       1       3       2       1       1
       3       2       1       1       3       2       1       1       3       2
       1       1       3       2       1       1       3       2       1       1
       3       2       1       1       3       2       1       1       3       2
       1       1       3       2       1       1       3       2       1       1
       3       2       1       1       3       2       1       1       3       2
       1       1       3       2       1       1       3       2       1       1
       3       2       1       1       3       2       1       1       3       2
       1       1       3       2       1       1       3       2       1       1
       3       2       1       1       3       2       1       1       3       2
       1       1       3       2       1       1       3       2       1       1
       3       2       1       1       3       2       1       1       3       2
       1       1       3       2       1       1       3       2       1       1
       3       2       1       1       3       2       1       1       3       2
       1       1       3       2       1       1       3       2       1       1
       3       2       1       1       3       2       1       1       3       2
       1       1       3       2       1       1       3       2       1       1
       3       2       1       1       3       2       1       1       3       2
       1       1       3       2       1       1       3       2       1       1
       3       2       1       1       3       2       1       1       3       2
       1       1       3       2       1       1       3       2       1       1
       3       2       1       1       3       2       1       1       3       2
       1       1       3       2       1       1       3       2       1       1
       3       2       1       1       3       2       1       1       3       2
       1       1       3       2       1       1       3       2       1       1
       3       2       1       1       3       2       1       1       3       2
       1       1       3       2       1       1       3       2       1       1
       3       2       1       1       3       2       1       1       3       2
       1       1       3       2       1       1       3       2       1       1
       3       2       1       1       3       2       1       1       3       2
       1       1       3       2       1       1       3       2       1       1
       3       2       1       1       3       2       1       1       3       2
       1       1       3       2       1       1       3       2       1       1
       3       2       1       1       3       2       1       1       3       2
       1       1       3       2       1       1       3       2       1       1
       3       2       1       1       3       2       1       1       3       2
       1       1       3       2       1       1       3       2       1       1
       3       2       1       1       3       2       1       1       3       2
       1       1       3       2       1       1       3       2       1       1
       3       2       1       1       3       2       1       1       3       2
       1       1       3       2       1       1       3       2       1       1
       3       2       1       1       3       2       1       1       3       2
       1       1       3       2       1       1       3       2       1       1
       3       2       1       1       3       2       1       1       3       2
       1       1       3       2       1       1       3       2       1       1
       3       2       1       1       3       2       1       1       3       2
       1       1       3       2       1       1       3       2       1       1
       3       2       1       1       3       2       1       1       3       2
       1       1       3       2       1       1       3       2       1       1
       3       2       1       1       3       2       1       1       3       2
       1       1       3       2       1       1       3       2       1       1
       3       2       1       1       3       2       1       1       3       2
       1       1       3       2       1       1       3       2       1       1
       3       2       1       1       3       2       1       1       3       2
       1       1       3       2       1       1       3       2       1       1
       3       2       1       1       3       2       1       1       3       2
       1       1       3       2       1       1       3       2       1       1
       3       2       1       1       3       2       1       1       3       2
       1       1       3       2       1       1       3       2       1       1
       3       2       1       1       3       2       1       1       3       2
       1       1       3       2       1       1       3       2       1       1
       3       2       1       1       3       2       1       1       3       2
       1       1       3       2       1       1       3       2       1       1
       3       2       1       1       3       2       1       1       3       2
       1       1       3       2       1       1       3       2       1       1
       3       2       1       1       3       2       1       1       3       2
       1       1       3       2       1       1       3       2       1       1
       3       2       1       1       3       2       1       1       3       2
       1       1       3       2       1       1       3       2       1       1
       3       2       1       1       3       2       1       1       3       2
       1       1       3       2       1       1       3       2       1       1
       3       2       1       1       3       2       1       1       3       2
       1       1       3       2       1       1       3       2       1       1
       3       2       1       1       3       2       1       1       3       2
       1       1       3       2       1       1       3       2       1       1
       3       2       1       1       3       2       1       1       3       2
       1       1       3       2       1       1       3       2       1       1
       3       2       1       1       3       2       1       1       3       2
       1       1       3       2       1       1       3       2       1       1
       3       2       1       1       3       2       1       1       3       2
       1       1       3       2       1       1       3       2       1       1
       3       2       1       1       3       2       1       1       3       2
       1       1       3       2       1       1       3       2       1       1
       3       2       1       1       3       2       1       1       3       2
       1       1       3       2       1       1       3       2       1       1
       3       2       1       1       3       2       1       1       3       2
       1       1       3       2       1       1       3       2       1       1
       3       2       1       1       3       2       1       1       3       2
       1       1       3       2       1       1       3       2       1       1
       3       2       1       1       3       2       1       1       3       2
       1       1       3       2       1       1       3       2       1       1
       3       2       1       1       3       2       1       1       3       2
       1       1       3       2       1       1       3       2       1       1
       3       2       1       1       3       2       1       1       3       2
       1       1       3       2       1       1       3       2       1       1
       3       2       1       1       3       2       1       1       3       2
       1       1       3       2       1       1       3       2       1       1
       3       2       1       1       3       2       1       1       3       2
       1       1       3       2       1       1       3       2       1       1
       3       2       1       1       3       2       1       1       3       2
       1       1       3       2       1       1       3       2       1       1
       3       2       1       1       3       2       1       1       3       2
       1       1       3       2       1       1       3       2       1       1
       3       2       1       1       3       2       1       1       3       2
       1       1       3       2       1       1       3       2       1       1
       3       2       1       1       3       2       1       1       3       2
       1       1       3       2       1       1       3       2       1       1
       3       2       1       1       3       2       1       1       3       2
       1       1       3       2       1       1       3       2       1       1
       3       2       1       1       3       2       1       1       3       2
       1       1       3       2       1       1       3       2       1       1
       3       2       1       1       3       2       1       1       3       2
       1       1       3       2       1       1       3       2       1       1
       3       2       1       1       3       2       1       1       3       2
       1       1       3       2       1       1       3       2       1       1
       3       2       1       1       3       2       1       1       3       2
       1       1       3       2       1       1       3       2       1       1
       3       2       1       1       3       2       1       1       3       2
       1       1       3       2       1       1       3       2       1       1
       3       2       1       1       3       2       1       1       3       2
       1       1       3       2       1       1       3       2       1       1
       3       2       1       1       3       2       1       1       3       2
       1       1       3       2       1       1       3       2       1       1
       3       2       1       1       3       2       1       1       3       2
       1       1       3       2       1       1       3       2       1       1
       3       2       1       1       3       2       1       1       3       2
       1       1       3       2       1       1       3       2       1       1
       3       2       1       1       3       2       1       1       3       2
       1       1       3       2       1       1       3       2       1       1
       3       2       1       1       3       2       1       1       3       2
       1       1       3       2       1       1       3       2       1       1
       3       2       1       1       3       2       1       1       3       2
       1       1       3       2       1       1       3       2       1       1
       3       2       1       1       3       2       1       1       3       2
       1       1       3       2       1       1       3       2       1       1
       3       2       1       1       3       2       1       1       3       2
       1       1       3       2       1       1       3       2       1       1
       3       2       1       1       3       2       1       1       3       2
       1       1       3       2       1       1       3       2       1       1
       3       2       1       1       3       2       1       1       3       2
       1       1       3       2       1       1       3       2       1       1
       3       2       1       1       3       2       1       1       3       2
       1       1       3       2       1       1       3       2       1       1
       3       2       1       1       3       2       1       1       3       2
       1       1       3       2       1       1       3       2       1       1
       3       2       1       1       3       2       1       1       3       2
       1       1       3       2       1       1       3       2       1       1
       3       2       1       1       3       2       1       1       3       2
       1       1       3       2       1       1       3       2       1       1
       3       2       1       1       3       2       1       1       3       2
       1       1       3       2       1       1       3       2       1       1
       3       2       1       1       3       2       1       1       3       2
       1       1       3       2       1       1       3       2       1       1
       3       2       1       1       3       2       1       1       3       2
       1       1       3       2       1       1       3       2       1       1
       3       2       1       1       3       2       1       1       3       2
       1       1       3       2       1       1       3       2       1       1
       3       2       1       1       3       2       1       1       3       2
       1       1       3       2       1       1       3       2       1       1
       3       2       1       1       3       2       1       1       3       2
       1       1       3       2       1       1       3       2       1       1
       3       2       1       1       3       2       1       1       3       2
       1       1       3       2       1       1       3       2       1       1
       3       2       1       1       3       2       1       1       3       2
       1       1       3       2       1       1       3       2       1       1
       3       2       1       1       3       2       1       1       3       2
       1       1       3       2       1       1       3       2       1       1
       3       2       1       1       3       2       1       1       3       2
       1       1       3       2       1       1       3       2       1       1
       3       2       1       1       3       2       1       1       3       2
       1       1       3       2       1       1       3       2       1       1
       3       2       1       1       3       2       1       1       3       2
       1       1       3       2       1       1       3       2       1       1
       3       2       1       1       3       2       1       1       3       2
       1       1       3       2       1       1       3       2       1       1
       3       2       1       1       3       2       1       1       3       2
       1       1       3       2       1       1       3       2       1       1
       3       2       1       1       3       2       1       1       3       2
       1       1       3       2       1       1       3       2       1       1
       3       2       1       1       3       2       1       1       3       2
       1       1       3       2       1       1       3       2       1       1
       3       2       1       1       3       2       1       1       3       2
       1       1       3       2       1       1       3       2       1       1
       3       2       1       1       3       2       1       1       3       2
       1       1       3       2       1       1       3       2       1       1
       3       2       1       1       3       2       1       1       3       2
       1       1       3       2       1       1       3       2       1       1
       3       2       1       1       3       2       1       1       3       2
       1       1       3       2       1       1       3       2       1       1
       3       2       1       1       3       2       1       1       3       2
       1       1       3       2       1       1       3       2       1       1
       3       2       1       1       3       2       1       1       3       2
       1       1       3       2       1       1       3       2       1       1
       3       2       1       1       3       2       1       1       3       2
       1       1       3       2       1       1       3       2       1       1
       3       2       1       1       3       2       1       1       3       2
       1       1       3       2       1       1       3       2       1       1
       3       2       1       1       3       2       1       1       3       2
       1       1       3       2       1       1       3       2       1       1
       3       2       1       1       3       2       1       1       3       2
       1       1       3       2       1       1       3       2       1       1
       3       2       1       1       3       2       1       1       3       2
       1       1       3       2       1       1       3       2       1       1
       3       2       1       1       3       2       1       1       3       2
       1       1       3       2       1       1       3       2       1       1
       3       2       1       1       3       2       1       1       3       2
       1       1       3       2       1       1       3       2       1       1
       3       2       1       1       3       2       1       1       3       2
       1       1       3       2       1       1       3       2       1       1
       3       2       1       1       3       2       1       1       3       2
       1       1       3       2       1       1       3       2       1       1
       3       2       1       1       3       2       1       1       3       2
       1       1       3       2       1       1       3       2       1       1
       3       2       1       1       3       2       1       1       3       2
       1       1       3       2       1       1       3       2       1       1
       3       2       1       1       3       2       1       1       3       2
       1       1       3       2       1       1       3       2       1       1
       3       2       1       1       3       2       1       1       3       2
       1       1       3       2       1       1       3       2       1       1
       3       2       1       1       3       2       1       1       3       2
       1       1       3       2       1       1
%FLAG NONBONDED_PARM_INDEX                                                      
%FORMAT(10I8)                                                                   
       1       2       4       7      11      16      22      29      37      46
       2       3       5       8      12      17      23      30      38      47
       4       5       6       9      13      18      24      31      39      48
       7       8       9      10      14      19      25      32      40      49
      11      12      13      14      15      20      26      33      41      50
      16      17      18      19      20      21      27      34      42      51
      22      23      24      25      26      27      28      35      43      52
      29      30      31      32      33      34      35      36      44      53
      37      38      39      40      41      42      43      44      45      54
      46      47      48      49      50      51      52      53      54      55
%FLAG RESIDUE_LABEL                                                             
%FORMAT(20a4)                                                                   
ACE ALA PRO ALA NME WAT WAT WAT WAT WAT WAT WAT WAT WAT WAT WAT WAT WAT WAT WAT 
WAT WAT WAT WAT WAT WAT WAT WAT WAT WAT WAT WAT WAT WAT WAT WAT WAT WAT WAT WAT 
WAT WAT WAT WAT WAT WAT WAT WAT WAT WAT WAT WAT WAT WAT WAT WAT WAT WAT WAT WAT 
WAT WAT WAT WAT WAT WAT WAT WAT WAT WAT WAT WAT WAT WAT WAT WAT WAT WAT WAT WAT 
WAT WAT WAT WAT WAT WAT WAT WAT WAT WAT WAT WAT WAT WAT WAT WAT WAT WAT WAT WAT 
WAT WAT WAT WAT WAT WAT WAT WAT WAT WAT WAT WAT WAT WAT WAT WAT WAT WAT WAT WAT 
WAT WAT WAT WAT WAT WAT WAT WAT WAT WAT WAT WAT WAT WAT WAT WAT WAT WAT WAT WAT 
WAT WAT WAT WAT WAT WAT WAT WAT WAT WAT WAT WAT WAT WAT WAT WAT WAT WAT WAT WAT 
WAT WAT WAT WAT WAT WAT WAT WAT WAT WAT WAT WAT WAT WAT WAT WAT WAT WAT WAT WAT 
WAT WAT WAT WAT WAT WAT WAT WAT WAT WAT WAT WAT WAT WAT WAT WAT WAT WAT WAT WAT 
WAT WAT WAT WAT WAT WAT WAT WAT WAT WAT WAT WAT WAT WAT WAT WAT WAT WAT WAT WAT 
WAT WAT WAT WAT WAT WAT WAT WAT WAT WAT WAT WAT WAT WAT WAT WAT WAT WAT WAT WAT 
WAT WAT WAT WAT WAT WAT WAT WAT WAT WAT WAT WAT WAT WAT WAT WAT WAT WAT WAT WAT 
WAT WAT WAT WAT WAT WAT WAT WAT WAT WAT WAT WAT WAT WAT WAT WAT WAT WAT WAT WAT 
WAT WAT WAT WAT WAT WAT WAT WAT WAT WAT WAT WAT WAT WAT WAT WAT WAT WAT WAT WAT 
WAT WAT WAT WAT WAT WAT WAT WAT WAT WAT WAT WAT WAT WAT WAT WAT WAT WAT WAT WAT 
WAT WAT WAT WAT WAT WAT WAT WAT WAT WAT WAT WAT WAT WAT WAT WAT WAT WAT WAT WAT 
WAT WAT WAT WAT WAT WAT WAT WAT WAT WAT WAT WAT WAT WAT WAT WAT WAT WAT WAT WAT 
WAT WAT WAT WAT WAT WAT WAT WAT WAT WAT WAT WAT WAT WAT WAT WAT WAT WAT WAT WAT 
WAT WAT WAT WAT WAT WAT WAT WAT WAT WAT WAT WAT WAT WAT WAT WAT WAT WAT WAT WAT 
WAT WAT WAT WAT WAT WAT WAT WAT WAT WAT WAT WAT WAT WAT WAT WAT WAT WAT WAT WAT 
WAT WAT WAT WAT WAT WAT WAT WAT WAT WAT WAT WAT WAT WAT WAT WAT WAT WAT WAT WAT 
WAT WAT WAT WAT WAT WAT WAT WAT WAT WAT WAT WAT WAT WAT WAT WAT WAT WAT WAT WAT 
WAT WAT WAT WAT WAT WAT WAT WAT WAT WAT WAT WAT WAT WAT WAT WAT WAT WAT WAT WAT 
WAT WAT WAT WAT WAT WAT WAT WAT WAT WAT WAT WAT WAT WAT WAT WAT WAT WAT WAT WAT 
WAT WAT WAT WAT WAT WAT WAT WAT WAT WAT WAT WAT WAT WAT WAT WAT WAT WAT WAT WAT 
WAT WAT WAT WAT WAT WAT WAT WAT WAT WAT WAT WAT WAT WAT WAT WAT WAT WAT WAT WAT 
WAT WAT WAT WAT WAT WAT WAT WAT WAT WAT WAT WAT WAT WAT WAT WAT WAT WAT WAT WAT 
WAT WAT WAT WAT WAT WAT WAT WAT WAT WAT WAT WAT WAT WAT WAT WAT WAT WAT WAT WAT 
WAT WAT WAT WAT WAT WAT WAT WAT WAT WAT WAT WAT WAT WAT WAT WAT WAT WAT WAT WAT 
WAT WAT WAT WAT WAT WAT WAT WAT WAT WAT WAT WAT WAT WAT WAT WAT WAT WAT WAT WAT 
WAT WAT WAT WAT WAT WAT WAT WAT WAT WAT WAT WAT WAT WAT WAT WAT WAT WAT WAT WAT 
WAT WAT WAT WAT WAT WAT WAT WAT WAT WAT WAT WAT WAT WAT WAT WAT WAT WAT WAT WAT 
WAT WAT WAT WAT WAT WAT WAT WAT WAT WAT WAT WAT WAT WAT WAT WAT WAT WAT WAT WAT 
WAT WAT WAT WAT WAT WAT WAT WAT WAT WAT WAT WAT WAT WAT WAT WAT WAT WAT WAT WAT 
WAT WAT WAT WAT WAT WAT WAT WAT WAT WAT WAT WAT WAT WAT WAT WAT WAT WAT WAT WAT 
WAT WAT WAT WAT WAT WAT WAT WAT WAT WAT WAT WAT WAT WAT WAT WAT WAT WAT WAT WAT 
WAT WAT WAT WAT WAT WAT WAT WAT WAT WAT WAT WAT WAT WAT WAT WAT WAT WAT WAT WAT 
WAT WAT WAT WAT WAT WAT WAT WAT WAT WAT WAT WAT WAT WAT WAT WAT WAT WAT WAT WAT 
WAT WAT WAT WAT WAT WAT WAT WAT WAT WAT WAT WAT WAT WAT WAT WAT WAT WAT WAT WAT 
WAT WAT WAT WAT WAT WAT WAT WAT WAT WAT WAT WAT WAT WAT WAT WAT WAT WAT WAT WAT 
WAT WAT WAT WAT WAT WAT WAT WAT WAT WAT WAT WAT WAT WAT WAT WAT WAT WAT WAT WAT 
WAT WAT WAT WAT WAT WAT WAT WAT WAT WAT WAT WAT WAT WAT WAT WAT WAT WAT WAT WAT 
WAT WAT WAT WAT WAT WAT WAT WAT WAT WAT WAT WAT WAT WAT WAT WAT WAT WAT WAT WAT 
WAT WAT WAT WAT WAT WAT WAT WAT WAT WAT WAT WAT WAT WAT WAT WAT WAT WAT WAT WAT 
WAT WAT WAT WAT WAT WAT WAT WAT WAT WAT WAT WAT WAT WAT WAT WAT WAT WAT WAT WAT 
WAT WAT WAT WAT WAT WAT WAT WAT WAT WAT WAT WAT WAT WAT WAT WAT WAT WAT WAT WAT 
WAT WAT WAT WAT WAT WAT WAT WAT WAT WAT WAT WAT WAT WAT WAT WAT WAT WAT WAT WAT 
WAT WAT WAT WAT WAT WAT WAT WAT WAT WAT WAT WAT WAT WAT WAT WAT WAT WAT WAT WAT 
WAT WAT WAT WAT WAT WAT WAT WAT WAT WAT WAT WAT WAT WAT WAT WAT WAT WAT WAT WAT 
WAT WAT WAT WAT WAT WAT WAT WAT WAT WAT WAT WAT WAT WAT WAT WAT WAT WAT WAT WAT 
WAT WAT WAT WAT WAT WAT WAT WAT WAT WAT WAT WAT WAT WAT WAT WAT WAT WAT WAT WAT 
WAT WAT WAT WAT WAT WAT WAT WAT WAT WAT WAT WAT WAT WAT WAT WAT WAT WAT WAT WAT 
WAT WAT WAT WAT WAT WAT WAT WAT WAT WAT WAT WAT WAT WAT WAT WAT WAT WAT WAT WAT 
WAT WAT WAT WAT WAT WAT WAT WAT WAT WAT WAT WAT WAT WAT WAT WAT WAT WAT WAT WAT 
WAT WAT WAT WAT WAT WAT WAT WAT WAT WAT WAT WAT WAT WAT WAT WAT WAT WAT WAT WAT 
WAT WAT WAT WAT WAT WAT WAT WAT WAT WAT WAT WAT WAT WAT WAT WAT WAT WAT WAT WAT 
WAT WAT WAT WAT WAT WAT WAT WAT WAT WAT WAT WAT WAT WAT WAT WAT WAT WAT WAT WAT 
WAT WAT WAT WAT WAT WAT WAT WAT WAT WAT WAT WAT WAT WAT WAT WAT WAT WAT WAT WAT 
WAT WAT WAT WAT WAT WAT WAT WAT WAT WAT WAT WAT WAT WAT WAT WAT WAT WAT WAT WAT 
WAT WAT WAT WAT WAT WAT WAT WAT WAT WAT WAT WAT WAT WAT WAT WAT WAT WAT WAT WAT 
WAT WAT WAT WAT WAT WAT WAT WAT WAT WAT WAT WAT WAT WAT WAT WAT WAT WAT WAT WAT 
WAT WAT WAT WAT WAT WAT WAT WAT WAT WAT WAT WAT WAT WAT WAT WAT WAT WAT WAT WAT 
WAT WAT WAT WAT WAT WAT WAT WAT WAT WAT WAT WAT WAT WAT WAT WAT WAT WAT WAT WAT 
WAT WAT WAT WAT WAT WAT WAT WAT WAT WAT WAT WAT WAT WAT WAT WAT WAT WAT WAT WAT 
WAT WAT WAT WAT WAT WAT WAT WAT WAT WAT WAT WAT WAT WAT WAT WAT WAT WAT WAT WAT 
WAT WAT WAT WAT WAT WAT WAT WAT WAT WAT WAT WAT WAT WAT WAT WAT WAT WAT WAT WAT 
WAT WAT WAT WAT WAT WAT WAT WAT WAT WAT WAT WAT WAT WAT WAT WAT WAT WAT WAT WAT 
WAT WAT WAT WAT WAT WAT WAT WAT WAT WAT WAT WAT WAT WAT WAT WAT WAT WAT WAT WAT 
WAT WAT WAT WAT WAT WAT WAT WAT WAT WAT WAT WAT WAT WAT WAT WAT WAT WAT WAT WAT 
WAT WAT WAT WAT WAT WAT WAT WAT WAT WAT WAT WAT WAT WAT WAT WAT WAT WAT WAT WAT 
WAT WAT WAT WAT WAT WAT WAT WAT WAT WAT WAT WAT WAT WAT WAT WAT WAT WAT WAT WAT 
WAT WAT WAT WAT WAT WAT WAT WAT WAT WAT WAT WAT WAT WAT WAT WAT WAT WAT WAT WAT 
WAT WAT WAT WAT WAT WAT WAT WAT WAT WAT WAT WAT WAT WAT WAT WAT WAT WAT WAT WAT 
WAT WAT WAT WAT WAT WAT WAT WAT WAT WAT WAT WAT WAT WAT WAT WAT WAT WAT WAT WAT 
WAT WAT WAT WAT WAT WAT WAT WAT WAT WAT WAT WAT WAT WAT WAT WAT WAT WAT WAT WAT 
WAT WAT WAT WAT WAT WAT WAT WAT WAT WAT WAT WAT WAT WAT WAT WAT WAT WAT WAT WAT 
WAT WAT WAT WAT WAT WAT WAT WAT WAT WAT WAT WAT WAT WAT WAT WAT WAT WAT WAT WAT 
WAT WAT WAT WAT WAT WAT WAT WAT WAT WAT WAT WAT WAT WAT WAT WAT WAT WAT WAT WAT 
WAT WAT WAT WAT WAT WAT WAT WAT WAT WAT WAT WAT WAT WAT WAT WAT WAT WAT WAT WAT 
WAT WAT WAT WAT WAT WAT WAT WAT WAT WAT WAT WAT WAT WAT WAT 
%FLAG RESIDUE_POINTER                                                           
%FORMAT(10I8)                                                                   
       1       7      17      31      41      47      51      55      59      63
      67      71      75      79      83      87      91      95      99     103
     107     111     115     119     123     127     131     135     139     143
     147     151     155     159     163     167     171     175     179     183
     187     191     195     199     203     207     211     215     219     223
     227     231     235     239     243     247     251     255     259     263
     267     271     275     279     283     287     291     295     299     303
     307     311     315     319     323     327     331     335     339     343
     347     351     355     359     363     367     371     375     379     383
     387     391     395     399     403     407     411     415     419     423
     427     431     435     439     443     447     451     455     459     463
     467     471     475     479     483     487     491     495     499     503
     507     511     515     519     523     527     531     535     539     543
     547     551     555     559     563     567     571     575     579     583
     587     591     595     599     603     607     611     615     619     623
     627     631     635     639     643     647     651     655     659     663
     667     671     675     679     683     687     691     695     699     703
     707     711     715     719     723     727     731     735     739     743
     747     751     755     759     763     767     771     775     779     783
     787     791     795     799     803     807     811     815     819     823
     827     831     835     839     843     847     851     855     859     863
     867     871     875     879     883     887     891     895     899     903
     907     911     915     919     923     927     931     935     939     943
     947     951     955     959     963     967     971     975     979     983
     987     991     995     999    1003    1007    1011    1015    1019    1023
    1027    1031    1035    1039    1043    1047    1051    1055    1059    1063
    1067    1071    1075    1079    1083    1087    1091    1095    1099    1103
    1107    1111    1115    1119    1123    1127    1131    1135    1139    1143
    1147    1151    1155    1159    1163    1167    1171    1175    1179    1183
    1187    1191    1195    1199    1203    1207    1211    1215    1219    1223
    1227    1231    1235    1239    1243    1247    1251    1255    1259    1263
    1267    1271    1275    1279    1283    1287    1291    1295    1299    1303
    1307    1311    1315    1319    1323    1327    1331    1335    1339    1343
    1347    1351    1355    1359    1363    1367    1371    1375    1379    1383
    1387    1391    1395    1399    1403    1407    1411    1415    1419    1423
    1427    1431    1435    1439    1443    1447    1451    1455    1459    1463
    1467    1471    1475    1479    1483    1487    1491    1495    1499    1503
    1507    1511    1515    1519    1523    1527    1531    1535    1539    1543
    1547    1551    1555    1559    1563    1567    1571    1575    1579    1583
    1587    1591    1595    1599    1603    1607    1611    1615    1619    1623
    1627    1631    1635    1639    1643    1647    1651    1655    1659    1663
    1667    1671    1675    1679    1683    1687    1691    1695    1699    1703
    1707    1711    1715    1719    1723    1727    1731    1735    1739    1743
    1747    1751    1755    1759    1763    1767    1771    1775    1779    1783
    1787    1791    1795    1799    1803    1807    1811    1815    1819    1823
    1827    1831    1835    1839    1843    1847    1851    1855    1859    1863
    1867    1871    1875    1879    1883    1887    1891    1895    1899    1903
    1907    1911    1915    1919    1923    1927    1931    1935    1939    1943
    1947    1951    1955    1959    1963    1967    1971    1975    1979    1983
    1987    1991    1995    1999    2003    2007    2011    2015    2019    2023
    2027    2031    2035    2039    2043    2047    2051    2055    2059    2063
    2067    2071    2075    2079    2083    2087    2091    2095    2099    2103
    2107    2111    2115    2119    2123    2127    2131    2135    2139    2143
    2147    2151    2155    2159    2163    2167    2171    2175    2179    2183
    2187    2191    2195    2199    2203    2207    2211    2215    2219    2223
    2227    2231    2235    2239    2243    2247    2251    2255    2259    2263
    2267    2271    2275    2279    2283    2287    2291    2295    2299    2303
    2307    2311    2315    2319    2323    2327    2331    2335    2339    2343
    2347    2351    2355    2359    2363    2367    2371    2375    2379    2383
    2387    2391    2395    2399    2403    2407    2411    2415    2419    2423
    2427    2431    2435    2439    2443    2447    2451    2455    2459    2463
    2467    2471    2475    2479    2483    2487    2491    2495    2499    2503
    2507    2511    2515    2519    2523    2527    2531    2535    2539    2543
    2547    2551    2555    2559    2563    2567    2571    2575    2579    2583
    2587    2591    2595    2599    2603    2607    2611    2615    2619    2623
    2627    2631    2635    2639    2643    2647    2651    2655    2659    2663
    2667    2671    2675    2679    2683    2687    2691    2695    2699    2703
    2707    2711    2715    2719    2723    2727    2731    2735    2739    2743
    2747    2751    2755    2759    2763    2767    2771    2775    2779    2783
    2787    2791    2795    2799    2803    2807    2811    2815    2819    2823
    2827    2831    2835    2839    2843    2847    2851    2855    2859    2863
    2867    2871    2875    2879    2883    2887    2891    2895    2899    2903
    2907    2911    2915    2919    2923    2927    2931    2935    2939    2943
    2947    2951    2955    2959    2963    2967    2971    2975    2979    2983
    2987    2991    2995    2999    3003    3007    3011    3015    3019    3023
    3027    3031    3035    3039    3043    3047    3051    3055    3059    3063
    3067    3071    3075    3079    3083    3087    3091    3095    3099    3103
    3107    3111    3115    3119    3123    3127    3131    3135    3139    3143
    3147    3151    3155    3159    3163    3167    3171    3175    3179    3183
    3187    3191    3195    3199    3203    3207    3211    3215    3219    3223
    3227    3231    3235    3239    3243    3247    3251    3255    3259    3263
    3267    3271    3275    3279    3283    3287    3291    3295    3299    3303
    3307    3311    3315    3319    3323    3327    3331    3335    3339    3343
    3347    3351    3355    3359    3363    3367    3371    3375    3379    3383
    3387    3391    3395    3399    3403    3407    3411    3415    3419    3423
    3427    3431    3435    3439    3443    3447    3451    3455    3459    3463
    3467    3471    3475    3479    3483    3487    3491    3495    3499    3503
    3507    3511    3515    3519    3523    3527    3531    3535    3539    3543
    3547    3551    3555    3559    3563    3567    3571    3575    3579    3583
    3587    3591    3595    3599    3603    3607    3611    3615    3619    3623
    3627    3631    3635    3639    3643    3647    3651    3655    3659    3663
    3667    3671    3675    3679    3683    3687    3691    3695    3699    3703
    3707    3711    3715    3719    3723    3727    3731    3735    3739    3743
    3747    3751    3755    3759    3763    3767    3771    3775    3779    3783
    3787    3791    3795    3799    3803    3807    3811    3815    3819    3823
    3827    3831    3835    3839    3843    3847    3851    3855    3859    3863
    3867    3871    3875    3879    3883    3887    3891    3895    3899    3903
    3907    3911    3915    3919    3923    3927    3931    3935    3939    3943
    3947    3951    3955    3959    3963    3967    3971    3975    3979    3983
    3987    3991    3995    3999    4003    4007    4011    4015    4019    4023
    4027    4031    4035    4039    4043    4047    4051    4055    4059    4063
    4067    4071    4075    4079    4083    4087    4091    4095    4099    4103
    4107    4111    4115    4119    4123    4127    4131    4135    4139    4143
    4147    4151    4155    4159    4163    4167    4171    4175    4179    4183
    4187    4191    4195    4199    4203    4207    4211    4215    4219    4223
    4227    4231    4235    4239    4243    4247    4251    4255    4259    4263
    4267    4271    4275    4279    4283    4287    4291    4295    4299    4303
    4307    4311    4315    4319    4323    4327    4331    4335    4339    4343
    4347    4351    4355    4359    4363    4367    4371    4375    4379    4383
    4387    4391    4395    4399    4403    4407    4411    4415    4419    4423
    4427    4431    4435    4439    4443    4447    4451    4455    4459    4463
    4467    4471    4475    4479    4483    4487    4491    4495    4499    4503
    4507    4511    4515    4519    4523    4527    4531    4535    4539    4543
    4547    4551    4555    4559    4563    4567    4571    4575    4579    4583
    4587    4591    4595    4599    4603    4607    4611    4615    4619    4623
    4627    4631    4635    4639    4643    4647    4651    4655    4659    4663
    4667    4671    4675    4679    4683    4687    4691    4695    4699    4703
    4707    4711    4715    4719    4723    4727    4731    4735    4739    4743
    4747    4751    4755    4759    4763    4767    4771    4775    4779    4783
    4787    4791    4795    4799    4803    4807    4811    4815    4819    4823
    4827    4831    4835    4839    4843    4847    4851    4855    4859    4863
    4867    4871    4875    4879    4883    4887    4891    4895    4899    4903
    4907    4911    4915    4919    4923    4927    4931    4935    4939    4943
    4947    4951    4955    4959    4963    4967    4971    4975    4979    4983
    4987    4991    4995    4999    5003    5007    5011    5015    5019    5023
    5027    5031    5035    5039    5043    5047    5051    5055    5059    5063
    5067    5071    5075    5079    5083    5087    5091    5095    5099    5103
    5107    5111    5115    5119    5123    5127    5131    5135    5139    5143
    5147    5151    5155    5159    5163    5167    5171    5175    5179    5183
    5187    5191    5195    5199    5203    5207    5211    5215    5219    5223
    5227    5231    5235    5239    5243    5247    5251    5255    5259    5263
    5267    5271    5275    5279    5283    5287    5291    5295    5299    5303
    5307    5311    5315    5319    5323    5327    5331    5335    5339    5343
    5347    5351    5355    5359    5363    5367    5371    5375    5379    5383
    5387    5391    5395    5399    5403    5407    5411    5415    5419    5423
    5427    5431    5435    5439    5443    5447    5451    5455    5459    5463
    5467    5471    5475    5479    5483    5487    5491    5495    5499    5503
    5507    5511    5515    5519    5523    5527    5531    5535    5539    5543
    5547    5551    5555    5559    5563    5567    5571    5575    5579    5583
    5587    5591    5595    5599    5603    5607    5611    5615    5619    5623
    5627    5631    5635    5639    5643    5647    5651    5655    5659    5663
    5667    5671    5675    5679    5683    5687    5691    5695    5699    5703
    5707    5711    5715    5719    5723    5727    5731    5735    5739    5743
    5747    5751    5755    5759    5763    5767    5771    5775    5779    5783
    5787    5791    5795    5799    5803    5807    5811    5815    5819    5823
    5827    5831    5835    5839    5843    5847    5851    5855    5859    5863
    5867    5871    5875    5879    5883    5887    5891    5895    5899    5903
    5907    5911    5915    5919    5923    5927    5931    5935    5939    5943
    5947    5951    5955    5959    5963    5967    5971    5975    5979    5983
    5987    5991    5995    5999    6003    6007    6011    6015    6019    6023
    6027    6031    6035    6039    6043    6047    6051    6055    6059    6063
    6067    6071    6075    6079    6083    6087    6091    6095    6099    6103
    6107    6111    6115    6119    6123    6127    6131    6135    6139    6143
    6147    6151    6155    6159    6163    6167    6171    6175    6179    6183
    6187    6191    6195    6199    6203    6207    6211    6215    6219    6223
    6227    6231    6235    6239    6243    6247    6251    6255    6259    6263
    6267    6271    6275    6279    6283    6287    6291    6295    6299    6303
    6307    6311    6315    6319    6323    6327    6331    6335    6339    6343
    6347    6351    6355    6359    6363    6367    6371    6375    6379    6383
    6387    6391    6395    6399    6403    6407    6411    6415    6419    6423
    6427    6431    6435    6439    6443    6447    6451    6455    6459    6463
    6467    6471    6475    6479    6483
%FLAG BOND_FORCE_CONSTANT                                                       
%FORMAT(5E16.8)                                                                 
  5.70000000E+02  4.90000000E+02  3.40000000E+02  3.17000000E+02  3.40000000E+02
  3.10000000E+02  3.17000000E+02  4.34000000E+02  3.37000000E+02  3.10000000E+02
  3.40000000E+02  3.37000000E+02  5.53000000E+02  5.53000000E+02  5.53000000E+02
%FLAG BOND_EQUIL_VALUE                                                          
%FORMAT(5E16.8)                                                                 
  1.22900000E+00  1.33500000E+00  1.09000000E+00  1.52200000E+00  1.09000000E+00
  1.52600000E+00  1.52200000E+00  1.01000000E+00  1.44900000E+00  1.52600000E+00
  1.09000000E+00  1.44900000E+00  8.72433130E-01  1.37120510E+00  1.59398330E-01
%FLAG ANGLE_FORCE_CONSTANT                                                      
%FORMAT(5E16.8)                                                                 
  8.00000000E+01  5.00000000E+01  5.00000000E+01  5.00000000E+01  3.50000000E+01
  8.00000000E+01  7.00000000E+01  5.00000000E+01  6.30000000E+01  5.00000000E+01
  5.00000000E+01  5.00000000E+01  8.00000000E+01  7.00000000E+01  5.00000000E+01
  5.00000000E+01  8.00000000E+01  6.30000000E+01  5.00000000E+01  4.00000000E+01
  5.00000000E+01  3.50000000E+01  5.00000000E+01  4.00000000E+01  5.00000000E+01
  8.00000000E+01  5.00000000E+01
%FLAG ANGLE_EQUIL_VALUE                                                         
%FORMAT(5E16.8)                                                                 
  2.14501057E+00  2.09439600E+00  2.12755727E+00  1.91113635E+00  1.91113635E+00
  2.10137732E+00  2.03505478E+00  2.12755727E+00  1.93906163E+00  1.91113635E+00
  1.91113635E+00  1.91113635E+00  2.10137732E+00  2.03505478E+00  2.06018753E+00
  1.91113635E+00  1.91462701E+00  1.92160833E+00  1.91113635E+00  1.91113635E+00
  1.91113635E+00  1.91113635E+00  2.05948940E+00  1.91113635E+00  1.91113635E+00
  1.91462701E+00  2.06018753E+00
%FLAG DIHEDRAL_FORCE_CONSTANT                                                   
%FORMAT(5E16.8)                                                                 
  2.00000000E+00  2.50000000E+00  0.00000000E+00  0.00000000E+00  0.00000000E+00
  0.00000000E+00  8.00000000E-01  8.00000000E-02  2.00000000E+00  4.00000000E-01
  1.55555556E-01  0.00000000E+00  0.00000000E+00  0.00000000E+00  1.50000000E-01
  1.60000000E-01  2.00000000E-01  2.50000000E-01  1.80000000E-01  1.05000000E+01
  1.10000000E+00  1.00000000E+00
%FLAG DIHEDRAL_PERIODICITY                                                      
%FORMAT(5E16.8)                                                                 
  1.00000000E+00  2.00000000E+00  2.00000000E+00  1.00000000E+00  3.00000000E+00
  4.00000000E+00  1.00000000E+00  3.00000000E+00  2.00000000E+00  3.00000000E+00
  3.00000000E+00  3.00000000E+00  1.00000000E+00  2.00000000E+00  3.00000000E+00
  3.00000000E+00  1.00000000E+00  2.00000000E+00  3.00000000E+00  2.00000000E+00
  2.00000000E+00  2.00000000E+00
%FLAG DIHEDRAL_PHASE                                                            
%FORMAT(5E16.8)                                                                 
  0.00000000E+00  3.14159400E+00  0.00000000E+00  0.00000000E+00  0.00000000E+00
  0.00000000E+00  0.00000000E+00  3.14159400E+00  0.00000000E+00  0.00000000E+00
  0.00000000E+00  3.14159400E+00  3.14159400E+00  3.14159400E+00  0.00000000E+00
  0.00000000E+00  3.14159400E+00  3.14159400E+00  0.00000000E+00  3.14159400E+00
  3.14159400E+00  3.14159400E+00
%FLAG SCEE_SCALE_FACTOR                                                         
%FORMAT(5E16.8)                                                                 
  1.20000000E+00  1.20000000E+00  1.20000000E+00  1.20000000E+00  1.20000000E+00
  1.20000000E+00  1.20000000E+00  1.20000000E+00  1.20000000E+00  1.20000000E+00
  1.20000000E+00  1.20000000E+00  1.20000000E+00  1.20000000E+00  1.20000000E+00
  1.20000000E+00  1.20000000E+00  1.20000000E+00  1.20000000E+00  0.00000000E+00
  0.00000000E+00  0.00000000E+00
%FLAG SCNB_SCALE_FACTOR                                                         
%FORMAT(5E16.8)                                                                 
  2.00000000E+00  2.00000000E+00  2.00000000E+00  2.00000000E+00  2.00000000E+00
  2.00000000E+00  2.00000000E+00  2.00000000E+00  2.00000000E+00  2.00000000E+00
  2.00000000E+00  2.00000000E+00  2.00000000E+00  2.00000000E+00  2.00000000E+00
  2.00000000E+00  2.00000000E+00  2.00000000E+00  2.00000000E+00  0.00000000E+00
  0.00000000E+00  0.00000000E+00
%FLAG SOLTY                                                                     
%FORMAT(5E16.8)                                                                 
  0.00000000E+00  0.00000000E+00  0.00000000E+00  0.00000000E+00  0.00000000E+00
  0.00000000E+00  0.00000000E+00  0.00000000E+00  0.00000000E+00  0.00000000E+00
  0.00000000E+00
%FLAG LENNARD_JONES_ACOEF                                                       
%FORMAT(5E16.8)                                                                 
  7.51607703E+03  9.71708117E+04  1.04308023E+06  8.61541883E+04  9.24822270E+05
  8.19971662E+05  5.44261042E+04  6.47841731E+05  5.74393458E+05  3.79876399E+05
  8.96776989E+04  9.95480466E+05  8.82619071E+05  6.06829342E+05  9.44293233E+05
  1.07193646E+02  2.56678134E+03  2.27577561E+03  1.02595236E+03  2.12601181E+03
  1.39982777E-01  4.98586848E+03  6.78771368E+04  6.01816484E+04  3.69471530E+04
  6.20665997E+04  5.94667300E+01  3.25969625E+03  8.45678586E+04  9.57153878E+05
  8.48637713E+05  5.77196189E+05  9.04754248E+05  1.88214625E+03  5.82169798E+04
  8.65113123E+05  0.00000000E+00  0.00000000E+00  0.00000000E+00  0.00000000E+00
  0.00000000E+00  0.00000000E+00  0.00000000E+00  0.00000000E+00  0.00000000E+00
  0.00000000E+00  0.00000000E+00  0.00000000E+00  0.00000000E+00  0.00000000E+00
  0.00000000E+00  0.00000000E+00  0.00000000E+00  0.00000000E+00  0.00000000E+00
%FLAG LENNARD_JONES_BCOEF                                                       
%FORMAT(5E16.8)                                                                 
  2.17257828E+01  1.26919150E+02  6.75612247E+02  1.12529845E+02  5.99015525E+02
  5.31102864E+02  1.11805549E+02  6.26720080E+02  5.55666448E+02  5.64885984E+02
  1.36131731E+02  7.36907417E+02  6.53361429E+02  6.77220874E+02  8.01323529E+02
  2.59456373E+00  2.06278363E+01  1.82891803E+01  1.53505284E+01  2.09604198E+01
  9.37598976E-02  1.76949863E+01  1.06076943E+02  9.40505980E+01  9.21192136E+01
  1.13252061E+02  1.93248820E+00  1.43076527E+01  1.39830173E+02  7.64308217E+02
  6.77655696E+02  6.98618155E+02  8.29661356E+02  2.08605096E+01  1.16017383E+02
  8.58130004E+02  0.00000000E+00  0.00000000E+00  0.00000000E+00  0.00000000E+00
  0.00000000E+00  0.00000000E+00  0.00000000E+00  0.00000000E+00  0.00000000E+00
  0.00000000E+00  0.00000000E+00  0.00000000E+00  0.00000000E+00  0.00000000E+00
  0.00000000E+00  0.00000000E+00  0.00000000E+00  0.00000000E+00  0.00000000E+00
%FLAG BONDS_INC_HYDROGEN                                                        
%FORMAT(10I8)                                                                   
       3       6       3       3       9       3       0       3       3      30
      33       3      30      36       3      30      39       3      24      27
       5      18      21       8      78      81       5      69      72       3
      69      75       3      60      63       3      60      66       3      51
      54      11      51      57      11     102     105       3     102     108
       3     102     111       3      96      99       5      90      93       8
     126     129      11     126     132      11     126     135      11     120
     123       8     141     138      13     144     138      13     144     141
      14     153     150      13     156     150      13     156     153      14
     165     162      13     168     162      13     168     165      14     177
     174      13     180     174      13     180     177      14     189     186
      13     192     186      13     192     189      14     201     198      13
     204     198      13     204     201      14     213     210      13     216
     210      13     216     213      14     225     222      13     228     222
      13     228     225      14     237     234      13     240     234      13
     240     237      14     249     246      13     252     246      13     252
     249      14     261     258      13     264     258      13     264     261
      14     273     270      13     276     270      13     276     273      14
     285     282      13     288     282      13     288     285      14     297
     294      13     300     294      13     300     297      14     309     306
      13     312     306      13     312     309      14     321     318      13
     324     318      13     324     321      14     333     330      13     336
     330      13     336     333      14     345     342      13     348     342
      13     348     345      14     357     354      13     360     354      13
     360     357      14     369     366      13     372     366      13     372
     369      14     381     378      13     384     378      13     384     381
      14     393     390      13     396     390      13     396     393      14
     405     402      13     408     402      13     408     405      14     417
     414      13     420     414      13     420     417      14     429     426
      13     432     426      13     432     429      14     441     438      13
     444     438      13     444     441      14     453     450      13     456
     450      13     456     453      14     465     462      13     468     462
      13     468     465      14     477     474      13     480     474      13
     480     477      14     489     486      13     492     486      13     492
     489      14     501     498      13     504     498      13     504     501
      14     513     510      13     516     510      13     516     513      14
     525     522      13     528     522      13     528     525      14     537
     534      13     540     534      13     540     537      14     549     546
      13     552     546      13     552     549      14     561     558      13
     564     558      13     564     561      14     573     570      13     576
     570      13     576     573      14     585     582      13     588     582
      13     588     585      14     597     594      13     600     594      13
     600     597      14     609     606      13     612     606      13     612
     609      14     621     618      13     624     618      13     624     621
      14     633     630      13     636     630      13     636     633      14
     645     642      13     648     642      13     648     645      14     657
     654      13     660     654      13     660     657      14     669     666
      13     672     666      13     672     669      14     681     678      13
     684     678      13     684     681      14     693     690      13     696
     690      13     696     693      14     705     702      13     708     702
      13     708     705      14     717     714      13     720     714      13
     720     717      14     729     726      13     732     726      13     732
     729      14     741     738      13     744     738      13     744     741
      14     753     750      13     756     750      13     756     753      14
     765     762      13     768     762      13     768     765      14     777
     774      13     780     774      13     780     777      14     789     786
      13     792     786      13     792     789      14     801     798      13
     804     798      13     804     801      14     813     810      13     816
     810      13     816     813      14     825     822      13     828     822
      13     828     825      14     837     834      13     840     834      13
     840     837      14     849     846      13     852     846      13     852
     849      14     861     858      13     864     858      13     864     861
      14     873     870      13     876     870      13     876     873      14
     885     882      13     888     882      13     888     885      14     897
     894      13     900     894      13     900     897      14     909     906
      13     912     906      13     912     909      14     921     918      13
     924     918      13     924     921      14     933     930      13     936
     930      13     936     933      14     945     942      13     948     942
      13     948     945      14     957     954      13     960     954      13
     960     957      14     969     966      13     972     966      13     972
     969      14     981     978      13     984     978      13     984     981
      14     993     990      13     996     990      13     996     993      14
    1005    1002      13    1008    1002      13    1008    1005      14    1017
    1014      13    1020    1014      13    1020    1017      14    1029    1026
      13    1032    1026      13    1032    1029      14    1041    1038      13
    1044    1038      13    1044    1041      14    1053    1050      13    1056
    1050      13    1056    1053      14    1065    1062      13    1068    1062
      13    1068    1065      14    1077    1074      13    1080    1074      13
    1080    1077      14    1089    1086      13    1092    1086      13    1092
    1089      14    1101    1098      13    1104    1098      13    1104    1101
      14    1113    1110      13    1116    1110      13    1116    1113      14
    1125    1122      13    1128    1122      13    1128    1125      14    1137
    1134      13    1140    1134      13    1140    1137      14    1149    1146
      13    1152    1146      13    1152    1149      14    1161    1158      13
    1164    1158      13    1164    1161      14    1173    1170      13    1176
    1170      13    1176    1173      14    1185    1182      13    1188    1182
      13    1188    1185      14    1197    1194      13    1200    1194      13
    1200    1197      14    1209    1206      13    1212    1206      13    1212
    1209      14    1221    1218      13    1224    1218      13    1224    1221
      14    1233    1230      13    1236    1230      13    1236    1233      14
    1245    1242      13    1248    1242      13    1248    1245      14    1257
    1254      13    1260    1254      13    1260    1257      14    1269    1266
      13    1272    1266      13    1272    1269      14    1281    1278      13
    1284    1278      13    1284    1281      14    1293    1290      13    1296
    1290      13    1296    1293      14    1305    1302      13    1308    1302
      13    1308    1305      14    1317    1314      13    1320    1314      13
    1320    1317      14    1329    1326      13    1332    1326      13    1332
    1329      14    1341    1338      13    1344    1338      13    1344    1341
      14    1353    1350      13    1356    1350      13    1356    1353      14
    1365    1362      13    1368    1362      13    1368    1365      14    1377
    1374      13    1380    1374      13    1380    1377      14    1389    1386
      13    1392    1386      13    1392    1389      14    1401    1398      13
    1404    1398      13    1404    1401      14    1413    1410      13    1416
    1410      13    1416    1413      14    1425    1422      13    1428    1422
      13    1428    1425      14    1437    1434      13    1440    1434      13
    1440    1437      14    1449    1446      13    1452    1446      13    1452
    1449      14    1461    1458      13    1464    1458      13    1464    1461
      14    1473    1470      13    1476    1470      13    1476    1473      14
    1485    1482      13    1488    1482      13    1488    1485      14    1497
    1494      13    1500    1494      13    1500    1497      14    1509    1506
      13    1512    1506      13    1512    1509      14    1521    1518      13
    1524    1518      13    1524    1521      14    1533    1530      13    1536
    1530      13    1536    1533      14    1545    1542      13    1548    1542
      13    1548    1545      14    1557    1554      13    1560    1554      13
    1560    1557      14    1569    1566      13    1572    1566      13    1572
    1569      14    1581    1578      13    1584    1578      13    1584    1581
      14    1593    1590      13    1596    1590      13    1596    1593      14
    1605    1602      13    1608    1602      13    1608    1605      14    1617
    1614      13    1620    1614      13    1620    1617      14    1629    1626
      13    1632    1626      13    1632    1629      14    1641    1638      13
    1644    1638      13    1644    1641      14    1653    1650      13    1656
    1650      13    1656    1653      14    1665    1662      13    1668    1662
      13    1668    1665      14    1677    1674      13    1680    1674      13
    1680    1677      14    1689    1686      13    1692    1686      13    1692
    1689      14    1701    1698      13    1704    1698      13    1704    1701
      14    1713    1710      13    1716    1710      13    1716    1713      14
    1725    1722      13    1728    1722      13    1728    1725      14    1737
    1734      13    1740    1734      13    1740    1737      14    1749    1746
      13    1752    1746      13    1752    1749      14    1761    1758      13
    1764    1758      13    1764    1761      14    1773    1770      13    1776
    1770      13    1776    1773      14    1785    1782      13    1788    1782
      13    1788    1785      14    1797    1794      13    1800    1794      13
    1800    1797      14    1809    1806      13    1812    1806      13    1812
    1809      14    1821    1818      13    1824    1818      13    1824    1821
      14    1833    1830      13    1836    1830      13    1836    1833      14
    1845    1842      13    1848    1842      13    1848    1845      14    1857
    1854      13    1860    1854      13    1860    1857      14    1869    1866
      13    1872    1866      13    1872    1869      14    1881    1878      13
    1884    1878      13    1884    1881      14    1893    1890      13    1896
    1890      13    1896    1893      14    1905    1902      13    1908    1902
      13    1908    1905      14    1917    1914      13    1920    1914      13
    1920    1917      14    1929    1926      13    1932    1926      13    1932
    1929      14    1941    1938      13    1944    1938      13    1944    1941
      14    1953    1950      13    1956    1950      13    1956    1953      14
    1965    1962      13    1968    1962      13    1968    1965      14    1977
    1974      13    1980    1974      13    1980    1977      14    1989    1986
      13    1992    1986      13    1992    1989      14    2001    1998      13
    2004    1998      13    2004    2001      14    2013    2010      13    2016
    2010      13    2016    2013      14    2025    2022      13    2028    2022
      13    2028    2025      14    2037    2034      13    2040    2034      13
    2040    2037      14    2049    2046      13    2052    2046      13    2052
    2049      14    2061    2058      13    2064    2058      13    2064    2061
      14    2073    2070      13    2076    2070      13    2076    2073      14
    2085    2082      13    2088    2082      13    2088    2085      14    2097
    2094      13    2100    2094      13    2100    2097      14    2109    2106
      13    2112    2106      13    2112    2109      14    2121    2118      13
    2124    2118      13    2124    2121      14    2133    2130      13    2136
    2130      13    2136    2133      14    2145    2142      13    2148    2142
      13    2148    2145      14    2157    2154      13    2160    2154      13
    2160    2157      14    2169    2166      13    2172    2166      13    2172
    2169      14    2181    2178      13    2184    2178      13    2184    2181
      14    2193    2190      13    2196    2190      13    2196    2193      14
    2205    2202      13    2208    2202      13    2208    2205      14    2217
    2214      13    2220    2214      13    2220    2217      14    2229    2226
      13    2232    2226      13    2232    2229      14    2241    2238      13
    2244    2238      13    2244    2241      14    2253    2250      13    2256
    2250      13    2256    2253      14    2265    2262      13    2268    2262
      13    2268    2265      14    2277    2274      13    2280    2274      13
    2280    2277      14    2289    2286      13    2292    2286      13    2292
    2289      14    2301    2298      13    2304    2298      13    2304    2301
      14    2313    2310      13    2316    2310      13    2316    2313      14
    2325    2322      13    2328    2322      13    2328    2325      14    2337
    2334      13    2340    2334      13    2340    2337      14    2349    2346
      13    2352    2346      13    2352    2349      14    2361    2358      13
    2364    2358      13    2364    2361      14    2373    2370      13    2376
    2370      13    2376    2373      14    2385    2382      13    2388    2382
      13    2388    2385      14    2397    2394      13    2400    2394      13
    2400    2397      14    2409    2406      13    2412    2406      13    2412
    2409      14    2421    2418      13    2424    2418      13    2424    2421
      14    2433    2430      13    2436    2430      13    2436    2433      14
    2445    2442      13    2448    2442      13    2448    2445      14    2457
    2454      13    2460    2454      13    2460    2457      14    2469    2466
      13    2472    2466      13    2472    2469      14    2481    2478      13
    2484    2478      13    2484    2481      14    2493    2490      13    2496
    2490      13    2496    2493      14    2505    2502      13    2508    2502
      13    2508    2505      14    2517    2514      13    2520    2514      13
    2520    2517      14    2529    2526      13    2532    2526      13    2532
    2529      14    2541    2538      13    2544    2538      13    2544    2541
      14    2553    2550      13    2556    2550      13    2556    2553      14
    2565    2562      13    2568    2562      13    2568    2565      14    2577
    2574      13    2580    2574      13    2580    2577      14    2589    2586
      13    2592    2586      13    2592    2589      14    2601    2598      13
    2604    2598      13    2604    2601      14    2613    2610      13    2616
    2610      13    2616    2613      14    2625    2622      13    2628    2622
      13    2628    2625      14    2637    2634      13    2640    2634      13
    2640    2637      14    2649    2646      13    2652    2646      13    2652
    2649      14    2661    2658      13    2664    2658      13    2664    2661
      14    2673    2670      13    2676    2670      13    2676    2673      14
    2685    2682      13    2688    2682      13    2688    2685      14    2697
    2694      13    2700    2694      13    2700    2697      14    2709    2706
      13    2712    2706      13    2712    2709      14    2721    2718      13
    2724    2718      13    2724    2721      14    2733    2730      13    2736
    2730      13    2736    2733      14    2745    2742      13    2748    2742
      13    2748    2745      14    2757    2754      13    2760    2754      13
    2760    2757      14    2769    2766      13    2772    2766      13    2772
    2769      14    2781    2778      13    2784    2778      13    2784    2781
      14    2793    2790      13    2796    2790      13    2796    2793      14
    2805    2802      13    2808    2802      13    2808    2805      14    2817
    2814      13    2820    2814      13    2820    2817      14    2829    2826
      13    2832    2826      13    2832    2829      14    2841    2838      13
    2844    2838      13    2844    2841      14    2853    2850      13    2856
    2850      13    2856    2853      14    2865    2862      13    2868    2862
      13    2868    2865      14    2877    2874      13    2880    2874      13
    2880    2877      14    2889    2886      13    2892    2886      13    2892
    2889      14    2901    2898      13    2904    2898      13    2904    2901
      14    2913    2910      13    2916    2910      13    2916    2913      14
    2925    2922      13    2928    2922      13    2928    2925      14    2937
    2934      13    2940    2934      13    2940    2937      14    2949    2946
      13    2952    2946      13    2952    2949      14    2961    2958      13
    2964    2958      13    2964    2961      14    2973    2970      13    2976
    2970      13    2976    2973      14    2985    2982      13    2988    2982
      13    2988    2985      14    2997    2994      13    3000    2994      13
    3000    2997      14    3009    3006      13    3012    3006      13    3012
    3009      14    3021    3018      13    3024    3018      13    3024    3021
      14    3033    3030      13    3036    3030      13    3036    3033      14
    3045    3042      13    3048    3042      13    3048    3045      14    3057
    3054      13    3060    3054      13    3060    3057      14    3069    3066
      13    3072    3066      13    3072    3069      14    3081    3078      13
    3084    3078      13    3084    3081      14    3093    3090      13    3096
    3090      13    3096    3093      14    3105    3102      13    3108    3102
      13    3108    3105      14    3117    3114      13    3120    3114      13
    3120    3117      14    3129    3126      13    3132    3126      13    3132
    3129      14    3141    3138      13    3144    3138      13    3144    3141
      14    3153    3150      13    3156    3150      13    3156    3153      14
    3165    3162      13    3168    3162      13    3168    3165      14    3177
    3174      13    3180    3174      13    3180    3177      14    3189    3186
      13    3192    3186      13    3192    3189      14    3201    3198      13
    3204    3198      13    3204    3201      14    3213    3210      13    3216
    3210      13    3216    3213      14    3225    3222      13    3228    3222
      13    3228    3225      14    3237    3234      13    3240    3234      13
    3240    3237      14    3249    3246      13    3252    3246      13    3252
    3249      14    3261    3258      13    3264    3258      13    3264    3261
      14    3273    3270      13    3276    3270      13    3276    3273      14
    3285    3282      13    3288    3282      13    3288    3285      14    3297
    3294      13    3300    3294      13    3300    3297      14    3309    3306
      13    3312    3306      13    3312    3309      14    3321    3318      13
    3324    3318      13    3324    3321      14    3333    3330      13    3336
    3330      13    3336    3333      14    3345    3342      13    3348    3342
      13    3348    3345      14    3357    3354      13    3360    3354      13
    3360    3357      14    3369    3366      13    3372    3366      13    3372
    3369      14    3381    3378      13    3384    3378      13    3384    3381
      14    3393    3390      13    3396    3390      13    3396    3393      14
    3405    3402      13    3408    3402      13    3408    3405      14    3417
    3414      13    3420    3414      13    3420    3417      14    3429    3426
      13    3432    3426      13    3432    3429      14    3441    3438      13
    3444    3438      13    3444    3441      14    3453    3450      13    3456
    3450      13    3456    3453      14    3465    3462      13    3468    3462
      13    3468    3465      14    3477    3474      13    3480    3474      13
    3480    3477      14    3489    3486      13    3492    3486      13    3492
    3489      14    3501    3498      13    3504    3498      13    3504    3501
      14    3513    3510      13    3516    3510      13    3516    3513      14
    3525    3522      13    3528    3522      13    3528    3525      14    3537
    3534      13    3540    3534      13    3540    3537      14    3549    3546
      13    3552    3546      13    3552    3549      14    3561    3558      13
    3564    3558      13    3564    3561      14    3573    3570      13    3576
    3570      13    3576    3573      14    3585    3582      13    3588    3582
      13    3588    3585      14    3597    3594      13    3600    3594      13
    3600    3597      14    3609    3606      13    3612    3606      13    3612
    3609      14    3621    3618      13    3624    3618      13    3624    3621
      14    3633    3630      13    3636    3630      13    3636    3633      14
    3645    3642      13    3648    3642      13    3648    3645      14    3657
    3654      13    3660    3654      13    3660    3657      14    3669    3666
      13    3672    3666      13    3672    3669      14    3681    3678      13
    3684    3678      13    3684    3681      14    3693    3690      13    3696
    3690      13    3696    3693      14    3705    3702      13    3708    3702
      13    3708    3705      14    3717    3714      13    3720    3714      13
    3720    3717      14    3729    3726      13    3732    3726      13    3732
    3729      14    3741    3738      13    3744    3738      13    3744    3741
      14    3753    3750      13    3756    3750      13    3756    3753      14
    3765    3762      13    3768    3762      13    3768    3765      14    3777
    3774      13    3780    3774      13    3780    3777      14    3789    3786
      13    3792    3786      13    3792    3789      14    3801    3798      13
    3804    3798      13    3804    3801      14    3813    3810      13    3816
    3810      13    3816    3813      14    3825    3822      13    3828    3822
      13    3828    3825      14    3837    3834      13    3840    3834      13
    3840    3837      14    3849    3846      13    3852    3846      13    3852
    3849      14    3861    3858      13    3864    3858      13    3864    3861
      14    3873    3870      13    3876    3870      13    3876    3873      14
    3885    3882      13    3888    3882      13    3888    3885      14    3897
    3894      13    3900    3894      13    3900    3897      14    3909    3906
      13    3912    3906      13    3912    3909      14    3921    3918      13
    3924    3918      13    3924    3921      14    3933    3930      13    3936
    3930      13    3936    3933      14    3945    3942      13    3948    3942
      13    3948    3945      14    3957    3954      13    3960    3954      13
    3960    3957      14    3969    3966      13    3972    3966      13    3972
    3969      14    3981    3978      13    3984    3978      13    3984    3981
      14    3993    3990      13    3996    3990      13    3996    3993      14
    4005    4002      13    4008    4002      13    4008    4005      14    4017
    4014      13    4020    4014      13    4020    4017      14    4029    4026
      13    4032    4026      13    4032    4029      14    4041    4038      13
    4044    4038      13    4044    4041      14    4053    4050      13    4056
    4050      13    4056    4053      14    4065    4062      13    4068    4062
      13    4068    4065      14    4077    4074      13    4080    4074      13
    4080    4077      14    4089    4086      13    4092    4086      13    4092
    4089      14    4101    4098      13    4104    4098      13    4104    4101
      14    4113    4110      13    4116    4110      13    4116    4113      14
    4125    4122      13    4128    4122      13    4128    4125      14    4137
    4134      13    4140    4134      13    4140    4137      14    4149    4146
      13    4152    4146      13    4152    4149      14    4161    4158      13
    4164    4158      13    4164    4161      14    4173    4170      13    4176
    4170      13    4176    4173      14    4185    4182      13    4188    4182
      13    4188    4185      14    4197    4194      13    4200    4194      13
    4200    4197      14    4209    4206      13    4212    4206      13    4212
    4209      14    4221    4218      13    4224    4218      13    4224    4221
      14    4233    4230      13    4236    4230      13    4236    4233      14
    4245    4242      13    4248    4242      13    4248    4245      14    4257
    4254      13    4260    4254      13    4260    4257      14    4269    4266
      13    4272    4266      13    4272    4269      14    4281    4278      13
    4284    4278      13    4284    4281      14    4293    4290      13    4296
    4290      13    4296    4293      14    4305    4302      13    4308    4302
      13    4308    4305      14    4317    4314      13    4320    4314      13
    4320    4317      14    4329    4326      13    4332    4326      13    4332
    4329      14    4341    4338      13    4344    4338      13    4344    4341
      14    4353    4350      13    4356    4350      13    4356    4353      14
    4365    4362      13    4368    4362      13    4368    4365      14    4377
    4374      13    4380    4374      13    4380    4377      14    4389    4386
      13    4392    4386      13    4392    4389      14    4401    4398      13
    4404    4398      13    4404    4401      14    4413    4410      13    4416
    4410      13    4416    4413      14    4425    4422      13    4428    4422
      13    4428    4425      14    4437    4434      13    4440    4434      13
    4440    4437      14    4449    4446      13    4452    4446      13    4452
    4449      14    4461    4458      13    4464    4458      13    4464    4461
      14    4473    4470      13    4476    4470      13    4476    4473      14
    4485    4482      13    4488    4482      13    4488    4485      14    4497
    4494      13    4500    4494      13    4500    4497      14    4509    4506
      13    4512    4506      13    4512    4509      14    4521    4518      13
    4524    4518      13    4524    4521      14    4533    4530      13    4536
    4530      13    4536    4533      14    4545    4542      13    4548    4542
      13    4548    4545      14    4557    4554      13    4560    4554      13
    4560    4557      14    4569    4566      13    4572    4566      13    4572
    4569      14    4581    4578      13    4584    4578      13    4584    4581
      14    4593    4590      13    4596    4590      13    4596    4593      14
    4605    4602      13    4608    4602      13    4608    4605      14    4617
    4614      13    4620    4614      13    4620    4617      14    4629    4626
      13    4632    4626      13    4632    4629      14    4641    4638      13
    4644    4638      13    4644    4641      14    4653    4650      13    4656
    4650      13    4656    4653      14    4665    4662      13    4668    4662
      13    4668    4665      14    4677    4674      13    4680    4674      13
    4680    4677      14    4689    4686      13    4692    4686      13    4692
    4689      14    4701    4698      13    4704    4698      13    4704    4701
      14    4713    4710      13    4716    4710      13    4716    4713      14
    4725    4722      13    4728    4722      13    4728    4725      14    4737
    4734      13    4740    4734      13    4740    4737      14    4749    4746
      13    4752    4746      13    4752    4749      14    4761    4758      13
    4764    4758      13    4764    4761      14    4773    4770      13    4776
    4770      13    4776    4773      14    4785    4782      13    4788    4782
      13    4788    4785      14    4797    4794      13    4800    4794      13
    4800    4797      14    4809    4806      13    4812    4806      13    4812
    4809      14    4821    4818      13    4824    4818      13    4824    4821
      14    4833    4830      13    4836    4830      13    4836    4833      14
    4845    4842      13    4848    4842      13    4848    4845      14    4857
    4854      13    4860    4854      13    4860    4857      14    4869    4866
      13    4872    4866      13    4872    4869      14    4881    4878      13
    4884    4878      13    4884    4881      14    4893    4890      13    4896
    4890      13    4896    4893      14    4905    4902      13    4908    4902
      13    4908    4905      14    4917    4914      13    4920    4914      13
    4920    4917      14    4929    4926      13    4932    4926      13    4932
    4929      14    4941    4938      13    4944    4938      13    4944    4941
      14    4953    4950      13    4956    4950      13    4956    4953      14
    4965    4962      13    4968    4962      13    4968    4965      14    4977
    4974      13    4980    4974      13    4980    4977      14    4989    4986
      13    4992    4986      13    4992    4989      14    5001    4998      13
    5004    4998      13    5004    5001      14    5013    5010      13    5016
    5010      13    5016    5013      14    5025    5022      13    5028    5022
      13    5028    5025      14    5037    5034      13    5040    5034      13
    5040    5037      14    5049    5046      13    5052    5046      13    5052
    5049      14    5061    5058      13    5064    5058      13    5064    5061
      14    5073    5070      13    5076    5070      13    5076    5073      14
    5085    5082      13    5088    5082      13    5088    5085      14    5097
    5094      13    5100    5094      13    5100    5097      14    5109    5106
      13    5112    5106      13    5112    5109      14    5121    5118      13
    5124    5118      13    5124    5121      14    5133    5130      13    5136
    5130      13    5136    5133      14    5145    5142      13    5148    5142
      13    5148    5145      14    5157    5154      13    5160    5154      13
    5160    5157      14    5169    5166      13    5172    5166      13    5172
    5169      14    5181    5178      13    5184    5178      13    5184    5181
      14    5193    5190      13    5196    5190      13    5196    5193      14
    5205    5202      13    5208    5202      13    5208    5205      14    5217
    5214      13    5220    5214      13    5220    5217      14    5229    5226
      13    5232    5226      13    5232    5229      14    5241    5238      13
    5244    5238      13    5244    5241      14    5253    5250      13    5256
    5250      13    5256    5253      14    5265    5262      13    5268    5262
      13    5268    5265      14    5277    5274      13    5280    5274      13
    5280    5277      14    5289    5286      13    5292    5286      13    5292
    5289      14    5301    5298      13    5304    5298      13    5304    5301
      14    5313    5310      13    5316    5310      13    5316    5313      14
    5325    5322      13    5328    5322      13    5328    5325      14    5337
    5334      13    5340    5334      13    5340    5337      14    5349    5346
      13    5352    5346      13    5352    5349      14    5361    5358      13
    5364    5358      13    5364    5361      14    5373    5370      13    5376
    5370      13    5376    5373      14    5385    5382      13    5388    5382
      13    5388    5385      14    5397    5394      13    5400    5394      13
    5400    5397      14    5409    5406      13    5412    5406      13    5412
    5409      14    5421    5418      13    5424    5418      13    5424    5421
      14    5433    5430      13    5436    5430      13    5436    5433      14
    5445    5442      13    5448    5442      13    5448    5445      14    5457
    5454      13    5460    5454      13    5460    5457      14    5469    5466
      13    5472    5466      13    5472    5469      14    5481    5478      13
    5484    5478      13    5484    5481      14    5493    5490      13    5496
    5490      13    5496    5493      14    5505    5502      13    5508    5502
      13    5508    5505      14    5517    5514      13    5520    5514      13
    5520    5517      14    5529    5526      13    5532    5526      13    5532
    5529      14    5541    5538      13    5544    5538      13    5544    5541
      14    5553    5550      13    5556    5550      13    5556    5553      14
    5565    5562      13    5568    5562      13    5568    5565      14    5577
    5574      13    5580    5574      13    5580    5577      14    5589    5586
      13    5592    5586      13    5592    5589      14    5601    5598      13
    5604    5598      13    5604    5601      14    5613    5610      13    5616
    5610      13    5616    5613      14    5625    5622      13    5628    5622
      13    5628    5625      14    5637    5634      13    5640    5634      13
    5640    5637      14    5649    5646      13    5652    5646      13    5652
    5649      14    5661    5658      13    5664    5658      13    5664    5661
      14    5673    5670      13    5676    5670      13    5676    5673      14
    5685    5682      13    5688    5682      13    5688    5685      14    5697
    5694      13    5700    5694      13    5700    5697      14    5709    5706
      13    5712    5706      13    5712    5709      14    5721    5718      13
    5724    5718      13    5724    5721      14    5733    5730      13    5736
    5730      13    5736    5733      14    5745    5742      13    5748    5742
      13    5748    5745      14    5757    5754      13    5760    5754      13
    5760    5757      14    5769    5766      13    5772    5766      13    5772
    5769      14    5781    5778      13    5784    5778      13    5784    5781
      14    5793    5790      13    5796    5790      13    5796    5793      14
    5805    5802      13    5808    5802      13    5808    5805      14    5817
    5814      13    5820    5814      13    5820    5817      14    5829    5826
      13    5832    5826      13    5832    5829      14    5841    5838      13
    5844    5838      13    5844    5841      14    5853    5850      13    5856
    5850      13    5856    5853      14    5865    5862      13    5868    5862
      13    5868    5865      14    5877    5874      13    5880    5874      13
    5880    5877      14    5889    5886      13    5892    5886      13    5892
    5889      14    5901    5898      13    5904    5898      13    5904    5901
      14    5913    5910      13    5916    5910      13    5916    5913      14
    5925    5922      13    5928    5922      13    5928    5925      14    5937
    5934      13    5940    5934      13    5940    5937      14    5949    5946
      13    5952    5946      13    5952    5949      14    5961    5958      13
    5964    5958      13    5964    5961      14    5973    5970      13    5976
    5970      13    5976    5973      14    5985    5982      13    5988    5982
      13    5988    5985      14    5997    5994      13    6000    5994      13
    6000    5997      14    6009    6006      13    6012    6006      13    6012
    6009      14    6021    6018      13    6024    6018      13    6024    6021
      14    6033    6030      13    6036    6030      13    6036    6033      14
    6045    6042      13    6048    6042      13    6048    6045      14    6057
    6054      13    6060    6054      13    6060    6057      14    6069    6066
      13    6072    6066      13    6072    6069      14    6081    6078      13
    6084    6078      13    6084    6081      14    6093    6090      13    6096
    6090      13    6096    6093      14    6105    6102      13    6108    6102
      13    6108    6105      14    6117    6114      13    6120    6114      13
    6120    6117      14    6129    6126      13    6132    6126      13    6132
    6129      14    6141    6138      13    6144    6138      13    6144    6141
      14    6153    6150      13    6156    6150      13    6156    6153      14
    6165    6162      13    6168    6162      13    6168    6165      14    6177
    6174      13    6180    6174      13    6180    6177      14    6189    6186
      13    6192    6186      13    6192    6189      14    6201    6198      13
    6204    6198      13    6204    6201      14    6213    6210      13    6216
    6210      13    6216    6213      14    6225    6222      13    6228    6222
      13    6228    6225      14    6237    6234      13    6240    6234      13
    6240    6237      14    6249    6246      13    6252    6246      13    6252
    6249      14    6261    6258      13    6264    6258      13    6264    6261
      14    6273    6270      13    6276    6270      13    6276    6273      14
    6285    6282      13    6288    6282      13    6288    6285      14    6297
    6294      13    6300    6294      13    6300    6297      14    6309    6306
      13    6312    6306      13    6312    6309      14    6321    6318      13
    6324    6318      13    6324    6321      14    6333    6330      13    6336
    6330      13    6336    6333      14    6345    6342      13    6348    6342
      13    6348    6345      14    6357    6354      13    6360    6354      13
    6360    6357      14    6369    6366      13    6372    6366      13    6372
    6369      14    6381    6378      13    6384    6378      13    6384    6381
      14    6393    6390      13    6396    6390      13    6396    6393      14
    6405    6402      13    6408    6402      13    6408    6405      14    6417
    6414      13    6420    6414      13    6420    6417      14    6429    6426
      13    6432    6426      13    6432    6429      14    6441    6438      13
    6444    6438      13    6444    6441      14    6453    6450      13    6456
    6450      13    6456    6453      14    6465    6462      13    6468    6462
      13    6468    6465      14    6477    6474      13    6480    6474      13
    6480    6477      14    6489    6486      13    6492    6486      13    6492
    6489      14    6501    6498      13    6504    6498      13    6504    6501
      14    6513    6510      13    6516    6510      13    6516    6513      14
    6525    6522      13    6528    6522      13    6528    6525      14    6537
    6534      13    6540    6534      13    6540    6537      14    6549    6546
      13    6552    6546      13    6552    6549      14    6561    6558      13
    6564    6558      13    6564    6561      14    6573    6570      13    6576
    6570      13    6576    6573      14    6585    6582      13    6588    6582
      13    6588    6585      14    6597    6594      13    6600    6594      13
    6600    6597      14    6609    6606      13    6612    6606      13    6612
    6609      14    6621    6618      13    6624    6618      13    6624    6621
      14    6633    6630      13    6636    6630      13    6636    6633      14
    6645    6642      13    6648    6642      13    6648    6645      14    6657
    6654      13    6660    6654      13    6660    6657      14    6669    6666
      13    6672    6666      13    6672    6669      14    6681    6678      13
    6684    6678      13    6684    6681      14    6693    6690      13    6696
    6690      13    6696    6693      14    6705    6702      13    6708    6702
      13    6708    6705      14    6717    6714      13    6720    6714      13
    6720    6717      14    6729    6726      13    6732    6726      13    6732
    6729      14    6741    6738      13    6744    6738      13    6744    6741
      14    6753    6750      13    6756    6750      13    6756    6753      14
    6765    6762      13    6768    6762      13    6768    6765      14    6777
    6774      13    6780    6774      13    6780    6777      14    6789    6786
      13    6792    6786      13    6792    6789      14    6801    6798      13
    6804    6798      13    6804    6801      14    6813    6810      13    6816
    6810      13    6816    6813      14    6825    6822      13    6828    6822
      13    6828    6825      14    6837    6834      13    6840    6834      13
    6840    6837      14    6849    6846      13    6852    6846      13    6852
    6849      14    6861    6858      13    6864    6858      13    6864    6861
      14    6873    6870      13    6876    6870      13    6876    6873      14
    6885    6882      13    6888    6882      13    6888    6885      14    6897
    6894      13    6900    6894      13    6900    6897      14    6909    6906
      13    6912    6906      13    6912    6909      14    6921    6918      13
    6924    6918      13    6924    6921      14    6933    6930      13    6936
    6930      13    6936    6933      14    6945    6942      13    6948    6942
      13    6948    6945      14    6957    6954      13    6960    6954      13
    6960    6957      14    6969    6966      13    6972    6966      13    6972
    6969      14    6981    6978      13    6984    6978      13    6984    6981
      14    6993    6990      13    6996    6990      13    6996    6993      14
    7005    7002      13    7008    7002      13    7008    7005      14    7017
    7014      13    7020    7014      13    7020    7017      14    7029    7026
      13    7032    7026      13    7032    7029      14    7041    7038      13
    7044    7038      13    7044    7041      14    7053    7050      13    7056
    7050      13    7056    7053      14    7065    7062      13    7068    7062
      13    7068    7065      14    7077    7074      13    7080    7074      13
    7080    7077      14    7089    7086      13    7092    7086      13    7092
    7089      14    7101    7098      13    7104    7098      13    7104    7101
      14    7113    7110      13    7116    7110      13    7116    7113      14
    7125    7122      13    7128    7122      13    7128    7125      14    7137
    7134      13    7140    7134      13    7140    7137      14    7149    7146
      13    7152    7146      13    7152    7149      14    7161    7158      13
    7164    7158      13    7164    7161      14    7173    7170      13    7176
    7170      13    7176    7173      14    7185    7182      13    7188    7182
      13    7188    7185      14    7197    7194      13    7200    7194      13
    7200    7197      14    7209    7206      13    7212    7206      13    7212
    7209      14    7221    7218      13    7224    7218      13    7224    7221
      14    7233    7230      13    7236    7230      13    7236    7233      14
    7245    7242      13    7248    7242      13    7248    7245      14    7257
    7254      13    7260    7254      13    7260    7257      14    7269    7266
      13    7272    7266      13    7272    7269      14    7281    7278      13
    7284    7278      13    7284    7281      14    7293    7290      13    7296
    7290      13    7296    7293      14    7305    7302      13    7308    7302
      13    7308    7305      14    7317    7314      13    7320    7314      13
    7320    7317      14    7329    7326      13    7332    7326      13    7332
    7329      14    7341    7338      13    7344    7338      13    7344    7341
      14    7353    7350      13    7356    7350      13    7356    7353      14
    7365    7362      13    7368    7362      13    7368    7365      14    7377
    7374      13    7380    7374      13    7380    7377      14    7389    7386
      13    7392    7386      13    7392    7389      14    7401    7398      13
    7404    7398      13    7404    7401      14    7413    7410      13    7416
    7410      13    7416    7413      14    7425    7422      13    7428    7422
      13    7428    7425      14    7437    7434      13    7440    7434      13
    7440    7437      14    7449    7446      13    7452    7446      13    7452
    7449      14    7461    7458      13    7464    7458      13    7464    7461
      14    7473    7470      13    7476    7470      13    7476    7473      14
    7485    7482      13    7488    7482      13    7488    7485      14    7497
    7494      13    7500    7494      13    7500    7497      14    7509    7506
      13    7512    7506      13    7512    7509      14    7521    7518      13
    7524    7518      13    7524    7521      14    7533    7530      13    7536
    7530      13    7536    7533      14    7545    7542      13    7548    7542
      13    7548    7545      14    7557    7554      13    7560    7554      13
    7560    7557      14    7569    7566      13    7572    7566      13    7572
    7569      14    7581    7578      13    7584    7578      13    7584    7581
      14    7593    7590      13    7596    7590      13    7596    7593      14
    7605    7602      13    7608    7602      13    7608    7605      14    7617
    7614      13    7620    7614      13    7620    7617      14    7629    7626
      13    7632    7626      13    7632    7629      14    7641    7638      13
    7644    7638      13    7644    7641      14    7653    7650      13    7656
    7650      13    7656    7653      14    7665    7662      13    7668    7662
      13    7668    7665      14    7677    7674      13    7680    7674      13
    7680    7677      14    7689    7686      13    7692    7686      13    7692
    7689      14    7701    7698      13    7704    7698      13    7704    7701
      14    7713    7710      13    7716    7710      13    7716    7713      14
    7725    7722      13    7728    7722      13    7728    7725      14    7737
    7734      13    7740    7734      13    7740    7737      14    7749    7746
      13    7752    7746      13    7752    7749      14    7761    7758      13
    7764    7758      13    7764    7761      14    7773    7770      13    7776
    7770      13    7776    7773      14    7785    7782      13    7788    7782
      13    7788    7785      14    7797    7794      13    7800    7794      13
    7800    7797      14    7809    7806      13    7812    7806      13    7812
    7809      14    7821    7818      13    7824    7818      13    7824    7821
      14    7833    7830      13    7836    7830      13    7836    7833      14
    7845    7842      13    7848    7842      13    7848    7845      14    7857
    7854      13    7860    7854      13    7860    7857      14    7869    7866
      13    7872    7866      13    7872    7869      14    7881    7878      13
    7884    7878      13    7884    7881      14    7893    7890      13    7896
    7890      13    7896    7893      14    7905    7902      13    7908    7902
      13    7908    7905      14    7917    7914      13    7920    7914      13
    7920    7917      14    7929    7926      13    7932    7926      13    7932
    7929      14    7941    7938      13    7944    7938      13    7944    7941
      14    7953    7950      13    7956    7950      13    7956    7953      14
    7965    7962      13    7968    7962      13    7968    7965      14    7977
    7974      13    7980    7974      13    7980    7977      14    7989    7986
      13    7992    7986      13    7992    7989      14    8001    7998      13
    8004    7998      13    8004    8001      14    8013    8010      13    8016
    8010      13    8016    8013      14    8025    8022      13    8028    8022
      13    8028    8025      14    8037    8034      13    8040    8034      13
    8040    8037      14    8049    8046      13    8052    8046      13    8052
    8049      14    8061    8058      13    8064    8058      13    8064    8061
      14    8073    8070      13    8076    8070      13    8076    8073      14
    8085    8082      13    8088    8082      13    8088    8085      14    8097
    8094      13    8100    8094      13    8100    8097      14    8109    8106
      13    8112    8106      13    8112    8109      14    8121    8118      13
    8124    8118      13    8124    8121      14    8133    8130      13    8136
    8130      13    8136    8133      14    8145    8142      13    8148    8142
      13    8148    8145      14    8157    8154      13    8160    8154      13
    8160    8157      14    8169    8166      13    8172    8166      13    8172
    8169      14    8181    8178      13    8184    8178      13    8184    8181
      14    8193    8190      13    8196    8190      13    8196    8193      14
    8205    8202      13    8208    8202      13    8208    8205      14    8217
    8214      13    8220    8214      13    8220    8217      14    8229    8226
      13    8232    8226      13    8232    8229      14    8241    8238      13
    8244    8238      13    8244    8241      14    8253    8250      13    8256
    8250      13    8256    8253      14    8265    8262      13    8268    8262
      13    8268    8265      14    8277    8274      13    8280    8274      13
    8280    8277      14    8289    8286      13    8292    8286      13    8292
    8289      14    8301    8298      13    8304    8298      13    8304    8301
      14    8313    8310      13    8316    8310      13    8316    8313      14
    8325    8322      13    8328    8322      13    8328    8325      14    8337
    8334      13    8340    8334      13    8340    8337      14    8349    8346
      13    8352    8346      13    8352    8349      14    8361    8358      13
    8364    8358      13    8364    8361      14    8373    8370      13    8376
    8370      13    8376    8373      14    8385    8382      13    8388    8382
      13    8388    8385      14    8397    8394      13    8400    8394      13
    8400    8397      14    8409    8406      13    8412    8406      13    8412
    8409      14    8421    8418      13    8424    8418      13    8424    8421
      14    8433    8430      13    8436    8430      13    8436    8433      14
    8445    8442      13    8448    8442      13    8448    8445      14    8457
    8454      13    8460    8454      13    8460    8457      14    8469    8466
      13    8472    8466      13    8472    8469      14    8481    8478      13
    8484    8478      13    8484    8481      14    8493    8490      13    8496
    8490      13    8496    8493      14    8505    8502      13    8508    8502
      13    8508    8505      14    8517    8514      13    8520    8514      13
    8520    8517      14    8529    8526      13    8532    8526      13    8532
    8529      14    8541    8538      13    8544    8538      13    8544    8541
      14    8553    8550      13    8556    8550      13    8556    8553      14
    8565    8562      13    8568    8562      13    8568    8565      14    8577
    8574      13    8580    8574      13    8580    8577      14    8589    8586
      13    8592    8586      13    8592    8589      14    8601    8598      13
    8604    8598      13    8604    8601      14    8613    8610      13    8616
    8610      13    8616    8613      14    8625    8622      13    8628    8622
      13    8628    8625      14    8637    8634      13    8640    8634      13
    8640    8637      14    8649    8646      13    8652    8646      13    8652
    8649      14    8661    8658      13    8664    8658      13    8664    8661
      14    8673    8670      13    8676    8670      13    8676    8673      14
    8685    8682      13    8688    8682      13    8688    8685      14    8697
    8694      13    8700    8694      13    8700    8697      14    8709    8706
      13    8712    8706      13    8712    8709      14    8721    8718      13
    8724    8718      13    8724    8721      14    8733    8730      13    8736
    8730      13    8736    8733      14    8745    8742      13    8748    8742
      13    8748    8745      14    8757    8754      13    8760    8754      13
    8760    8757      14    8769    8766      13    8772    8766      13    8772
    8769      14    8781    8778      13    8784    8778      13    8784    8781
      14    8793    8790      13    8796    8790      13    8796    8793      14
    8805    8802      13    8808    8802      13    8808    8805      14    8817
    8814      13    8820    8814      13    8820    8817      14    8829    8826
      13    8832    8826      13    8832    8829      14    8841    8838      13
    8844    8838      13    8844    8841      14    8853    8850      13    8856
    8850      13    8856    8853      14    8865    8862      13    8868    8862
      13    8868    8865      14    8877    8874      13    8880    8874      13
    8880    8877      14    8889    8886      13    8892    8886      13    8892
    8889      14    8901    8898      13    8904    8898      13    8904    8901
      14    8913    8910      13    8916    8910      13    8916    8913      14
    8925    8922      13    8928    8922      13    8928    8925      14    8937
    8934      13    8940    8934      13    8940    8937      14    8949    8946
      13    8952    8946      13    8952    8949      14    8961    8958      13
    8964    8958      13    8964    8961      14    8973    8970      13    8976
    8970      13    8976    8973      14    8985    8982      13    8988    8982
      13    8988    8985      14    8997    8994      13    9000    8994      13
    9000    8997      14    9009    9006      13    9012    9006      13    9012
    9009      14    9021    9018      13    9024    9018      13    9024    9021
      14    9033    9030      13    9036    9030      13    9036    9033      14
    9045    9042      13    9048    9042      13    9048    9045      14    9057
    9054      13    9060    9054      13    9060    9057      14    9069    9066
      13    9072    9066      13    9072    9069      14    9081    9078      13
    9084    9078      13    9084    9081      14    9093    9090      13    9096
    9090      13    9096    9093      14    9105    9102      13    9108    9102
      13    9108    9105      14    9117    9114      13    9120    9114      13
    9120    9117      14    9129    9126      13    9132    9126      13    9132
    9129      14    9141    9138      13    9144    9138      13    9144    9141
      14    9153    9150      13    9156    9150      13    9156    9153      14
    9165    9162      13    9168    9162      13    9168    9165      14    9177
    9174      13    9180    9174      13    9180    9177      14    9189    9186
      13    9192    9186      13    9192    9189      14    9201    9198      13
    9204    9198      13    9204    9201      14    9213    9210      13    9216
    9210      13    9216    9213      14    9225    9222      13    9228    9222
      13    9228    9225      14    9237    9234      13    9240    9234      13
    9240    9237      14    9249    9246      13    9252    9246      13    9252
    9249      14    9261    9258      13    9264    9258      13    9264    9261
      14    9273    9270      13    9276    9270      13    9276    9273      14
    9285    9282      13    9288    9282      13    9288    9285      14    9297
    9294      13    9300    9294      13    9300    9297      14    9309    9306
      13    9312    9306      13    9312    9309      14    9321    9318      13
    9324    9318      13    9324    9321      14    9333    9330      13    9336
    9330      13    9336    9333      14    9345    9342      13    9348    9342
      13    9348    9345      14    9357    9354      13    9360    9354      13
    9360    9357      14    9369    9366      13    9372    9366      13    9372
    9369      14    9381    9378      13    9384    9378      13    9384    9381
      14    9393    9390      13    9396    9390      13    9396    9393      14
    9405    9402      13    9408    9402      13    9408    9405      14    9417
    9414      13    9420    9414      13    9420    9417      14    9429    9426
      13    9432    9426      13    9432    9429      14    9441    9438      13
    9444    9438      13    9444    9441      14    9453    9450      13    9456
    9450      13    9456    9453      14    9465    9462      13    9468    9462
      13    9468    9465      14    9477    9474      13    9480    9474      13
    9480    9477      14    9489    9486      13    9492    9486      13    9492
    9489      14    9501    9498      13    9504    9498      13    9504    9501
      14    9513    9510      13    9516    9510      13    9516    9513      14
    9525    9522      13    9528    9522      13    9528    9525      14    9537
    9534      13    9540    9534      13    9540    9537      14    9549    9546
      13    9552    9546      13    9552    9549      14    9561    9558      13
    9564    9558      13    9564    9561      14    9573    9570      13    9576
    9570      13    9576    9573      14    9585    9582      13    9588    9582
      13    9588    9585      14    9597    9594      13    9600    9594      13
    9600    9597      14    9609    9606      13    9612    9606      13    9612
    9609      14    9621    9618      13    9624    9618      13    9624    9621
      14    9633    9630      13    9636    9630      13    9636    9633      14
    9645    9642      13    9648    9642      13    9648    9645      14    9657
    9654      13    9660    9654      13    9660    9657      14    9669    9666
      13    9672    9666      13    9672    9669      14    9681    9678      13
    9684    9678      13    9684    9681      14    9693    9690      13    9696
    9690      13    9696    9693      14    9705    9702      13    9708    9702
      13    9708    9705      14    9717    9714      13    9720    9714      13
    9720    9717      14    9729    9726      13    9732    9726      13    9732
    9729      14    9741    9738      13    9744    9738      13    9744    9741
      14    9753    9750      13    9756    9750      13    9756    9753      14
    9765    9762      13    9768    9762      13    9768    9765      14    9777
    9774      13    9780    9774      13    9780    9777      14    9789    9786
      13    9792    9786      13    9792    9789      14    9801    9798      13
    9804    9798      13    9804    9801      14    9813    9810      13    9816
    9810      13    9816    9813      14    9825    9822      13    9828    9822
      13    9828    9825      14    9837    9834      13    9840    9834      13
    9840    9837      14    9849    9846      13    9852    9846      13    9852
    9849      14    9861    9858      13    9864    9858      13    9864    9861
      14    9873    9870      13    9876    9870      13    9876    9873      14
    9885    9882      13    9888    9882      13    9888    9885      14    9897
    9894      13    9900    9894      13    9900    9897      14    9909    9906
      13    9912    9906      13    9912    9909      14    9921    9918      13
    9924    9918      13    9924    9921      14    9933    9930      13    9936
    9930      13    9936    9933      14    9945    9942      13    9948    9942
      13    9948    9945      14    9957    9954      13    9960    9954      13
    9960    9957      14    9969    9966      13    9972    9966      13    9972
    9969      14    9981    9978      13    9984    9978      13    9984    9981
      14    9993    9990      13    9996    9990      13    9996    9993      14
   10005   10002      13   10008   10002      13   10008   10005      14   10017
   10014      13   10020   10014      13   10020   10017      14   10029   10026
      13   10032   10026      13   10032   10029      14   10041   10038      13
   10044   10038      13   10044   10041      14   10053   10050      13   10056
   10050      13   10056   10053      14   10065   10062      13   10068   10062
      13   10068   10065      14   10077   10074      13   10080   10074      13
   10080   10077      14   10089   10086      13   10092   10086      13   10092
   10089      14   10101   10098      13   10104   10098      13   10104   10101
      14   10113   10110      13   10116   10110      13   10116   10113      14
   10125   10122      13   10128   10122      13   10128   10125      14   10137
   10134      13   10140   10134      13   10140   10137      14   10149   10146
      13   10152   10146      13   10152   10149      14   10161   10158      13
   10164   10158      13   10164   10161      14   10173   10170      13   10176
   10170      13   10176   10173      14   10185   10182      13   10188   10182
      13   10188   10185      14   10197   10194      13   10200   10194      13
   10200   10197      14   10209   10206      13   10212   10206      13   10212
   10209      14   10221   10218      13   10224   10218      13   10224   10221
      14   10233   10230      13   10236   10230      13   10236   10233      14
   10245   10242      13   10248   10242      13   10248   10245      14   10257
   10254      13   10260   10254      13   10260   10257      14   10269   10266
      13   10272   10266      13   10272   10269      14   10281   10278      13
   10284   10278      13   10284   10281      14   10293   10290      13   10296
   10290      13   10296   10293      14   10305   10302      13   10308   10302
      13   10308   10305      14   10317   10314      13   10320   10314      13
   10320   10317      14   10329   10326      13   10332   10326      13   10332
   10329      14   10341   10338      13   10344   10338      13   10344   10341
      14   10353   10350      13   10356   10350      13   10356   10353      14
   10365   10362      13   10368   10362      13   10368   10365      14   10377
   10374      13   10380   10374      13   10380   10377      14   10389   10386
      13   10392   10386      13   10392   10389      14   10401   10398      13
   10404   10398      13   10404   10401      14   10413   10410      13   10416
   10410      13   10416   10413      14   10425   10422      13   10428   10422
      13   10428   10425      14   10437   10434      13   10440   10434      13
   10440   10437      14   10449   10446      13   10452   10446      13   10452
   10449      14   10461   10458      13   10464   10458      13   10464   10461
      14   10473   10470      13   10476   10470      13   10476   10473      14
   10485   10482      13   10488   10482      13   10488   10485      14   10497
   10494      13   10500   10494      13   10500   10497      14   10509   10506
      13   10512   10506      13   10512   10509      14   10521   10518      13
   10524   10518      13   10524   10521      14   10533   10530      13   10536
   10530      13   10536   10533      14   10545   10542      13   10548   10542
      13   10548   10545      14   10557   10554      13   10560   10554      13
   10560   10557      14   10569   10566      13   10572   10566      13   10572
   10569      14   10581   10578      13   10584   10578      13   10584   10581
      14   10593   10590      13   10596   10590      13   10596   10593      14
   10605   10602      13   10608   10602      13   10608   10605      14   10617
   10614      13   10620   10614      13   10620   10617      14   10629   10626
      13   10632   10626      13   10632   10629      14   10641   10638      13
   10644   10638      13   10644   10641      14   10653   10650      13   10656
   10650      13   10656   10653      14   10665   10662      13   10668   10662
      13   10668   10665      14   10677   10674      13   10680   10674      13
   10680   10677      14   10689   10686      13   10692   10686      13   10692
   10689      14   10701   10698      13   10704   10698      13   10704   10701
      14   10713   10710      13   10716   10710      13   10716   10713      14
   10725   10722      13   10728   10722      13   10728   10725      14   10737
   10734      13   10740   10734      13   10740   10737      14   10749   10746
      13   10752   10746      13   10752   10749      14   10761   10758      13
   10764   10758      13   10764   10761      14   10773   10770      13   10776
   10770      13   10776   10773      14   10785   10782      13   10788   10782
      13   10788   10785      14   10797   10794      13   10800   10794      13
   10800   10797      14   10809   10806      13   10812   10806      13   10812
   10809      14   10821   10818      13   10824   10818      13   10824   10821
      14   10833   10830      13   10836   10830      13   10836   10833      14
   10845   10842      13   10848   10842      13   10848   10845      14   10857
   10854      13   10860   10854      13   10860   10857      14   10869   10866
      13   10872   10866      13   10872   10869      14   10881   10878      13
   10884   10878      13   10884   10881      14   10893   10890      13   10896
   10890      13   10896   10893      14   10905   10902      13   10908   10902
      13   10908   10905      14   10917   10914      13   10920   10914      13
   10920   10917      14   10929   10926      13   10932   10926      13   10932
   10929      14   10941   10938      13   10944   10938      13   10944   10941
      14   10953   10950      13   10956   10950      13   10956   10953      14
   10965   10962      13   10968   10962      13   10968   10965      14   10977
   10974      13   10980   10974      13   10980   10977      14   10989   10986
      13   10992   10986      13   10992   10989      14   11001   10998      13
   11004   10998      13   11004   11001      14   11013   11010      13   11016
   11010      13   11016   11013      14   11025   11022      13   11028   11022
      13   11028   11025      14   11037   11034      13   11040   11034      13
   11040   11037      14   11049   11046      13   11052   11046      13   11052
   11049      14   11061   11058      13   11064   11058      13   11064   11061
      14   11073   11070      13   11076   11070      13   11076   11073      14
   11085   11082      13   11088   11082      13   11088   11085      14   11097
   11094      13   11100   11094      13   11100   11097      14   11109   11106
      13   11112   11106      13   11112   11109      14   11121   11118      13
   11124   11118      13   11124   11121      14   11133   11130      13   11136
   11130      13   11136   11133      14   11145   11142      13   11148   11142
      13   11148   11145      14   11157   11154      13   11160   11154      13
   11160   11157      14   11169   11166      13   11172   11166      13   11172
   11169      14   11181   11178      13   11184   11178      13   11184   11181
      14   11193   11190      13   11196   11190      13   11196   11193      14
   11205   11202      13   11208   11202      13   11208   11205      14   11217
   11214      13   11220   11214      13   11220   11217      14   11229   11226
      13   11232   11226      13   11232   11229      14   11241   11238      13
   11244   11238      13   11244   11241      14   11253   11250      13   11256
   11250      13   11256   11253      14   11265   11262      13   11268   11262
      13   11268   11265      14   11277   11274      13   11280   11274      13
   11280   11277      14   11289   11286      13   11292   11286      13   11292
   11289      14   11301   11298      13   11304   11298      13   11304   11301
      14   11313   11310      13   11316   11310      13   11316   11313      14
   11325   11322      13   11328   11322      13   11328   11325      14   11337
   11334      13   11340   11334      13   11340   11337      14   11349   11346
      13   11352   11346      13   11352   11349      14   11361   11358      13
   11364   11358      13   11364   11361      14   11373   11370      13   11376
   11370      13   11376   11373      14   11385   11382      13   11388   11382
      13   11388   11385      14   11397   11394      13   11400   11394      13
   11400   11397      14   11409   11406      13   11412   11406      13   11412
   11409      14   11421   11418      13   11424   11418      13   11424   11421
      14   11433   11430      13   11436   11430      13   11436   11433      14
   11445   11442      13   11448   11442      13   11448   11445      14   11457
   11454      13   11460   11454      13   11460   11457      14   11469   11466
      13   11472   11466      13   11472   11469      14   11481   11478      13
   11484   11478      13   11484   11481      14   11493   11490      13   11496
   11490      13   11496   11493      14   11505   11502      13   11508   11502
      13   11508   11505      14   11517   11514      13   11520   11514      13
   11520   11517      14   11529   11526      13   11532   11526      13   11532
   11529      14   11541   11538      13   11544   11538      13   11544   11541
      14   11553   11550      13   11556   11550      13   11556   11553      14
   11565   11562      13   11568   11562      13   11568   11565      14   11577
   11574      13   11580   11574      13   11580   11577      14   11589   11586
      13   11592   11586      13   11592   11589      14   11601   11598      13
   11604   11598      13   11604   11601      14   11613   11610      13   11616
   11610      13   11616   11613      14   11625   11622      13   11628   11622
      13   11628   11625      14   11637   11634      13   11640   11634      13
   11640   11637      14   11649   11646      13   11652   11646      13   11652
   11649      14   11661   11658      13   11664   11658      13   11664   11661
      14   11673   11670      13   11676   11670      13   11676   11673      14
   11685   11682      13   11688   11682      13   11688   11685      14   11697
   11694      13   11700   11694      13   11700   11697      14   11709   11706
      13   11712   11706      13   11712   11709      14   11721   11718      13
   11724   11718      13   11724   11721      14   11733   11730      13   11736
   11730      13   11736   11733      14   11745   11742      13   11748   11742
      13   11748   11745      14   11757   11754      13   11760   11754      13
   11760   11757      14   11769   11766      13   11772   11766      13   11772
   11769      14   11781   11778      13   11784   11778      13   11784   11781
      14   11793   11790      13   11796   11790      13   11796   11793      14
   11805   11802      13   11808   11802      13   11808   11805      14   11817
   11814      13   11820   11814      13   11820   11817      14   11829   11826
      13   11832   11826      13   11832   11829      14   11841   11838      13
   11844   11838      13   11844   11841      14   11853   11850      13   11856
   11850      13   11856   11853      14   11865   11862      13   11868   11862
      13   11868   11865      14   11877   11874      13   11880   11874      13
   11880   11877      14   11889   11886      13   11892   11886      13   11892
   11889      14   11901   11898      13   11904   11898      13   11904   11901
      14   11913   11910      13   11916   11910      13   11916   11913      14
   11925   11922      13   11928   11922      13   11928   11925      14   11937
   11934      13   11940   11934      13   11940   11937      14   11949   11946
      13   11952   11946      13   11952   11949      14   11961   11958      13
   11964   11958      13   11964   11961      14   11973   11970      13   11976
   11970      13   11976   11973      14   11985   11982      13   11988   11982
      13   11988   11985      14   11997   11994      13   12000   11994      13
   12000   11997      14   12009   12006      13   12012   12006      13   12012
   12009      14   12021   12018      13   12024   12018      13   12024   12021
      14   12033   12030      13   12036   12030      13   12036   12033      14
   12045   12042      13   12048   12042      13   12048   12045      14   12057
   12054      13   12060   12054      13   12060   12057      14   12069   12066
      13   12072   12066      13   12072   12069      14   12081   12078      13
   12084   12078      13   12084   12081      14   12093   12090      13   12096
   12090      13   12096   12093      14   12105   12102      13   12108   12102
      13   12108   12105      14   12117   12114      13   12120   12114      13
   12120   12117      14   12129   12126      13   12132   12126      13   12132
   12129      14   12141   12138      13   12144   12138      13   12144   12141
      14   12153   12150      13   12156   12150      13   12156   12153      14
   12165   12162      13   12168   12162      13   12168   12165      14   12177
   12174      13   12180   12174      13   12180   12177      14   12189   12186
      13   12192   12186      13   12192   12189      14   12201   12198      13
   12204   12198      13   12204   12201      14   12213   12210      13   12216
   12210      13   12216   12213      14   12225   12222      13   12228   12222
      13   12228   12225      14   12237   12234      13   12240   12234      13
   12240   12237      14   12249   12246      13   12252   12246      13   12252
   12249      14   12261   12258      13   12264   12258      13   12264   12261
      14   12273   12270      13   12276   12270      13   12276   12273      14
   12285   12282      13   12288   12282      13   12288   12285      14   12297
   12294      13   12300   12294      13   12300   12297      14   12309   12306
      13   12312   12306      13   12312   12309      14   12321   12318      13
   12324   12318      13   12324   12321      14   12333   12330      13   12336
   12330      13   12336   12333      14   12345   12342      13   12348   12342
      13   12348   12345      14   12357   12354      13   12360   12354      13
   12360   12357      14   12369   12366      13   12372   12366      13   12372
   12369      14   12381   12378      13   12384   12378      13   12384   12381
      14   12393   12390      13   12396   12390      13   12396   12393      14
   12405   12402      13   12408   12402      13   12408   12405      14   12417
   12414      13   12420   12414      13   12420   12417      14   12429   12426
      13   12432   12426      13   12432   12429      14   12441   12438      13
   12444   12438      13   12444   12441      14   12453   12450      13   12456
   12450      13   12456   12453      14   12465   12462      13   12468   12462
      13   12468   12465      14   12477   12474      13   12480   12474      13
   12480   12477      14   12489   12486      13   12492   12486      13   12492
   12489      14   12501   12498      13   12504   12498      13   12504   12501
      14   12513   12510      13   12516   12510      13   12516   12513      14
   12525   12522      13   12528   12522      13   12528   12525      14   12537
   12534      13   12540   12534      13   12540   12537      14   12549   12546
      13   12552   12546      13   12552   12549      14   12561   12558      13
   12564   12558      13   12564   12561      14   12573   12570      13   12576
   12570      13   12576   12573      14   12585   12582      13   12588   12582
      13   12588   12585      14   12597   12594      13   12600   12594      13
   12600   12597      14   12609   12606      13   12612   12606      13   12612
   12609      14   12621   12618      13   12624   12618      13   12624   12621
      14   12633   12630      13   12636   12630      13   12636   12633      14
   12645   12642      13   12648   12642      13   12648   12645      14   12657
   12654      13   12660   12654      13   12660   12657      14   12669   12666
      13   12672   12666      13   12672   12669      14   12681   12678      13
   12684   12678      13   12684   12681      14   12693   12690      13   12696
   12690      13   12696   12693      14   12705   12702      13   12708   12702
      13   12708   12705      14   12717   12714      13   12720   12714      13
   12720   12717      14   12729   12726      13   12732   12726      13   12732
   12729      14   12741   12738      13   12744   12738      13   12744   12741
      14   12753   12750      13   12756   12750      13   12756   12753      14
   12765   12762      13   12768   12762      13   12768   12765      14   12777
   12774      13   12780   12774      13   12780   12777      14   12789   12786
      13   12792   12786      13   12792   12789      14   12801   12798      13
   12804   12798      13   12804   12801      14   12813   12810      13   12816
   12810      13   12816   12813      14   12825   12822      13   12828   12822
      13   12828   12825      14   12837   12834      13   12840   12834      13
   12840   12837      14   12849   12846      13   12852   12846      13   12852
   12849      14   12861   12858      13   12864   12858      13   12864   12861
      14   12873   12870      13   12876   12870      13   12876   12873      14
   12885   12882      13   12888   12882      13   12888   12885      14   12897
   12894      13   12900   12894      13   12900   12897      14   12909   12906
      13   12912   12906      13   12912   12909      14   12921   12918      13
   12924   12918      13   12924   12921      14   12933   12930      13   12936
   12930      13   12936   12933      14   12945   12942      13   12948   12942
      13   12948   12945      14   12957   12954      13   12960   12954      13
   12960   12957      14   12969   12966      13   12972   12966      13   12972
   12969      14   12981   12978      13   12984   12978      13   12984   12981
      14   12993   12990      13   12996   12990      13   12996   12993      14
   13005   13002      13   13008   13002      13   13008   13005      14   13017
   13014      13   13020   13014      13   13020   13017      14   13029   13026
      13   13032   13026      13   13032   13029      14   13041   13038      13
   13044   13038      13   13044   13041      14   13053   13050      13   13056
   13050      13   13056   13053      14   13065   13062      13   13068   13062
      13   13068   13065      14   13077   13074      13   13080   13074      13
   13080   13077      14   13089   13086      13   13092   13086      13   13092
   13089      14   13101   13098      13   13104   13098      13   13104   13101
      14   13113   13110      13   13116   13110      13   13116   13113      14
   13125   13122      13   13128   13122      13   13128   13125      14   13137
   13134      13   13140   13134      13   13140   13137      14   13149   13146
      13   13152   13146      13   13152   13149      14   13161   13158      13
   13164   13158      13   13164   13161      14   13173   13170      13   13176
   13170      13   13176   13173      14   13185   13182      13   13188   13182
      13   13188   13185      14   13197   13194      13   13200   13194      13
   13200   13197      14   13209   13206      13   13212   13206      13   13212
   13209      14   13221   13218      13   13224   13218      13   13224   13221
      14   13233   13230      13   13236   13230      13   13236   13233      14
   13245   13242      13   13248   13242      13   13248   13245      14   13257
   13254      13   13260   13254      13   13260   13257      14   13269   13266
      13   13272   13266      13   13272   13269      14   13281   13278      13
   13284   13278      13   13284   13281      14   13293   13290      13   13296
   13290      13   13296   13293      14   13305   13302      13   13308   13302
      13   13308   13305      14   13317   13314      13   13320   13314      13
   13320   13317      14   13329   13326      13   13332   13326      13   13332
   13329      14   13341   13338      13   13344   13338      13   13344   13341
      14   13353   13350      13   13356   13350      13   13356   13353      14
   13365   13362      13   13368   13362      13   13368   13365      14   13377
   13374      13   13380   13374      13   13380   13377      14   13389   13386
      13   13392   13386      13   13392   13389      14   13401   13398      13
   13404   13398      13   13404   13401      14   13413   13410      13   13416
   13410      13   13416   13413      14   13425   13422      13   13428   13422
      13   13428   13425      14   13437   13434      13   13440   13434      13
   13440   13437      14   13449   13446      13   13452   13446      13   13452
   13449      14   13461   13458      13   13464   13458      13   13464   13461
      14   13473   13470      13   13476   13470      13   13476   13473      14
   13485   13482      13   13488   13482      13   13488   13485      14   13497
   13494      13   13500   13494      13   13500   13497      14   13509   13506
      13   13512   13506      13   13512   13509      14   13521   13518      13
   13524   13518      13   13524   13521      14   13533   13530      13   13536
   13530      13   13536   13533      14   13545   13542      13   13548   13542
      13   13548   13545      14   13557   13554      13   13560   13554      13
   13560   13557      14   13569   13566      13   13572   13566      13   13572
   13569      14   13581   13578      13   13584   13578      13   13584   13581
      14   13593   13590      13   13596   13590      13   13596   13593      14
   13605   13602      13   13608   13602      13   13608   13605      14   13617
   13614      13   13620   13614      13   13620   13617      14   13629   13626
      13   13632   13626      13   13632   13629      14   13641   13638      13
   13644   13638      13   13644   13641      14   13653   13650      13   13656
   13650      13   13656   13653      14   13665   13662      13   13668   13662
      13   13668   13665      14   13677   13674      13   13680   13674      13
   13680   13677      14   13689   13686      13   13692   13686      13   13692
   13689      14   13701   13698      13   13704   13698      13   13704   13701
      14   13713   13710      13   13716   13710      13   13716   13713      14
   13725   13722      13   13728   13722      13   13728   13725      14   13737
   13734      13   13740   13734      13   13740   13737      14   13749   13746
      13   13752   13746      13   13752   13749      14   13761   13758      13
   13764   13758      13   13764   13761      14   13773   13770      13   13776
   13770      13   13776   13773      14   13785   13782      13   13788   13782
      13   13788   13785      14   13797   13794      13   13800   13794      13
   13800   13797      14   13809   13806      13   13812   13806      13   13812
   13809      14   13821   13818      13   13824   13818      13   13824   13821
      14   13833   13830      13   13836   13830      13   13836   13833      14
   13845   13842      13   13848   13842      13   13848   13845      14   13857
   13854      13   13860   13854      13   13860   13857      14   13869   13866
      13   13872   13866      13   13872   13869      14   13881   13878      13
   13884   13878      13   13884   13881      14   13893   13890      13   13896
   13890      13   13896   13893      14   13905   13902      13   13908   13902
      13   13908   13905      14   13917   13914      13   13920   13914      13
   13920   13917      14   13929   13926      13   13932   13926      13   13932
   13929      14   13941   13938      13   13944   13938      13   13944   13941
      14   13953   13950      13   13956   13950      13   13956   13953      14
   13965   13962      13   13968   13962      13   13968   13965      14   13977
   13974      13   13980   13974      13   13980   13977      14   13989   13986
      13   13992   13986      13   13992   13989      14   14001   13998      13
   14004   13998      13   14004   14001      14   14013   14010      13   14016
   14010      13   14016   14013      14   14025   14022      13   14028   14022
      13   14028   14025      14   14037   14034      13   14040   14034      13
   14040   14037      14   14049   14046      13   14052   14046      13   14052
   14049      14   14061   14058      13   14064   14058      13   14064   14061
      14   14073   14070      13   14076   14070      13   14076   14073      14
   14085   14082      13   14088   14082      13   14088   14085      14   14097
   14094      13   14100   14094      13   14100   14097      14   14109   14106
      13   14112   14106      13   14112   14109      14   14121   14118      13
   14124   14118      13   14124   14121      14   14133   14130      13   14136
   14130      13   14136   14133      14   14145   14142      13   14148   14142
      13   14148   14145      14   14157   14154      13   14160   14154      13
   14160   14157      14   14169   14166      13   14172   14166      13   14172
   14169      14   14181   14178      13   14184   14178      13   14184   14181
      14   14193   14190      13   14196   14190      13   14196   14193      14
   14205   14202      13   14208   14202      13   14208   14205      14   14217
   14214      13   14220   14214      13   14220   14217      14   14229   14226
      13   14232   14226      13   14232   14229      14   14241   14238      13
   14244   14238      13   14244   14241      14   14253   14250      13   14256
   14250      13   14256   14253      14   14265   14262      13   14268   14262
      13   14268   14265      14   14277   14274      13   14280   14274      13
   14280   14277      14   14289   14286      13   14292   14286      13   14292
   14289      14   14301   14298      13   14304   14298      13   14304   14301
      14   14313   14310      13   14316   14310      13   14316   14313      14
   14325   14322      13   14328   14322      13   14328   14325      14   14337
   14334      13   14340   14334      13   14340   14337      14   14349   14346
      13   14352   14346      13   14352   14349      14   14361   14358      13
   14364   14358      13   14364   14361      14   14373   14370      13   14376
   14370      13   14376   14373      14   14385   14382      13   14388   14382
      13   14388   14385      14   14397   14394      13   14400   14394      13
   14400   14397      14   14409   14406      13   14412   14406      13   14412
   14409      14   14421   14418      13   14424   14418      13   14424   14421
      14   14433   14430      13   14436   14430      13   14436   14433      14
   14445   14442      13   14448   14442      13   14448   14445      14   14457
   14454      13   14460   14454      13   14460   14457      14   14469   14466
      13   14472   14466      13   14472   14469      14   14481   14478      13
   14484   14478      13   14484   14481      14   14493   14490      13   14496
   14490      13   14496   14493      14   14505   14502      13   14508   14502
      13   14508   14505      14   14517   14514      13   14520   14514      13
   14520   14517      14   14529   14526      13   14532   14526      13   14532
   14529      14   14541   14538      13   14544   14538      13   14544   14541
      14   14553   14550      13   14556   14550      13   14556   14553      14
   14565   14562      13   14568   14562      13   14568   14565      14   14577
   14574      13   14580   14574      13   14580   14577      14   14589   14586
      13   14592   14586      13   14592   14589      14   14601   14598      13
   14604   14598      13   14604   14601      14   14613   14610      13   14616
   14610      13   14616   14613      14   14625   14622      13   14628   14622
      13   14628   14625      14   14637   14634      13   14640   14634      13
   14640   14637      14   14649   14646      13   14652   14646      13   14652
   14649      14   14661   14658      13   14664   14658      13   14664   14661
      14   14673   14670      13   14676   14670      13   14676   14673      14
   14685   14682      13   14688   14682      13   14688   14685      14   14697
   14694      13   14700   14694      13   14700   14697      14   14709   14706
      13   14712   14706      13   14712   14709      14   14721   14718      13
   14724   14718      13   14724   14721      14   14733   14730      13   14736
   14730      13   14736   14733      14   14745   14742      13   14748   14742
      13   14748   14745      14   14757   14754      13   14760   14754      13
   14760   14757      14   14769   14766      13   14772   14766      13   14772
   14769      14   14781   14778      13   14784   14778      13   14784   14781
      14   14793   14790      13   14796   14790      13   14796   14793      14
   14805   14802      13   14808   14802      13   14808   14805      14   14817
   14814      13   14820   14814      13   14820   14817      14   14829   14826
      13   14832   14826      13   14832   14829      14   14841   14838      13
   14844   14838      13   14844   14841      14   14853   14850      13   14856
   14850      13   14856   14853      14   14865   14862      13   14868   14862
      13   14868   14865      14   14877   14874      13   14880   14874      13
   14880   14877      14   14889   14886      13   14892   14886      13   14892
   14889      14   14901   14898      13   14904   14898      13   14904   14901
      14   14913   14910      13   14916   14910      13   14916   14913      14
   14925   14922      13   14928   14922      13   14928   14925      14   14937
   14934      13   14940   14934      13   14940   14937      14   14949   14946
      13   14952   14946      13   14952   14949      14   14961   14958      13
   14964   14958      13   14964   14961      14   14973   14970      13   14976
   14970      13   14976   14973      14   14985   14982      13   14988   14982
      13   14988   14985      14   14997   14994      13   15000   14994      13
   15000   14997      14   15009   15006      13   15012   15006      13   15012
   15009      14   15021   15018      13   15024   15018      13   15024   15021
      14   15033   15030      13   15036   15030      13   15036   15033      14
   15045   15042      13   15048   15042      13   15048   15045      14   15057
   15054      13   15060   15054      13   15060   15057      14   15069   15066
      13   15072   15066      13   15072   15069      14   15081   15078      13
   15084   15078      13   15084   15081      14   15093   15090      13   15096
   15090      13   15096   15093      14   15105   15102      13   15108   15102
      13   15108   15105      14   15117   15114      13   15120   15114      13
   15120   15117      14   15129   15126      13   15132   15126      13   15132
   15129      14   15141   15138      13   15144   15138      13   15144   15141
      14   15153   15150      13   15156   15150      13   15156   15153      14
   15165   15162      13   15168   15162      13   15168   15165      14   15177
   15174      13   15180   15174      13   15180   15177      14   15189   15186
      13   15192   15186      13   15192   15189      14   15201   15198      13
   15204   15198      13   15204   15201      14   15213   15210      13   15216
   15210      13   15216   15213      14   15225   15222      13   15228   15222
      13   15228   15225      14   15237   15234      13   15240   15234      13
   15240   15237      14   15249   15246      13   15252   15246      13   15252
   15249      14   15261   15258      13   15264   15258      13   15264   15261
      14   15273   15270      13   15276   15270      13   15276   15273      14
   15285   15282      13   15288   15282      13   15288   15285      14   15297
   15294      13   15300   15294      13   15300   15297      14   15309   15306
      13   15312   15306      13   15312   15309      14   15321   15318      13
   15324   15318      13   15324   15321      14   15333   15330      13   15336
   15330      13   15336   15333      14   15345   15342      13   15348   15342
      13   15348   15345      14   15357   15354      13   15360   15354      13
   15360   15357      14   15369   15366      13   15372   15366      13   15372
   15369      14   15381   15378      13   15384   15378      13   15384   15381
      14   15393   15390      13   15396   15390      13   15396   15393      14
   15405   15402      13   15408   15402      13   15408   15405      14   15417
   15414      13   15420   15414      13   15420   15417      14   15429   15426
      13   15432   15426      13   15432   15429      14   15441   15438      13
   15444   15438      13   15444   15441      14   15453   15450      13   15456
   15450      13   15456   15453      14   15465   15462      13   15468   15462
      13   15468   15465      14   15477   15474      13   15480   15474      13
   15480   15477      14   15489   15486      13   15492   15486      13   15492
   15489      14   15501   15498      13   15504   15498      13   15504   15501
      14   15513   15510      13   15516   15510      13   15516   15513      14
   15525   15522      13   15528   15522      13   15528   15525      14   15537
   15534      13   15540   15534      13   15540   15537      14   15549   15546
      13   15552   15546      13   15552   15549      14   15561   15558      13
   15564   15558      13   15564   15561      14   15573   15570      13   15576
   15570      13   15576   15573      14   15585   15582      13   15588   15582
      13   15588   15585      14   15597   15594      13   15600   15594      13
   15600   15597      14   15609   15606      13   15612   15606      13   15612
   15609      14   15621   15618      13   15624   15618      13   15624   15621
      14   15633   15630      13   15636   15630      13   15636   15633      14
   15645   15642      13   15648   15642      13   15648   15645      14   15657
   15654      13   15660   15654      13   15660   15657      14   15669   15666
      13   15672   15666      13   15672   15669      14   15681   15678      13
   15684   15678      13   15684   15681      14   15693   15690      13   15696
   15690      13   15696   15693      14   15705   15702      13   15708   15702
      13   15708   15705      14   15717   15714      13   15720   15714      13
   15720   15717      14   15729   15726      13   15732   15726      13   15732
   15729      14   15741   15738      13   15744   15738      13   15744   15741
      14   15753   15750      13   15756   15750      13   15756   15753      14
   15765   15762      13   15768   15762      13   15768   15765      14   15777
   15774      13   15780   15774      13   15780   15777      14   15789   15786
      13   15792   15786      13   15792   15789      14   15801   15798      13
   15804   15798      13   15804   15801      14   15813   15810      13   15816
   15810      13   15816   15813      14   15825   15822      13   15828   15822
      13   15828   15825      14   15837   15834      13   15840   15834      13
   15840   15837      14   15849   15846      13   15852   15846      13   15852
   15849      14   15861   15858      13   15864   15858      13   15864   15861
      14   15873   15870      13   15876   15870      13   15876   15873      14
   15885   15882      13   15888   15882      13   15888   15885      14   15897
   15894      13   15900   15894      13   15900   15897      14   15909   15906
      13   15912   15906      13   15912   15909      14   15921   15918      13
   15924   15918      13   15924   15921      14   15933   15930      13   15936
   15930      13   15936   15933      14   15945   15942      13   15948   15942
      13   15948   15945      14   15957   15954      13   15960   15954      13
   15960   15957      14   15969   15966      13   15972   15966      13   15972
   15969      14   15981   15978      13   15984   15978      13   15984   15981
      14   15993   15990      13   15996   15990      13   15996   15993      14
   16005   16002      13   16008   16002      13   16008   16005      14   16017
   16014      13   16020   16014      13   16020   16017      14   16029   16026
      13   16032   16026      13   16032   16029      14   16041   16038      13
   16044   16038      13   16044   16041      14   16053   16050      13   16056
   16050      13   16056   16053      14   16065   16062      13   16068   16062
      13   16068   16065      14   16077   16074      13   16080   16074      13
   16080   16077      14   16089   16086      13   16092   16086      13   16092
   16089      14   16101   16098      13   16104   16098      13   16104   16101
      14   16113   16110      13   16116   16110      13   16116   16113      14
   16125   16122      13   16128   16122      13   16128   16125      14   16137
   16134      13   16140   16134      13   16140   16137      14   16149   16146
      13   16152   16146      13   16152   16149      14   16161   16158      13
   16164   16158      13   16164   16161      14   16173   16170      13   16176
   16170      13   16176   16173      14   16185   16182      13   16188   16182
      13   16188   16185      14   16197   16194      13   16200   16194      13
   16200   16197      14   16209   16206      13   16212   16206      13   16212
   16209      14   16221   16218      13   16224   16218      13   16224   16221
      14   16233   16230      13   16236   16230      13   16236   16233      14
   16245   16242      13   16248   16242      13   16248   16245      14   16257
   16254      13   16260   16254      13   16260   16257      14   16269   16266
      13   16272   16266      13   16272   16269      14   16281   16278      13
   16284   16278      13   16284   16281      14   16293   16290      13   16296
   16290      13   16296   16293      14   16305   16302      13   16308   16302
      13   16308   16305      14   16317   16314      13   16320   16314      13
   16320   16317      14   16329   16326      13   16332   16326      13   16332
   16329      14   16341   16338      13   16344   16338      13   16344   16341
      14   16353   16350      13   16356   16350      13   16356   16353      14
   16365   16362      13   16368   16362      13   16368   16365      14   16377
   16374      13   16380   16374      13   16380   16377      14   16389   16386
      13   16392   16386      13   16392   16389      14   16401   16398      13
   16404   16398      13   16404   16401      14   16413   16410      13   16416
   16410      13   16416   16413      14   16425   16422      13   16428   16422
      13   16428   16425      14   16437   16434      13   16440   16434      13
   16440   16437      14   16449   16446      13   16452   16446      13   16452
   16449      14   16461   16458      13   16464   16458      13   16464   16461
      14   16473   16470      13   16476   16470      13   16476   16473      14
   16485   16482      13   16488   16482      13   16488   16485      14   16497
   16494      13   16500   16494      13   16500   16497      14   16509   16506
      13   16512   16506      13   16512   16509      14   16521   16518      13
   16524   16518      13   16524   16521      14   16533   16530      13   16536
   16530      13   16536   16533      14   16545   16542      13   16548   16542
      13   16548   16545      14   16557   16554      13   16560   16554      13
   16560   16557      14   16569   16566      13   16572   16566      13   16572
   16569      14   16581   16578      13   16584   16578      13   16584   16581
      14   16593   16590      13   16596   16590      13   16596   16593      14
   16605   16602      13   16608   16602      13   16608   16605      14   16617
   16614      13   16620   16614      13   16620   16617      14   16629   16626
      13   16632   16626      13   16632   16629      14   16641   16638      13
   16644   16638      13   16644   16641      14   16653   16650      13   16656
   16650      13   16656   16653      14   16665   16662      13   16668   16662
      13   16668   16665      14   16677   16674      13   16680   16674      13
   16680   16677      14   16689   16686      13   16692   16686      13   16692
   16689      14   16701   16698      13   16704   16698      13   16704   16701
      14   16713   16710      13   16716   16710      13   16716   16713      14
   16725   16722      13   16728   16722      13   16728   16725      14   16737
   16734      13   16740   16734      13   16740   16737      14   16749   16746
      13   16752   16746      13   16752   16749      14   16761   16758      13
   16764   16758      13   16764   16761      14   16773   16770      13   16776
   16770      13   16776   16773      14   16785   16782      13   16788   16782
      13   16788   16785      14   16797   16794      13   16800   16794      13
   16800   16797      14   16809   16806      13   16812   16806      13   16812
   16809      14   16821   16818      13   16824   16818      13   16824   16821
      14   16833   16830      13   16836   16830      13   16836   16833      14
   16845   16842      13   16848   16842      13   16848   16845      14   16857
   16854      13   16860   16854      13   16860   16857      14   16869   16866
      13   16872   16866      13   16872   16869      14   16881   16878      13
   16884   16878      13   16884   16881      14   16893   16890      13   16896
   16890      13   16896   16893      14   16905   16902      13   16908   16902
      13   16908   16905      14   16917   16914      13   16920   16914      13
   16920   16917      14   16929   16926      13   16932   16926      13   16932
   16929      14   16941   16938      13   16944   16938      13   16944   16941
      14   16953   16950      13   16956   16950      13   16956   16953      14
   16965   16962      13   16968   16962      13   16968   16965      14   16977
   16974      13   16980   16974      13   16980   16977      14   16989   16986
      13   16992   16986      13   16992   16989      14   17001   16998      13
   17004   16998      13   17004   17001      14   17013   17010      13   17016
   17010      13   17016   17013      14   17025   17022      13   17028   17022
      13   17028   17025      14   17037   17034      13   17040   17034      13
   17040   17037      14   17049   17046      13   17052   17046      13   17052
   17049      14   17061   17058      13   17064   17058      13   17064   17061
      14   17073   17070      13   17076   17070      13   17076   17073      14
   17085   17082      13   17088   17082      13   17088   17085      14   17097
   17094      13   17100   17094      13   17100   17097      14   17109   17106
      13   17112   17106      13   17112   17109      14   17121   17118      13
   17124   17118      13   17124   17121      14   17133   17130      13   17136
   17130      13   17136   17133      14   17145   17142      13   17148   17142
      13   17148   17145      14   17157   17154      13   17160   17154      13
   17160   17157      14   17169   17166      13   17172   17166      13   17172
   17169      14   17181   17178      13   17184   17178      13   17184   17181
      14   17193   17190      13   17196   17190      13   17196   17193      14
   17205   17202      13   17208   17202      13   17208   17205      14   17217
   17214      13   17220   17214      13   17220   17217      14   17229   17226
      13   17232   17226      13   17232   17229      14   17241   17238      13
   17244   17238      13   17244   17241      14   17253   17250      13   17256
   17250      13   17256   17253      14   17265   17262      13   17268   17262
      13   17268   17265      14   17277   17274      13   17280   17274      13
   17280   17277      14   17289   17286      13   17292   17286      13   17292
   17289      14   17301   17298      13   17304   17298      13   17304   17301
      14   17313   17310      13   17316   17310      13   17316   17313      14
   17325   17322      13   17328   17322      13   17328   17325      14   17337
   17334      13   17340   17334      13   17340   17337      14   17349   17346
      13   17352   17346      13   17352   17349      14   17361   17358      13
   17364   17358      13   17364   17361      14   17373   17370      13   17376
   17370      13   17376   17373      14   17385   17382      13   17388   17382
      13   17388   17385      14   17397   17394      13   17400   17394      13
   17400   17397      14   17409   17406      13   17412   17406      13   17412
   17409      14   17421   17418      13   17424   17418      13   17424   17421
      14   17433   17430      13   17436   17430      13   17436   17433      14
   17445   17442      13   17448   17442      13   17448   17445      14   17457
   17454      13   17460   17454      13   17460   17457      14   17469   17466
      13   17472   17466      13   17472   17469      14   17481   17478      13
   17484   17478      13   17484   17481      14   17493   17490      13   17496
   17490      13   17496   17493      14   17505   17502      13   17508   17502
      13   17508   17505      14   17517   17514      13   17520   17514      13
   17520   17517      14   17529   17526      13   17532   17526      13   17532
   17529      14   17541   17538      13   17544   17538      13   17544   17541
      14   17553   17550      13   17556   17550      13   17556   17553      14
   17565   17562      13   17568   17562      13   17568   17565      14   17577
   17574      13   17580   17574      13   17580   17577      14   17589   17586
      13   17592   17586      13   17592   17589      14   17601   17598      13
   17604   17598      13   17604   17601      14   17613   17610      13   17616
   17610      13   17616   17613      14   17625   17622      13   17628   17622
      13   17628   17625      14   17637   17634      13   17640   17634      13
   17640   17637      14   17649   17646      13   17652   17646      13   17652
   17649      14   17661   17658      13   17664   17658      13   17664   17661
      14   17673   17670      13   17676   17670      13   17676   17673      14
   17685   17682      13   17688   17682      13   17688   17685      14   17697
   17694      13   17700   17694      13   17700   17697      14   17709   17706
      13   17712   17706      13   17712   17709      14   17721   17718      13
   17724   17718      13   17724   17721      14   17733   17730      13   17736
   17730      13   17736   17733      14   17745   17742      13   17748   17742
      13   17748   17745      14   17757   17754      13   17760   17754      13
   17760   17757      14   17769   17766      13   17772   17766      13   17772
   17769      14   17781   17778      13   17784   17778      13   17784   17781
      14   17793   17790      13   17796   17790      13   17796   17793      14
   17805   17802      13   17808   17802      13   17808   17805      14   17817
   17814      13   17820   17814      13   17820   17817      14   17829   17826
      13   17832   17826      13   17832   17829      14   17841   17838      13
   17844   17838      13   17844   17841      14   17853   17850      13   17856
   17850      13   17856   17853      14   17865   17862      13   17868   17862
      13   17868   17865      14   17877   17874      13   17880   17874      13
   17880   17877      14   17889   17886      13   17892   17886      13   17892
   17889      14   17901   17898      13   17904   17898      13   17904   17901
      14   17913   17910      13   17916   17910      13   17916   17913      14
   17925   17922      13   17928   17922      13   17928   17925      14   17937
   17934      13   17940   17934      13   17940   17937      14   17949   17946
      13   17952   17946      13   17952   17949      14   17961   17958      13
   17964   17958      13   17964   17961      14   17973   17970      13   17976
   17970      13   17976   17973      14   17985   17982      13   17988   17982
      13   17988   17985      14   17997   17994      13   18000   17994      13
   18000   17997      14   18009   18006      13   18012   18006      13   18012
   18009      14   18021   18018      13   18024   18018      13   18024   18021
      14   18033   18030      13   18036   18030      13   18036   18033      14
   18045   18042      13   18048   18042      13   18048   18045      14   18057
   18054      13   18060   18054      13   18060   18057      14   18069   18066
      13   18072   18066      13   18072   18069      14   18081   18078      13
   18084   18078      13   18084   18081      14   18093   18090      13   18096
   18090      13   18096   18093      14   18105   18102      13   18108   18102
      13   18108   18105      14   18117   18114      13   18120   18114      13
   18120   18117      14   18129   18126      13   18132   18126      13   18132
   18129      14   18141   18138      13   18144   18138      13   18144   18141
      14   18153   18150      13   18156   18150      13   18156   18153      14
   18165   18162      13   18168   18162      13   18168   18165      14   18177
   18174      13   18180   18174      13   18180   18177      14   18189   18186
      13   18192   18186      13   18192   18189      14   18201   18198      13
   18204   18198      13   18204   18201      14   18213   18210      13   18216
   18210      13   18216   18213      14   18225   18222      13   18228   18222
      13   18228   18225      14   18237   18234      13   18240   18234      13
   18240   18237      14   18249   18246      13   18252   18246      13   18252
   18249      14   18261   18258      13   18264   18258      13   18264   18261
      14   18273   18270      13   18276   18270      13   18276   18273      14
   18285   18282      13   18288   18282      13   18288   18285      14   18297
   18294      13   18300   18294      13   18300   18297      14   18309   18306
      13   18312   18306      13   18312   18309      14   18321   18318      13
   18324   18318      13   18324   18321      14   18333   18330      13   18336
   18330      13   18336   18333      14   18345   18342      13   18348   18342
      13   18348   18345      14   18357   18354      13   18360   18354      13
   18360   18357      14   18369   18366      13   18372   18366      13   18372
   18369      14   18381   18378      13   18384   18378      13   18384   18381
      14   18393   18390      13   18396   18390      13   18396   18393      14
   18405   18402      13   18408   18402      13   18408   18405      14   18417
   18414      13   18420   18414      13   18420   18417      14   18429   18426
      13   18432   18426      13   18432   18429      14   18441   18438      13
   18444   18438      13   18444   18441      14   18453   18450      13   18456
   18450      13   18456   18453      14   18465   18462      13   18468   18462
      13   18468   18465      14   18477   18474      13   18480   18474      13
   18480   18477      14   18489   18486      13   18492   18486      13   18492
   18489      14   18501   18498      13   18504   18498      13   18504   18501
      14   18513   18510      13   18516   18510      13   18516   18513      14
   18525   18522      13   18528   18522      13   18528   18525      14   18537
   18534      13   18540   18534      13   18540   18537      14   18549   18546
      13   18552   18546      13   18552   18549      14   18561   18558      13
   18564   18558      13   18564   18561      14   18573   18570      13   18576
   18570      13   18576   18573      14   18585   18582      13   18588   18582
      13   18588   18585      14   18597   18594      13   18600   18594      13
   18600   18597      14   18609   18606      13   18612   18606      13   18612
   18609      14   18621   18618      13   18624   18618      13   18624   18621
      14   18633   18630      13   18636   18630      13   18636   18633      14
   18645   18642      13   18648   18642      13   18648   18645      14   18657
   18654      13   18660   18654      13   18660   18657      14   18669   18666
      13   18672   18666      13   18672   18669      14   18681   18678      13
   18684   18678      13   18684   18681      14   18693   18690      13   18696
   18690      13   18696   18693      14   18705   18702      13   18708   18702
      13   18708   18705      14   18717   18714      13   18720   18714      13
   18720   18717      14   18729   18726      13   18732   18726      13   18732
   18729      14   18741   18738      13   18744   18738      13   18744   18741
      14   18753   18750      13   18756   18750      13   18756   18753      14
   18765   18762      13   18768   18762      13   18768   18765      14   18777
   18774      13   18780   18774      13   18780   18777      14   18789   18786
      13   18792   18786      13   18792   18789      14   18801   18798      13
   18804   18798      13   18804   18801      14   18813   18810      13   18816
   18810      13   18816   18813      14   18825   18822      13   18828   18822
      13   18828   18825      14   18837   18834      13   18840   18834      13
   18840   18837      14   18849   18846      13   18852   18846      13   18852
   18849      14   18861   18858      13   18864   18858      13   18864   18861
      14   18873   18870      13   18876   18870      13   18876   18873      14
   18885   18882      13   18888   18882      13   18888   18885      14   18897
   18894      13   18900   18894      13   18900   18897      14   18909   18906
      13   18912   18906      13   18912   18909      14   18921   18918      13
   18924   18918      13   18924   18921      14   18933   18930      13   18936
   18930      13   18936   18933      14   18945   18942      13   18948   18942
      13   18948   18945      14   18957   18954      13   18960   18954      13
   18960   18957      14   18969   18966      13   18972   18966      13   18972
   18969      14   18981   18978      13   18984   18978      13   18984   18981
      14   18993   18990      13   18996   18990      13   18996   18993      14
   19005   19002      13   19008   19002      13   19008   19005      14   19017
   19014      13   19020   19014      13   19020   19017      14   19029   19026
      13   19032   19026      13   19032   19029      14   19041   19038      13
   19044   19038      13   19044   19041      14   19053   19050      13   19056
   19050      13   19056   19053      14   19065   19062      13   19068   19062
      13   19068   19065      14   19077   19074      13   19080   19074      13
   19080   19077      14   19089   19086      13   19092   19086      13   19092
   19089      14   19101   19098      13   19104   19098      13   19104   19101
      14   19113   19110      13   19116   19110      13   19116   19113      14
   19125   19122      13   19128   19122      13   19128   19125      14   19137
   19134      13   19140   19134      13   19140   19137      14   19149   19146
      13   19152   19146      13   19152   19149      14   19161   19158      13
   19164   19158      13   19164   19161      14   19173   19170      13   19176
   19170      13   19176   19173      14   19185   19182      13   19188   19182
      13   19188   19185      14   19197   19194      13   19200   19194      13
   19200   19197      14   19209   19206      13   19212   19206      13   19212
   19209      14   19221   19218      13   19224   19218      13   19224   19221
      14   19233   19230      13   19236   19230      13   19236   19233      14
   19245   19242      13   19248   19242      13   19248   19245      14   19257
   19254      13   19260   19254      13   19260   19257      14   19269   19266
      13   19272   19266      13   19272   19269      14   19281   19278      13
   19284   19278      13   19284   19281      14   19293   19290      13   19296
   19290      13   19296   19293      14   19305   19302      13   19308   19302
      13   19308   19305      14   19317   19314      13   19320   19314      13
   19320   19317      14   19329   19326      13   19332   19326      13   19332
   19329      14   19341   19338      13   19344   19338      13   19344   19341
      14   19353   19350      13   19356   19350      13   19356   19353      14
   19365   19362      13   19368   19362      13   19368   19365      14   19377
   19374      13   19380   19374      13   19380   19377      14   19389   19386
      13   19392   19386      13   19392   19389      14   19401   19398      13
   19404   19398      13   19404   19401      14   19413   19410      13   19416
   19410      13   19416   19413      14   19425   19422      13   19428   19422
      13   19428   19425      14   19437   19434      13   19440   19434      13
   19440   19437      14   19449   19446      13   19452   19446      13   19452
   19449      14
%FLAG BONDS_WITHOUT_HYDROGEN                                                    
%FORMAT(10I8)                                                                   
      12      15       1      12      18       2       3      12       4      42
      45       1      42      48       2      24      30       6      24      42
       7      18      24       9      84      87       1      84      90       2
      78      84       7      69      78       6      60      69      10      51
      60      10      48      51      12      48      78       9     114     117
       1     114     120       2      96     102       6      96     114       7
      90      96       9     120     126      12     147     138      15     159
     150      15     171     162      15     183     174      15     195     186
      15     207     198      15     219     210      15     231     222      15
     243     234      15     255     246      15     267     258      15     279
     270      15     291     282      15     303     294      15     315     306
      15     327     318      15     339     330      15     351     342      15
     363     354      15     375     366      15     387     378      15     399
     390      15     411     402      15     423     414      15     435     426
      15     447     438      15     459     450      15     471     462      15
     483     474      15     495     486      15     507     498      15     519
     510      15     531     522      15     543     534      15     555     546
      15     567     558      15     579     570      15     591     582      15
     603     594      15     615     606      15     627     618      15     639
     630      15     651     642      15     663     654      15     675     666
      15     687     678      15     699     690      15     711     702      15
     723     714      15     735     726      15     747     738      15     759
     750      15     771     762      15     783     774      15     795     786
      15     807     798      15     819     810      15     831     822      15
     843     834      15     855     846      15     867     858      15     879
     870      15     891     882      15     903     894      15     915     906
      15     927     918      15     939     930      15     951     942      15
     963     954      15     975     966      15     987     978      15     999
     990      15    1011    1002      15    1023    1014      15    1035    1026
      15    1047    1038      15    1059    1050      15    1071    1062      15
    1083    1074      15    1095    1086      15    1107    1098      15    1119
    1110      15    1131    1122      15    1143    1134      15    1155    1146
      15    1167    1158      15    1179    1170      15    1191    1182      15
    1203    1194      15    1215    1206      15    1227    1218      15    1239
    1230      15    1251    1242      15    1263    1254      15    1275    1266
      15    1287    1278      15    1299    1290      15    1311    1302      15
    1323    1314      15    1335    1326      15    1347    1338      15    1359
    1350      15    1371    1362      15    1383    1374      15    1395    1386
      15    1407    1398      15    1419    1410      15    1431    1422      15
    1443    1434      15    1455    1446      15    1467    1458      15    1479
    1470      15    1491    1482      15    1503    1494      15    1515    1506
      15    1527    1518      15    1539    1530      15    1551    1542      15
    1563    1554      15    1575    1566      15    1587    1578      15    1599
    1590      15    1611    1602      15    1623    1614      15    1635    1626
      15    1647    1638      15    1659    1650      15    1671    1662      15
    1683    1674      15    1695    1686      15    1707    1698      15    1719
    1710      15    1731    1722      15    1743    1734      15    1755    1746
      15    1767    1758      15    1779    1770      15    1791    1782      15
    1803    1794      15    1815    1806      15    1827    1818      15    1839
    1830      15    1851    1842      15    1863    1854      15    1875    1866
      15    1887    1878      15    1899    1890      15    1911    1902      15
    1923    1914      15    1935    1926      15    1947    1938      15    1959
    1950      15    1971    1962      15    1983    1974      15    1995    1986
      15    2007    1998      15    2019    2010      15    2031    2022      15
    2043    2034      15    2055    2046      15    2067    2058      15    2079
    2070      15    2091    2082      15    2103    2094      15    2115    2106
      15    2127    2118      15    2139    2130      15    2151    2142      15
    2163    2154      15    2175    2166      15    2187    2178      15    2199
    2190      15    2211    2202      15    2223    2214      15    2235    2226
      15    2247    2238      15    2259    2250      15    2271    2262      15
    2283    2274      15    2295    2286      15    2307    2298      15    2319
    2310      15    2331    2322      15    2343    2334      15    2355    2346
      15    2367    2358      15    2379    2370      15    2391    2382      15
    2403    2394      15    2415    2406      15    2427    2418      15    2439
    2430      15    2451    2442      15    2463    2454      15    2475    2466
      15    2487    2478      15    2499    2490      15    2511    2502      15
    2523    2514      15    2535    2526      15    2547    2538      15    2559
    2550      15    2571    2562      15    2583    2574      15    2595    2586
      15    2607    2598      15    2619    2610      15    2631    2622      15
    2643    2634      15    2655    2646      15    2667    2658      15    2679
    2670      15    2691    2682      15    2703    2694      15    2715    2706
      15    2727    2718      15    2739    2730      15    2751    2742      15
    2763    2754      15    2775    2766      15    2787    2778      15    2799
    2790      15    2811    2802      15    2823    2814      15    2835    2826
      15    2847    2838      15    2859    2850      15    2871    2862      15
    2883    2874      15    2895    2886      15    2907    2898      15    2919
    2910      15    2931    2922      15    2943    2934      15    2955    2946
      15    2967    2958      15    2979    2970      15    2991    2982      15
    3003    2994      15    3015    3006      15    3027    3018      15    3039
    3030      15    3051    3042      15    3063    3054      15    3075    3066
      15    3087    3078      15    3099    3090      15    3111    3102      15
    3123    3114      15    3135    3126      15    3147    3138      15    3159
    3150      15    3171    3162      15    3183    3174      15    3195    3186
      15    3207    3198      15    3219    3210      15    3231    3222      15
    3243    3234      15    3255    3246      15    3267    3258      15    3279
    3270      15    3291    3282      15    3303    3294      15    3315    3306
      15    3327    3318      15    3339    3330      15    3351    3342      15
    3363    3354      15    3375    3366      15    3387    3378      15    3399
    3390      15    3411    3402      15    3423    3414      15    3435    3426
      15    3447    3438      15    3459    3450      15    3471    3462      15
    3483    3474      15    3495    3486      15    3507    3498      15    3519
    3510      15    3531    3522      15    3543    3534      15    3555    3546
      15    3567    3558      15    3579    3570      15    3591    3582      15
    3603    3594      15    3615    3606      15    3627    3618      15    3639
    3630      15    3651    3642      15    3663    3654      15    3675    3666
      15    3687    3678      15    3699    3690      15    3711    3702      15
    3723    3714      15    3735    3726      15    3747    3738      15    3759
    3750      15    3771    3762      15    3783    3774      15    3795    3786
      15    3807    3798      15    3819    3810      15    3831    3822      15
    3843    3834      15    3855    3846      15    3867    3858      15    3879
    3870      15    3891    3882      15    3903    3894      15    3915    3906
      15    3927    3918      15    3939    3930      15    3951    3942      15
    3963    3954      15    3975    3966      15    3987    3978      15    3999
    3990      15    4011    4002      15    4023    4014      15    4035    4026
      15    4047    4038      15    4059    4050      15    4071    4062      15
    4083    4074      15    4095    4086      15    4107    4098      15    4119
    4110      15    4131    4122      15    4143    4134      15    4155    4146
      15    4167    4158      15    4179    4170      15    4191    4182      15
    4203    4194      15    4215    4206      15    4227    4218      15    4239
    4230      15    4251    4242      15    4263    4254      15    4275    4266
      15    4287    4278      15    4299    4290      15    4311    4302      15
    4323    4314      15    4335    4326      15    4347    4338      15    4359
    4350      15    4371    4362      15    4383    4374      15    4395    4386
      15    4407    4398      15    4419    4410      15    4431    4422      15
    4443    4434      15    4455    4446      15    4467    4458      15    4479
    4470      15    4491    4482      15    4503    4494      15    4515    4506
      15    4527    4518      15    4539    4530      15    4551    4542      15
    4563    4554      15    4575    4566      15    4587    4578      15    4599
    4590      15    4611    4602      15    4623    4614      15    4635    4626
      15    4647    4638      15    4659    4650      15    4671    4662      15
    4683    4674      15    4695    4686      15    4707    4698      15    4719
    4710      15    4731    4722      15    4743    4734      15    4755    4746
      15    4767    4758      15    4779    4770      15    4791    4782      15
    4803    4794      15    4815    4806      15    4827    4818      15    4839
    4830      15    4851    4842      15    4863    4854      15    4875    4866
      15    4887    4878      15    4899    4890      15    4911    4902      15
    4923    4914      15    4935    4926      15    4947    4938      15    4959
    4950      15    4971    4962      15    4983    4974      15    4995    4986
      15    5007    4998      15    5019    5010      15    5031    5022      15
    5043    5034      15    5055    5046      15    5067    5058      15    5079
    5070      15    5091    5082      15    5103    5094      15    5115    5106
      15    5127    5118      15    5139    5130      15    5151    5142      15
    5163    5154      15    5175    5166      15    5187    5178      15    5199
    5190      15    5211    5202      15    5223    5214      15    5235    5226
      15    5247    5238      15    5259    5250      15    5271    5262      15
    5283    5274      15    5295    5286      15    5307    5298      15    5319
    5310      15    5331    5322      15    5343    5334      15    5355    5346
      15    5367    5358      15    5379    5370      15    5391    5382      15
    5403    5394      15    5415    5406      15    5427    5418      15    5439
    5430      15    5451    5442      15    5463    5454      15    5475    5466
      15    5487    5478      15    5499    5490      15    5511    5502      15
    5523    5514      15    5535    5526      15    5547    5538      15    5559
    5550      15    5571    5562      15    5583    5574      15    5595    5586
      15    5607    5598      15    5619    5610      15    5631    5622      15
    5643    5634      15    5655    5646      15    5667    5658      15    5679
    5670      15    5691    5682      15    5703    5694      15    5715    5706
      15    5727    5718      15    5739    5730      15    5751    5742      15
    5763    5754      15    5775    5766      15    5787    5778      15    5799
    5790      15    5811    5802      15    5823    5814      15    5835    5826
      15    5847    5838      15    5859    5850      15    5871    5862      15
    5883    5874      15    5895    5886      15    5907    5898      15    5919
    5910      15    5931    5922      15    5943    5934      15    5955    5946
      15    5967    5958      15    5979    5970      15    5991    5982      15
    6003    5994      15    6015    6006      15    6027    6018      15    6039
    6030      15    6051    6042      15    6063    6054      15    6075    6066
      15    6087    6078      15    6099    6090      15    6111    6102      15
    6123    6114      15    6135    6126      15    6147    6138      15    6159
    6150      15    6171    6162      15    6183    6174      15    6195    6186
      15    6207    6198      15    6219    6210      15    6231    6222      15
    6243    6234      15    6255    6246      15    6267    6258      15    6279
    6270      15    6291    6282      15    6303    6294      15    6315    6306
      15    6327    6318      15    6339    6330      15    6351    6342      15
    6363    6354      15    6375    6366      15    6387    6378      15    6399
    6390      15    6411    6402      15    6423    6414      15    6435    6426
      15    6447    6438      15    6459    6450      15    6471    6462      15
    6483    6474      15    6495    6486      15    6507    6498      15    6519
    6510      15    6531    6522      15    6543    6534      15    6555    6546
      15    6567    6558      15    6579    6570      15    6591    6582      15
    6603    6594      15    6615    6606      15    6627    6618      15    6639
    6630      15    6651    6642      15    6663    6654      15    6675    6666
      15    6687    6678      15    6699    6690      15    6711    6702      15
    6723    6714      15    6735    6726      15    6747    6738      15    6759
    6750      15    6771    6762      15    6783    6774      15    6795    6786
      15    6807    6798      15    6819    6810      15    6831    6822      15
    6843    6834      15    6855    6846      15    6867    6858      15    6879
    6870      15    6891    6882      15    6903    6894      15    6915    6906
      15    6927    6918      15    6939    6930      15    6951    6942      15
    6963    6954      15    6975    6966      15    6987    6978      15    6999
    6990      15    7011    7002      15    7023    7014      15    7035    7026
      15    7047    7038      15    7059    7050      15    7071    7062      15
    7083    7074      15    7095    7086      15    7107    7098      15    7119
    7110      15    7131    7122      15    7143    7134      15    7155    7146
      15    7167    7158      15    7179    7170      15    7191    7182      15
    7203    7194      15    7215    7206      15    7227    7218      15    7239
    7230      15    7251    7242      15    7263    7254      15    7275    7266
      15    7287    7278      15    7299    7290      15    7311    7302      15
    7323    7314      15    7335    7326      15    7347    7338      15    7359
    7350      15    7371    7362      15    7383    7374      15    7395    7386
      15    7407    7398      15    7419    7410      15    7431    7422      15
    7443    7434      15    7455    7446      15    7467    7458      15    7479
    7470      15    7491    7482      15    7503    7494      15    7515    7506
      15    7527    7518      15    7539    7530      15    7551    7542      15
    7563    7554      15    7575    7566      15    7587    7578      15    7599
    7590      15    7611    7602      15    7623    7614      15    7635    7626
      15    7647    7638      15    7659    7650      15    7671    7662      15
    7683    7674      15    7695    7686      15    7707    7698      15    7719
    7710      15    7731    7722      15    7743    7734      15    7755    7746
      15    7767    7758      15    7779    7770      15    7791    7782      15
    7803    7794      15    7815    7806      15    7827    7818      15    7839
    7830      15    7851    7842      15    7863    7854      15    7875    7866
      15    7887    7878      15    7899    7890      15    7911    7902      15
    7923    7914      15    7935    7926      15    7947    7938      15    7959
    7950      15    7971    7962      15    7983    7974      15    7995    7986
      15    8007    7998      15    8019    8010      15    8031    8022      15
    8043    8034      15    8055    8046      15    8067    8058      15    8079
    8070      15    8091    8082      15    8103    8094      15    8115    8106
      15    8127    8118      15    8139    8130      15    8151    8142      15
    8163    8154      15    8175    8166      15    8187    8178      15    8199
    8190      15    8211    8202      15    8223    8214      15    8235    8226
      15    8247    8238      15    8259    8250      15    8271    8262      15
    8283    8274      15    8295    8286      15    8307    8298      15    8319
    8310      15    8331    8322      15    8343    8334      15    8355    8346
      15    8367    8358      15    8379    8370      15    8391    8382      15
    8403    8394      15    8415    8406      15    8427    8418      15    8439
    8430      15    8451    8442      15    8463    8454      15    8475    8466
      15    8487    8478      15    8499    8490      15    8511    8502      15
    8523    8514      15    8535    8526      15    8547    8538      15    8559
    8550      15    8571    8562      15    8583    8574      15    8595    8586
      15    8607    8598      15    8619    8610      15    8631    8622      15
    8643    8634      15    8655    8646      15    8667    8658      15    8679
    8670      15    8691    8682      15    8703    8694      15    8715    8706
      15    8727    8718      15    8739    8730      15    8751    8742      15
    8763    8754      15    8775    8766      15    8787    8778      15    8799
    8790      15    8811    8802      15    8823    8814      15    8835    8826
      15    8847    8838      15    8859    8850      15    8871    8862      15
    8883    8874      15    8895    8886      15    8907    8898      15    8919
    8910      15    8931    8922      15    8943    8934      15    8955    8946
      15    8967    8958      15    8979    8970      15    8991    8982      15
    9003    8994      15    9015    9006      15    9027    9018      15    9039
    9030      15    9051    9042      15    9063    9054      15    9075    9066
      15    9087    9078      15    9099    9090      15    9111    9102      15
    9123    9114      15    9135    9126      15    9147    9138      15    9159
    9150      15    9171    9162      15    9183    9174      15    9195    9186
      15    9207    9198      15    9219    9210      15    9231    9222      15
    9243    9234      15    9255    9246      15    9267    9258      15    9279
    9270      15    9291    9282      15    9303    9294      15    9315    9306
      15    9327    9318      15    9339    9330      15    9351    9342      15
    9363    9354      15    9375    9366      15    9387    9378      15    9399
    9390      15    9411    9402      15    9423    9414      15    9435    9426
      15    9447    9438      15    9459    9450      15    9471    9462      15
    9483    9474      15    9495    9486      15    9507    9498      15    9519
    9510      15    9531    9522      15    9543    9534      15    9555    9546
      15    9567    9558      15    9579    9570      15    9591    9582      15
    9603    9594      15    9615    9606      15    9627    9618      15    9639
    9630      15    9651    9642      15    9663    9654      15    9675    9666
      15    9687    9678      15    9699    9690      15    9711    9702      15
    9723    9714      15    9735    9726      15    9747    9738      15    9759
    9750      15    9771    9762      15    9783    9774      15    9795    9786
      15    9807    9798      15    9819    9810      15    9831    9822      15
    9843    9834      15    9855    9846      15    9867    9858      15    9879
    9870      15    9891    9882      15    9903    9894      15    9915    9906
      15    9927    9918      15    9939    9930      15    9951    9942      15
    9963    9954      15    9975    9966      15    9987    9978      15    9999
    9990      15   10011   10002      15   10023   10014      15   10035   10026
      15   10047   10038      15   10059   10050      15   10071   10062      15
   10083   10074      15   10095   10086      15   10107   10098      15   10119
   10110      15   10131   10122      15   10143   10134      15   10155   10146
      15   10167   10158      15   10179   10170      15   10191   10182      15
   10203   10194      15   10215   10206      15   10227   10218      15   10239
   10230      15   10251   10242      15   10263   10254      15   10275   10266
      15   10287   10278      15   10299   10290      15   10311   10302      15
   10323   10314      15   10335   10326      15   10347   10338      15   10359
   10350      15   10371   10362      15   10383   10374      15   10395   10386
      15   10407   10398      15   10419   10410      15   10431   10422      15
   10443   10434      15   10455   10446      15   10467   10458      15   10479
   10470      15   10491   10482      15   10503   10494      15   10515   10506
      15   10527   10518      15   10539   10530      15   10551   10542      15
   10563   10554      15   10575   10566      15   10587   10578      15   10599
   10590      15   10611   10602      15   10623   10614      15   10635   10626
      15   10647   10638      15   10659   10650      15   10671   10662      15
   10683   10674      15   10695   10686      15   10707   10698      15   10719
   10710      15   10731   10722      15   10743   10734      15   10755   10746
      15   10767   10758      15   10779   10770      15   10791   10782      15
   10803   10794      15   10815   10806      15   10827   10818      15   10839
   10830      15   10851   10842      15   10863   10854      15   10875   10866
      15   10887   10878      15   10899   10890      15   10911   10902      15
   10923   10914      15   10935   10926      15   10947   10938      15   10959
   10950      15   10971   10962      15   10983   10974      15   10995   10986
      15   11007   10998      15   11019   11010      15   11031   11022      15
   11043   11034      15   11055   11046      15   11067   11058      15   11079
   11070      15   11091   11082      15   11103   11094      15   11115   11106
      15   11127   11118      15   11139   11130      15   11151   11142      15
   11163   11154      15   11175   11166      15   11187   11178      15   11199
   11190      15   11211   11202      15   11223   11214      15   11235   11226
      15   11247   11238      15   11259   11250      15   11271   11262      15
   11283   11274      15   11295   11286      15   11307   11298      15   11319
   11310      15   11331   11322      15   11343   11334      15   11355   11346
      15   11367   11358      15   11379   11370      15   11391   11382      15
   11403   11394      15   11415   11406      15   11427   11418      15   11439
   11430      15   11451   11442      15   11463   11454      15   11475   11466
      15   11487   11478      15   11499   11490      15   11511   11502      15
   11523   11514      15   11535   11526      15   11547   11538      15   11559
   11550      15   11571   11562      15   11583   11574      15   11595   11586
      15   11607   11598      15   11619   11610      15   11631   11622      15
   11643   11634      15   11655   11646      15   11667   11658      15   11679
   11670      15   11691   11682      15   11703   11694      15   11715   11706
      15   11727   11718      15   11739   11730      15   11751   11742      15
   11763   11754      15   11775   11766      15   11787   11778      15   11799
   11790      15   11811   11802      15   11823   11814      15   11835   11826
      15   11847   11838      15   11859   11850      15   11871   11862      15
   11883   11874      15   11895   11886      15   11907   11898      15   11919
   11910      15   11931   11922      15   11943   11934      15   11955   11946
      15   11967   11958      15   11979   11970      15   11991   11982      15
   12003   11994      15   12015   12006      15   12027   12018      15   12039
   12030      15   12051   12042      15   12063   12054      15   12075   12066
      15   12087   12078      15   12099   12090      15   12111   12102      15
   12123   12114      15   12135   12126      15   12147   12138      15   12159
   12150      15   12171   12162      15   12183   12174      15   12195   12186
      15   12207   12198      15   12219   12210      15   12231   12222      15
   12243   12234      15   12255   12246      15   12267   12258      15   12279
   12270      15   12291   12282      15   12303   12294      15   12315   12306
      15   12327   12318      15   12339   12330      15   12351   12342      15
   12363   12354      15   12375   12366      15   12387   12378      15   12399
   12390      15   12411   12402      15   12423   12414      15   12435   12426
      15   12447   12438      15   12459   12450      15   12471   12462      15
   12483   12474      15   12495   12486      15   12507   12498      15   12519
   12510      15   12531   12522      15   12543   12534      15   12555   12546
      15   12567   12558      15   12579   12570      15   12591   12582      15
   12603   12594      15   12615   12606      15   12627   12618      15   12639
   12630      15   12651   12642      15   12663   12654      15   12675   12666
      15   12687   12678      15   12699   12690      15   12711   12702      15
   12723   12714      15   12735   12726      15   12747   12738      15   12759
   12750      15   12771   12762      15   12783   12774      15   12795   12786
      15   12807   12798      15   12819   12810      15   12831   12822      15
   12843   12834      15   12855   12846      15   12867   12858      15   12879
   12870      15   12891   12882      15   12903   12894      15   12915   12906
      15   12927   12918      15   12939   12930      15   12951   12942      15
   12963   12954      15   12975   12966      15   12987   12978      15   12999
   12990      15   13011   13002      15   13023   13014      15   13035   13026
      15   13047   13038      15   13059   13050      15   13071   13062      15
   13083   13074      15   13095   13086      15   13107   13098      15   13119
   13110      15   13131   13122      15   13143   13134      15   13155   13146
      15   13167   13158      15   13179   13170      15   13191   13182      15
   13203   13194      15   13215   13206      15   13227   13218      15   13239
   13230      15   13251   13242      15   13263   13254      15   13275   13266
      15   13287   13278      15   13299   13290      15   13311   13302      15
   13323   13314      15   13335   13326      15   13347   13338      15   13359
   13350      15   13371   13362      15   13383   13374      15   13395   13386
      15   13407   13398      15   13419   13410      15   13431   13422      15
   13443   13434      15   13455   13446      15   13467   13458      15   13479
   13470      15   13491   13482      15   13503   13494      15   13515   13506
      15   13527   13518      15   13539   13530      15   13551   13542      15
   13563   13554      15   13575   13566      15   13587   13578      15   13599
   13590      15   13611   13602      15   13623   13614      15   13635   13626
      15   13647   13638      15   13659   13650      15   13671   13662      15
   13683   13674      15   13695   13686      15   13707   13698      15   13719
   13710      15   13731   13722      15   13743   13734      15   13755   13746
      15   13767   13758      15   13779   13770      15   13791   13782      15
   13803   13794      15   13815   13806      15   13827   13818      15   13839
   13830      15   13851   13842      15   13863   13854      15   13875   13866
      15   13887   13878      15   13899   13890      15   13911   13902      15
   13923   13914      15   13935   13926      15   13947   13938      15   13959
   13950      15   13971   13962      15   13983   13974      15   13995   13986
      15   14007   13998      15   14019   14010      15   14031   14022      15
   14043   14034      15   14055   14046      15   14067   14058      15   14079
   14070      15   14091   14082      15   14103   14094      15   14115   14106
      15   14127   14118      15   14139   14130      15   14151   14142      15
   14163   14154      15   14175   14166      15   14187   14178      15   14199
   14190      15   14211   14202      15   14223   14214      15   14235   14226
      15   14247   14238      15   14259   14250      15   14271   14262      15
   14283   14274      15   14295   14286      15   14307   14298      15   14319
   14310      15   14331   14322      15   14343   14334      15   14355   14346
      15   14367   14358      15   14379   14370      15   14391   14382      15
   14403   14394      15   14415   14406      15   14427   14418      15   14439
   14430      15   14451   14442      15   14463   14454      15   14475   14466
      15   14487   14478      15   14499   14490      15   14511   14502      15
   14523   14514      15   14535   14526      15   14547   14538      15   14559
   14550      15   14571   14562      15   14583   14574      15   14595   14586
      15   14607   14598      15   14619   14610      15   14631   14622      15
   14643   14634      15   14655   14646      15   14667   14658      15   14679
   14670      15   14691   14682      15   14703   14694      15   14715   14706
      15   14727   14718      15   14739   14730      15   14751   14742      15
   14763   14754      15   14775   14766      15   14787   14778      15   14799
   14790      15   14811   14802      15   14823   14814      15   14835   14826
      15   14847   14838      15   14859   14850      15   14871   14862      15
   14883   14874      15   14895   14886      15   14907   14898      15   14919
   14910      15   14931   14922      15   14943   14934      15   14955   14946
      15   14967   14958      15   14979   14970      15   14991   14982      15
   15003   14994      15   15015   15006      15   15027   15018      15   15039
   15030      15   15051   15042      15   15063   15054      15   15075   15066
      15   15087   15078      15   15099   15090      15   15111   15102      15
   15123   15114      15   15135   15126      15   15147   15138      15   15159
   15150      15   15171   15162      15   15183   15174      15   15195   15186
      15   15207   15198      15   15219   15210      15   15231   15222      15
   15243   15234      15   15255   15246      15   15267   15258      15   15279
   15270      15   15291   15282      15   15303   15294      15   15315   15306
      15   15327   15318      15   15339   15330      15   15351   15342      15
   15363   15354      15   15375   15366      15   15387   15378      15   15399
   15390      15   15411   15402      15   15423   15414      15   15435   15426
      15   15447   15438      15   15459   15450      15   15471   15462      15
   15483   15474      15   15495   15486      15   15507   15498      15   15519
   15510      15   15531   15522      15   15543   15534      15   15555   15546
      15   15567   15558      15   15579   15570      15   15591   15582      15
   15603   15594      15   15615   15606      15   15627   15618      15   15639
   15630      15   15651   15642      15   15663   15654      15   15675   15666
      15   15687   15678      15   15699   15690      15   15711   15702      15
   15723   15714      15   15735   15726      15   15747   15738      15   15759
   15750      15   15771   15762      15   15783   15774      15   15795   15786
      15   15807   15798      15   15819   15810      15   15831   15822      15
   15843   15834      15   15855   15846      15   15867   15858      15   15879
   15870      15   15891   15882      15   15903   15894      15   15915   15906
      15   15927   15918      15   15939   15930      15   15951   15942      15
   15963   15954      15   15975   15966      15   15987   15978      15   15999
   15990      15   16011   16002      15   16023   16014      15   16035   16026
      15   16047   16038      15   16059   16050      15   16071   16062      15
   16083   16074      15   16095   16086      15   16107   16098      15   16119
   16110      15   16131   16122      15   16143   16134      15   16155   16146
      15   16167   16158      15   16179   16170      15   16191   16182      15
   16203   16194      15   16215   16206      15   16227   16218      15   16239
   16230      15   16251   16242      15   16263   16254      15   16275   16266
      15   16287   16278      15   16299   16290      15   16311   16302      15
   16323   16314      15   16335   16326      15   16347   16338      15   16359
   16350      15   16371   16362      15   16383   16374      15   16395   16386
      15   16407   16398      15   16419   16410      15   16431   16422      15
   16443   16434      15   16455   16446      15   16467   16458      15   16479
   16470      15   16491   16482      15   16503   16494      15   16515   16506
      15   16527   16518      15   16539   16530      15   16551   16542      15
   16563   16554      15   16575   16566      15   16587   16578      15   16599
   16590      15   16611   16602      15   16623   16614      15   16635   16626
      15   16647   16638      15   16659   16650      15   16671   16662      15
   16683   16674      15   16695   16686      15   16707   16698      15   16719
   16710      15   16731   16722      15   16743   16734      15   16755   16746
      15   16767   16758      15   16779   16770      15   16791   16782      15
   16803   16794      15   16815   16806      15   16827   16818      15   16839
   16830      15   16851   16842      15   16863   16854      15   16875   16866
      15   16887   16878      15   16899   16890      15   16911   16902      15
   16923   16914      15   16935   16926      15   16947   16938      15   16959
   16950      15   16971   16962      15   16983   16974      15   16995   16986
      15   17007   16998      15   17019   17010      15   17031   17022      15
   17043   17034      15   17055   17046      15   17067   17058      15   17079
   17070      15   17091   17082      15   17103   17094      15   17115   17106
      15   17127   17118      15   17139   17130      15   17151   17142      15
   17163   17154      15   17175   17166      15   17187   17178      15   17199
   17190      15   17211   17202      15   17223   17214      15   17235   17226
      15   17247   17238      15   17259   17250      15   17271   17262      15
   17283   17274      15   17295   17286      15   17307   17298      15   17319
   17310      15   17331   17322      15   17343   17334      15   17355   17346
      15   17367   17358      15   17379   17370      15   17391   17382      15
   17403   17394      15   17415   17406      15   17427   17418      15   17439
   17430      15   17451   17442      15   17463   17454      15   17475   17466
      15   17487   17478      15   17499   17490      15   17511   17502      15
   17523   17514      15   17535   17526      15   17547   17538      15   17559
   17550      15   17571   17562      15   17583   17574      15   17595   17586
      15   17607   17598      15   17619   17610      15   17631   17622      15
   17643   17634      15   17655   17646      15   17667   17658      15   17679
   17670      15   17691   17682      15   17703   17694      15   17715   17706
      15   17727   17718      15   17739   17730      15   17751   17742      15
   17763   17754      15   17775   17766      15   17787   17778      15   17799
   17790      15   17811   17802      15   17823   17814      15   17835   17826
      15   17847   17838      15   17859   17850      15   17871   17862      15
   17883   17874      15   17895   17886      15   17907   17898      15   17919
   17910      15   17931   17922      15   17943   17934      15   17955   17946
      15   17967   17958      15   17979   17970      15   17991   17982      15
   18003   17994      15   18015   18006      15   18027   18018      15   18039
   18030      15   18051   18042      15   18063   18054      15   18075   18066
      15   18087   18078      15   18099   18090      15   18111   18102      15
   18123   18114      15   18135   18126      15   18147   18138      15   18159
   18150      15   18171   18162      15   18183   18174      15   18195   18186
      15   18207   18198      15   18219   18210      15   18231   18222      15
   18243   18234      15   18255   18246      15   18267   18258      15   18279
   18270      15   18291   18282      15   18303   18294      15   18315   18306
      15   18327   18318      15   18339   18330      15   18351   18342      15
   18363   18354      15   18375   18366      15   18387   18378      15   18399
   18390      15   18411   18402      15   18423   18414      15   18435   18426
      15   18447   18438      15   18459   18450      15   18471   18462      15
   18483   18474      15   18495   18486      15   18507   18498      15   18519
   18510      15   18531   18522      15   18543   18534      15   18555   18546
      15   18567   18558      15   18579   18570      15   18591   18582      15
   18603   18594      15   18615   18606      15   18627   18618      15   18639
   18630      15   18651   18642      15   18663   18654      15   18675   18666
      15   18687   18678      15   18699   18690      15   18711   18702      15
   18723   18714      15   18735   18726      15   18747   18738      15   18759
   18750      15   18771   18762      15   18783   18774      15   18795   18786
      15   18807   18798      15   18819   18810      15   18831   18822      15
   18843   18834      15   18855   18846      15   18867   18858      15   18879
   18870      15   18891   18882      15   18903   18894      15   18915   18906
      15   18927   18918      15   18939   18930      15   18951   18942      15
   18963   18954      15   18975   18966      15   18987   18978      15   18999
   18990      15   19011   19002      15   19023   19014      15   19035   19026
      15   19047   19038      15   19059   19050      15   19071   19062      15
   19083   19074      15   19095   19086      15   19107   19098      15   19119
   19110      15   19131   19122      15   19143   19134      15   19155   19146
      15   19167   19158      15   19179   19170      15   19191   19182      15
   19203   19194      15   19215   19206      15   19227   19218      15   19239
   19230      15   19251   19242      15   19263   19254      15   19275   19266
      15   19287   19278      15   19299   19290      15   19311   19302      15
   19323   19314      15   19335   19326      15   19347   19338      15   19359
   19350      15   19371   19362      15   19383   19374      15   19395   19386
      15   19407   19398      15   19419   19410      15   19431   19422      15
   19443   19434      15   19455   19446      15
%FLAG ANGLES_INC_HYDROGEN                                                       
%FORMAT(10I8)                                                                   
      12      18      21       2       9       3      12       4       6       3
       9       5       6       3      12       4       0       3       6       5
       0       3       9       5       0       3      12       4      36      30
      39       5      33      30      36       5      33      30      39       5
      27      24      30      10      27      24      42      11      24      30
      33      12      24      30      36      12      24      30      39      12
      21      18      24      15      18      24      27      16      84      90
      93       2      81      78      84      11      75      69      78      12
      72      69      75       5      72      69      78      12      69      78
      81      10      66      60      69      19      63      60      66       5
      63      60      69      19      60      69      72      19      60      69
      75      19      57      51      60      21      54      51      57      22
      54      51      60      21      51      60      63      19      51      60
      66      19      48      51      54      25      48      51      57      25
      48      78      81      16     114     120     123       2     108     102
     111       5     105     102     108       5     105     102     111       5
      99      96     102      10      99      96     114      11      96     102
     105      12      96     102     108      12      96     102     111      12
      93      90      96      15      90      96      99      16     132     126
     135      22     129     126     132      22     129     126     135      22
     123     120     126      27     120     126     129      25     120     126
     132      25     120     126     135      25
%FLAG ANGLES_WITHOUT_HYDROGEN                                                   
%FORMAT(10I8)                                                                   
      15      12      18       1      12      18      24       3       3      12
      15       6       3      12      18       7      45      42      48       1
      42      48      51       8      42      48      78       3      30      24
      42       9      24      42      45      13      24      42      48      14
      18      24      30      17      18      24      42      18      87      84
      90       1      84      90      96       3      78      84      87      13
      78      84      90      14      69      78      84       9      60      69
      78      20      51      48      78      23      51      60      69      24
      48      51      60      26      48      78      69      17      48      78
      84      18     117     114     120       1     114     120     126       8
     102      96     114       9      96     114     117      13      96     114
     120      14      90      96     102      17      90      96     114      18
%FLAG DIHEDRALS_INC_HYDROGEN                                                    
%FORMAT(10I8)                                                                   
      15      12      18      21       1      15      12     -18      21       2
      12      18      24      27       3       9       3      12      15       7
       9       3     -12      15       3       9       3     -12      15       8
       9       3      12      18       3       6       3      12      15       7
       6       3     -12      15       3       6       3     -12      15       8
       6       3      12      18       3       3      12      18      21       2
       0       3      12      15       7       0       3     -12      15       3
       0       3     -12      15       8       0       3      12      18       3
      42      48      51      54       3      42      48      51      57       3
      42      48      78      81       3      39      30      24      42      11
      36      30      24      42      11      33      30      24      42      11
      27      24      30      33      11      27      24      30      36      11
      27      24      30      39      11      27      24      42      45       4
      27      24     -42      45       3      27      24     -42      45      12
      27      24      42      48       3      21      18      24      27       3
      21      18      24      30       3      21      18      24      42       3
      18      24      30      33      11      18      24      30      36      11
      18      24      30      39      11      87      84      90      93       1
      87      84     -90      93       2      84      90      96      99       3
      81      78      84      87       4      81      78     -84      87       3
      81      78     -84      87      12      81      78      84      90       3
      78      84      90      93       2      75      69      78      81      11
      75      69      78      84      11      72      69      78      81      11
      72      69      78      84      11      66      60      69      72      15
      66      60      69      75      15      66      60      69      78      16
      63      60      69      72      15      63      60      69      75      15
      63      60      69      78      16      60      69      78      81      11
      57      51      48      78       3      57      51      60      63      11
      57      51      60      66      11      57      51      60      69      11
      54      51      48      78       3      54      51      60      63      11
      54      51      60      66      11      54      51      60      69      11
      51      48      78      81       3      51      60      69      72      16
      51      60      69      75      16      48      51      60      63      11
      48      51      60      66      11      48      78      69      72      11
      48      78      69      75      11     117     114     120     123       1
     117     114    -120     123       2     114     120     126     129       3
     114     120     126     132       3     114     120     126     135       3
     111     102      96     114      11     108     102      96     114      11
     105     102      96     114      11      99      96     102     105      11
      99      96     102     108      11      99      96     102     111      11
      99      96     114     117       4      99      96    -114     117       3
      99      96    -114     117      12      99      96     114     120       3
      96     114     120     123       2      93      90      96      99       3
      93      90      96     102       3      93      90      96     114       3
      90      96     102     105      11      90      96     102     108      11
      90      96     102     111      11     123     120     126     129       3
     123     120     126     132       3     123     120     126     135       3
      12      24     -18     -21      21      84      93     -90     -96      21
     114     126    -120    -123      21
%FLAG DIHEDRALS_WITHOUT_HYDROGEN                                                
%FORMAT(10I8)                                                                   
      15      12      18      24       2      12      18      24      30       4
      12      18     -24      30       3      12      18     -24      30       5
      12      18     -24      30       6      12      18      24      42       4
      12      18     -24      42       3      12      18     -24      42       5
      12      18     -24      42       6       3      12      18      24       2
      45      42      48      51       2      45      42      48      78       2
      42      48      51      60       1      42      48     -51      60       9
      42      48     -51      60      10      42      48     -51      60       6
      42      48      78      69       4      42      48     -78      69       3
      42      48     -78      69       5      42      48     -78      69       6
      42      48      78      84       4      42      48     -78      84       3
      42      48     -78      84       5      42      48     -78      84       6
      30      24      42      45       3      30      24      42      48       4
      30      24     -42      48       3      30      24     -42      48       5
      30      24     -42      48       6      24      42      48      51       2
      24      42      48      78       2      18      24      42      45       3
      18      24      42      48      13      18      24     -42      48      14
      18      24     -42      48      12      18      24     -42      48       6
      87      84      90      96       2      84      90      96     102       4
      84      90     -96     102       3      84      90     -96     102       5
      84      90     -96     102       6      84      90      96     114       4
      84      90     -96     114       3      84      90     -96     114       5
      84      90     -96     114       6      78      84      90      96       2
      69      78      84      87       3      69      78      84      90       4
      69      78     -84      90       3      69      78     -84      90       5
      69      78     -84      90       6      60      51     -48      78       3
      60      69      78      84      11      51      48     -78      69       3
      51      48      78      84       3      51      60     -69      78      17
      51      60     -69      78      18      51      60     -69      78      19
      48      51     -60      69      11      48      78     -69      60      11
      48      78      84      87       3      48      78      84      90      13
      48      78     -84      90      14      48      78     -84      90      12
      48      78     -84      90       6     117     114     120     126       2
     102      96     114     117       3     102      96     114     120       4
     102      96    -114     120       3     102      96    -114     120       5
     102      96    -114     120       6      96     114     120     126       2
      90      96     114     117       3      90      96     114     120      13
      90      96    -114     120      14      90      96    -114     120      12
      90      96    -114     120       6       3      18     -12     -15      20
      24      48     -42     -45      20      78      90     -84     -87      20
      42      51     -48     -78      22      96     120    -114    -117      20
%FLAG EXCLUDED_ATOMS_LIST                                                       
%FORMAT(10I8)                                                                   
       2       3       4       5       6       7       3       4       5       6
       7       8       9       4       5       6       7       5       6       7
       6       7       8       9      10      11      15       7       8       9
       8       9      10      11      12      13      14      15      16      17
       9      10      11      15      10      11      12      13      14      15
      16      17      18      27      11      12      13      14      15      16
      17      12      13      14      15      16      17      13      14      15
      14      15      15      16      17      18      19      20      21      24
      27      28      29      17      18      27      18      19      20      21
      22      23      24      25      26      27      28      29      30      31
      19      20      21      22      23      24      25      26      27      28
      29      20      21      22      23      24      27      21      22      23
      24      27      22      23      24      25      26      27      28      29
      23      24      25      26      27      24      25      26      27      25
      26      27      28      29      30      31      26      27      28      29
      27      28      29      28      29      30      31      32      33      29
      30      31      30      31      32      33      34      35      39      31
      32      33      32      33      34      35      36      37      38      39
      40      41      33      34      35      39      34      35      36      37
      38      39      40      41      42      43      35      36      37      38
      39      40      41      36      37      38      39      40      41      37
      38      39      38      39      39      40      41      42      43      44
      45      46      41      42      43      42      43      44      45      46
      43      44      45      46      44      45      46      45      46      46
       0      48      49      50      49      50      50       0      52      53
      54      53      54      54       0      56      57      58      57      58
      58       0      60      61      62      61      62      62       0      64
      65      66      65      66      66       0      68      69      70      69
      70      70       0      72      73      74      73      74      74       0
      76      77      78      77      78      78       0      80      81      82
      81      82      82       0      84      85      86      85      86      86
       0      88      89      90      89      90      90       0      92      93
      94      93      94      94       0      96      97      98      97      98
      98       0     100     101     102     101     102     102       0     104
     105     106     105     106     106       0     108     109     110     109
     110     110       0     112     113     114     113     114     114       0
     116     117     118     117     118     118       0     120     121     122
     121     122     122       0     124     125     126     125     126     126
       0     128     129     130     129     130     130       0     132     133
     134     133     134     134       0     136     137     138     137     138
     138       0     140     141     142     141     142     142       0     144
     145     146     145     146     146       0     148     149     150     149
     150     150       0     152     153     154     153     154     154       0
     156     157     158     157     158     158       0     160     161     162
     161     162     162       0     164     165     166     165     166     166
       0     168     169     170     169     170     170       0     172     173
     174     173     174     174       0     176     177     178     177     178
     178       0     180     181     182     181     182     182       0     184
     185     186     185     186     186       0     188     189     190     189
     190     190       0     192     193     194     193     194     194       0
     196     197     198     197     198     198       0     200     201     202
     201     202     202       0     204     205     206     205     206     206
       0     208     209     210     209     210     210       0     212     213
     214     213     214     214       0     216     217     218     217     218
     218       0     220     221     222     221     222     222       0     224
     225     226     225     226     226       0     228     229     230     229
     230     230       0     232     233     234     233     234     234       0
     236     237     238     237     238     238       0     240     241     242
     241     242     242       0     244     245     246     245     246     246
       0     248     249     250     249     250     250       0     252     253
     254     253     254     254       0     256     257     258     257     258
     258       0     260     261     262     261     262     262       0     264
     265     266     265     266     266       0     268     269     270     269
     270     270       0     272     273     274     273     274     274       0
     276     277     278     277     278     278       0     280     281     282
     281     282     282       0     284     285     286     285     286     286
       0     288     289     290     289     290     290       0     292     293
     294     293     294     294       0     296     297     298     297     298
     298       0     300     301     302     301     302     302       0     304
     305     306     305     306     306       0     308     309     310     309
     310     310       0     312     313     314     313     314     314       0
     316     317     318     317     318     318       0     320     321     322
     321     322     322       0     324     325     326     325     326     326
       0     328     329     330     329     330     330       0     332     333
     334     333     334     334       0     336     337     338     337     338
     338       0     340     341     342     341     342     342       0     344
     345     346     345     346     346       0     348     349     350     349
     350     350       0     352     353     354     353     354     354       0
     356     357     358     357     358     358       0     360     361     362
     361     362     362       0     364     365     366     365     366     366
       0     368     369     370     369     370     370       0     372     373
     374     373     374     374       0     376     377     378     377     378
     378       0     380     381     382     381     382     382       0     384
     385     386     385     386     386       0     388     389     390     389
     390     390       0     392     393     394     393     394     394       0
     396     397     398     397     398     398       0     400     401     402
     401     402     402       0     404     405     406     405     406     406
       0     408     409     410     409     410     410       0     412     413
     414     413     414     414       0     416     417     418     417     418
     418       0     420     421     422     421     422     422       0     424
     425     426     425     426     426       0     428     429     430     429
     430     430       0     432     433     434     433     434     434       0
     436     437     438     437     438     438       0     440     441     442
     441     442     442       0     444     445     446     445     446     446
       0     448     449     450     449     450     450       0     452     453
     454     453     454     454       0     456     457     458     457     458
     458       0     460     461     462     461     462     462       0     464
     465     466     465     466     466       0     468     469     470     469
     470     470       0     472     473     474     473     474     474       0
     476     477     478     477     478     478       0     480     481     482
     481     482     482       0     484     485     486     485     486     486
       0     488     489     490     489     490     490       0     492     493
     494     493     494     494       0     496     497     498     497     498
     498       0     500     501     502     501     502     502       0     504
     505     506     505     506     506       0     508     509     510     509
     510     510       0     512     513     514     513     514     514       0
     516     517     518     517     518     518       0     520     521     522
     521     522     522       0     524     525     526     525     526     526
       0     528     529     530     529     530     530       0     532     533
     534     533     534     534       0     536     537     538     537     538
     538       0     540     541     542     541     542     542       0     544
     545     546     545     546     546       0     548     549     550     549
     550     550       0     552     553     554     553     554     554       0
     556     557     558     557     558     558       0     560     561     562
     561     562     562       0     564     565     566     565     566     566
       0     568     569     570     569     570     570       0     572     573
     574     573     574     574       0     576     577     578     577     578
     578       0     580     581     582     581     582     582       0     584
     585     586     585     586     586       0     588     589     590     589
     590     590       0     592     593     594     593     594     594       0
     596     597     598     597     598     598       0     600     601     602
     601     602     602       0     604     605     606     605     606     606
       0     608     609     610     609     610     610       0     612     613
     614     613     614     614       0     616     617     618     617     618
     618       0     620     621     622     621     622     622       0     624
     625     626     625     626     626       0     628     629     630     629
     630     630       0     632     633     634     633     634     634       0
     636     637     638     637     638     638       0     640     641     642
     641     642     642       0     644     645     646     645     646     646
       0     648     649     650     649     650     650       0     652     653
     654     653     654     654       0     656     657     658     657     658
     658       0     660     661     662     661     662     662       0     664
     665     666     665     666     666       0     668     669     670     669
     670     670       0     672     673     674     673     674     674       0
     676     677     678     677     678     678       0     680     681     682
     681     682     682       0     684     685     686     685     686     686
       0     688     689     690     689     690     690       0     692     693
     694     693     694     694       0     696     697     698     697     698
     698       0     700     701     702     701     702     702       0     704
     705     706     705     706     706       0     708     709     710     709
     710     710       0     712     713     714     713     714     714       0
     716     717     718     717     718     718       0     720     721     722
     721     722     722       0     724     725     726     725     726     726
       0     728     729     730     729     730     730       0     732     733
     734     733     734     734       0     736     737     738     737     738
     738       0     740     741     742     741     742     742       0     744
     745     746     745     746     746       0     748     749     750     749
     750     750       0     752     753     754     753     754     754       0
     756     757     758     757     758     758       0     760     761     762
     761     762     762       0     764     765     766     765     766     766
       0     768     769     770     769     770     770       0     772     773
     774     773     774     774       0     776     777     778     777     778
     778       0     780     781     782     781     782     782       0     784
     785     786     785     786     786       0     788     789     790     789
     790     790       0     792     793     794     793     794     794       0
     796     797     798     797     798     798       0     800     801     802
     801     802     802       0     804     805     806     805     806     806
       0     808     809     810     809     810     810       0     812     813
     814     813     814     814       0     816     817     818     817     818
     818       0     820     821     822     821     822     822       0     824
     825     826     825     826     826       0     828     829     830     829
     830     830       0     832     833     834     833     834     834       0
     836     837     838     837     838     838       0     840     841     842
     841     842     842       0     844     845     846     845     846     846
       0     848     849     850     849     850     850       0     852     853
     854     853     854     854       0     856     857     858     857     858
     858       0     860     861     862     861     862     862       0     864
     865     866     865     866     866       0     868     869     870     869
     870     870       0     872     873     874     873     874     874       0
     876     877     878     877     878     878       0     880     881     882
     881     882     882       0     884     885     886     885     886     886
       0     888     889     890     889     890     890       0     892     893
     894     893     894     894       0     896     897     898     897     898
     898       0     900     901     902     901     902     902       0     904
     905     906     905     906     906       0     908     909     910     909
     910     910       0     912     913     914     913     914     914       0
     916     917     918     917     918     918       0     920     921     922
     921     922     922       0     924     925     926     925     926     926
       0     928     929     930     929     930     930       0     932     933
     934     933     934     934       0     936     937     938     937     938
     938       0     940     941     942     941     942     942       0     944
     945     946     945     946     946       0     948     949     950     949
     950     950       0     952     953     954     953     954     954       0
     956     957     958     957     958     958       0     960     961     962
     961     962     962       0     964     965     966     965     966     966
       0     968     969     970     969     970     970       0     972     973
     974     973     974     974       0     976     977     978     977     978
     978       0     980     981     982     981     982     982       0     984
     985     986     985     986     986       0     988     989     990     989
     990     990       0     992     993     994     993     994     994       0
     996     997     998     997     998     998       0    1000    1001    1002
    1001    1002    1002       0    1004    1005    1006    1005    1006    1006
       0    1008    1009    1010    1009    1010    1010       0    1012    1013
    1014    1013    1014    1014       0    1016    1017    1018    1017    1018
    1018       0    1020    1021    1022    1021    1022    1022       0    1024
    1025    1026    1025    1026    1026       0    1028    1029    1030    1029
    1030    1030       0    1032    1033    1034    1033    1034    1034       0
    1036    1037    1038    1037    1038    1038       0    1040    1041    1042
    1041    1042    1042       0    1044    1045    1046    1045    1046    1046
       0    1048    1049    1050    1049    1050    1050       0    1052    1053
    1054    1053    1054    1054       0    1056    1057    1058    1057    1058
    1058       0    1060    1061    1062    1061    1062    1062       0    1064
    1065    1066    1065    1066    1066       0    1068    1069    1070    1069
    1070    1070       0    1072    1073    1074    1073    1074    1074       0
    1076    1077    1078    1077    1078    1078       0    1080    1081    1082
    1081    1082    1082       0    1084    1085    1086    1085    1086    1086
       0    1088    1089    1090    1089    1090    1090       0    1092    1093
    1094    1093    1094    1094       0    1096    1097    1098    1097    1098
    1098       0    1100    1101    1102    1101    1102    1102       0    1104
    1105    1106    1105    1106    1106       0    1108    1109    1110    1109
    1110    1110       0    1112    1113    1114    1113    1114    1114       0
    1116    1117    1118    1117    1118    1118       0    1120    1121    1122
    1121    1122    1122       0    1124    1125    1126    1125    1126    1126
       0    1128    1129    1130    1129    1130    1130       0    1132    1133
    1134    1133    1134    1134       0    1136    1137    1138    1137    1138
    1138       0    1140    1141    1142    1141    1142    1142       0    1144
    1145    1146    1145    1146    1146       0    1148    1149    1150    1149
    1150    1150       0    1152    1153    1154    1153    1154    1154       0
    1156    1157    1158    1157    1158    1158       0    1160    1161    1162
    1161    1162    1162       0    1164    1165    1166    1165    1166    1166
       0    1168    1169    1170    1169    1170    1170       0    1172    1173
    1174    1173    1174    1174       0    1176    1177    1178    1177    1178
    1178       0    1180    1181    1182    1181    1182    1182       0    1184
    1185    1186    1185    1186    1186       0    1188    1189    1190    1189
    1190    1190       0    1192    1193    1194    1193    1194    1194       0
    1196    1197    1198    1197    1198    1198       0    1200    1201    1202
    1201    1202    1202       0    1204    1205    1206    1205    1206    1206
       0    1208    1209    1210    1209    1210    1210       0    1212    1213
    1214    1213    1214    1214       0    1216    1217    1218    1217    1218
    1218       0    1220    1221    1222    1221    1222    1222       0    1224
    1225    1226    1225    1226    1226       0    1228    1229    1230    1229
    1230    1230       0    1232    1233    1234    1233    1234    1234       0
    1236    1237    1238    1237    1238    1238       0    1240    1241    1242
    1241    1242    1242       0    1244    1245    1246    1245    1246    1246
       0    1248    1249    1250    1249    1250    1250       0    1252    1253
    1254    1253    1254    1254       0    1256    1257    1258    1257    1258
    1258       0    1260    1261    1262    1261    1262    1262       0    1264
    1265    1266    1265    1266    1266       0    1268    1269    1270    1269
    1270    1270       0    1272    1273    1274    1273    1274    1274       0
    1276    1277    1278    1277    1278    1278       0    1280    1281    1282
    1281    1282    1282       0    1284    1285    1286    1285    1286    1286
       0    1288    1289    1290    1289    1290    1290       0    1292    1293
    1294    1293    1294    1294       0    1296    1297    1298    1297    1298
    1298       0    1300    1301    1302    1301    1302    1302       0    1304
    1305    1306    1305    1306    1306       0    1308    1309    1310    1309
    1310    1310       0    1312    1313    1314    1313    1314    1314       0
    1316    1317    1318    1317    1318    1318       0    1320    1321    1322
    1321    1322    1322       0    1324    1325    1326    1325    1326    1326
       0    1328    1329    1330    1329    1330    1330       0    1332    1333
    1334    1333    1334    1334       0    1336    1337    1338    1337    1338
    1338       0    1340    1341    1342    1341    1342    1342       0    1344
    1345    1346    1345    1346    1346       0    1348    1349    1350    1349
    1350    1350       0    1352    1353    1354    1353    1354    1354       0
    1356    1357    1358    1357    1358    1358       0    1360    1361    1362
    1361    1362    1362       0    1364    1365    1366    1365    1366    1366
       0    1368    1369    1370    1369    1370    1370       0    1372    1373
    1374    1373    1374    1374       0    1376    1377    1378    1377    1378
    1378       0    1380    1381    1382    1381    1382    1382       0    1384
    1385    1386    1385    1386    1386       0    1388    1389    1390    1389
    1390    1390       0    1392    1393    1394    1393    1394    1394       0
    1396    1397    1398    1397    1398    1398       0    1400    1401    1402
    1401    1402    1402       0    1404    1405    1406    1405    1406    1406
       0    1408    1409    1410    1409    1410    1410       0    1412    1413
    1414    1413    1414    1414       0    1416    1417    1418    1417    1418
    1418       0    1420    1421    1422    1421    1422    1422       0    1424
    1425    1426    1425    1426    1426       0    1428    1429    1430    1429
    1430    1430       0    1432    1433    1434    1433    1434    1434       0
    1436    1437    1438    1437    1438    1438       0    1440    1441    1442
    1441    1442    1442       0    1444    1445    1446    1445    1446    1446
       0    1448    1449    1450    1449    1450    1450       0    1452    1453
    1454    1453    1454    1454       0    1456    1457    1458    1457    1458
    1458       0    1460    1461    1462    1461    1462    1462       0    1464
    1465    1466    1465    1466    1466       0    1468    1469    1470    1469
    1470    1470       0    1472    1473    1474    1473    1474    1474       0
    1476    1477    1478    1477    1478    1478       0    1480    1481    1482
    1481    1482    1482       0    1484    1485    1486    1485    1486    1486
       0    1488    1489    1490    1489    1490    1490       0    1492    1493
    1494    1493    1494    1494       0    1496    1497    1498    1497    1498
    1498       0    1500    1501    1502    1501    1502    1502       0    1504
    1505    1506    1505    1506    1506       0    1508    1509    1510    1509
    1510    1510       0    1512    1513    1514    1513    1514    1514       0
    1516    1517    1518    1517    1518    1518       0    1520    1521    1522
    1521    1522    1522       0    1524    1525    1526    1525    1526    1526
       0    1528    1529    1530    1529    1530    1530       0    1532    1533
    1534    1533    1534    1534       0    1536    1537    1538    1537    1538
    1538       0    1540    1541    1542    1541    1542    1542       0    1544
    1545    1546    1545    1546    1546       0    1548    1549    1550    1549
    1550    1550       0    1552    1553    1554    1553    1554    1554       0
    1556    1557    1558    1557    1558    1558       0    1560    1561    1562
    1561    1562    1562       0    1564    1565    1566    1565    1566    1566
       0    1568    1569    1570    1569    1570    1570       0    1572    1573
    1574    1573    1574    1574       0    1576    1577    1578    1577    1578
    1578       0    1580    1581    1582    1581    1582    1582       0    1584
    1585    1586    1585    1586    1586       0    1588    1589    1590    1589
    1590    1590       0    1592    1593    1594    1593    1594    1594       0
    1596    1597    1598    1597    1598    1598       0    1600    1601    1602
    1601    1602    1602       0    1604    1605    1606    1605    1606    1606
       0    1608    1609    1610    1609    1610    1610       0    1612    1613
    1614    1613    1614    1614       0    1616    1617    1618    1617    1618
    1618       0    1620    1621    1622    1621    1622    1622       0    1624
    1625    1626    1625    1626    1626       0    1628    1629    1630    1629
    1630    1630       0    1632    1633    1634    1633    1634    1634       0
    1636    1637    1638    1637    1638    1638       0    1640    1641    1642
    1641    1642    1642       0    1644    1645    1646    1645    1646    1646
       0    1648    1649    1650    1649    1650    1650       0    1652    1653
    1654    1653    1654    1654       0    1656    1657    1658    1657    1658
    1658       0    1660    1661    1662    1661    1662    1662       0    1664
    1665    1666    1665    1666    1666       0    1668    1669    1670    1669
    1670    1670       0    1672    1673    1674    1673    1674    1674       0
    1676    1677    1678    1677    1678    1678       0    1680    1681    1682
    1681    1682    1682       0    1684    1685    1686    1685    1686    1686
       0    1688    1689    1690    1689    1690    1690       0    1692    1693
    1694    1693    1694    1694       0    1696    1697    1698    1697    1698
    1698       0    1700    1701    1702    1701    1702    1702       0    1704
    1705    1706    1705    1706    1706       0    1708    1709    1710    1709
    1710    1710       0    1712    1713    1714    1713    1714    1714       0
    1716    1717    1718    1717    1718    1718       0    1720    1721    1722
    1721    1722    1722       0    1724    1725    1726    1725    1726    1726
       0    1728    1729    1730    1729    1730    1730       0    1732    1733
    1734    1733    1734    1734       0    1736    1737    1738    1737    1738
    1738       0    1740    1741    1742    1741    1742    1742       0    1744
    1745    1746    1745    1746    1746       0    1748    1749    1750    1749
    1750    1750       0    1752    1753    1754    1753    1754    1754       0
    1756    1757    1758    1757    1758    1758       0    1760    1761    1762
    1761    1762    1762       0    1764    1765    1766    1765    1766    1766
       0    1768    1769    1770    1769    1770    1770       0    1772    1773
    1774    1773    1774    1774       0    1776    1777    1778    1777    1778
    1778       0    1780    1781    1782    1781    1782    1782       0    1784
    1785    1786    1785    1786    1786       0    1788    1789    1790    1789
    1790    1790       0    1792    1793    1794    1793    1794    1794       0
    1796    1797    1798    1797    1798    1798       0    1800    1801    1802
    1801    1802    1802       0    1804    1805    1806    1805    1806    1806
       0    1808    1809    1810    1809    1810    1810       0    1812    1813
    1814    1813    1814    1814       0    1816    1817    1818    1817    1818
    1818       0    1820    1821    1822    1821    1822    1822       0    1824
    1825    1826    1825    1826    1826       0    1828    1829    1830    1829
    1830    1830       0    1832    1833    1834    1833    1834    1834       0
    1836    1837    1838    1837    1838    1838       0    1840    1841    1842
    1841    1842    1842       0    1844    1845    1846    1845    1846    1846
       0    1848    1849    1850    1849    1850    1850       0    1852    1853
    1854    1853    1854    1854       0    1856    1857    1858    1857    1858
    1858       0    1860    1861    1862    1861    1862    1862       0    1864
    1865    1866    1865    1866    1866       0    1868    1869    1870    1869
    1870    1870       0    1872    1873    1874    1873    1874    1874       0
    1876    1877    1878    1877    1878    1878       0    1880    1881    1882
    1881    1882    1882       0    1884    1885    1886    1885    1886    1886
       0    1888    1889    1890    1889    1890    1890       0    1892    1893
    1894    1893    1894    1894       0    1896    1897    1898    1897    1898
    1898       0    1900    1901    1902    1901    1902    1902       0    1904
    1905    1906    1905    1906    1906       0    1908    1909    1910    1909
    1910    1910       0    1912    1913    1914    1913    1914    1914       0
    1916    1917    1918    1917    1918    1918       0    1920    1921    1922
    1921    1922    1922       0    1924    1925    1926    1925    1926    1926
       0    1928    1929    1930    1929    1930    1930       0    1932    1933
    1934    1933    1934    1934       0    1936    1937    1938    1937    1938
    1938       0    1940    1941    1942    1941    1942    1942       0    1944
    1945    1946    1945    1946    1946       0    1948    1949    1950    1949
    1950    1950       0    1952    1953    1954    1953    1954    1954       0
    1956    1957    1958    1957    1958    1958       0    1960    1961    1962
    1961    1962    1962       0    1964    1965    1966    1965    1966    1966
       0    1968    1969    1970    1969    1970    1970       0    1972    1973
    1974    1973    1974    1974       0    1976    1977    1978    1977    1978
    1978       0    1980    1981    1982    1981    1982    1982       0    1984
    1985    1986    1985    1986    1986       0    1988    1989    1990    1989
    1990    1990       0    1992    1993    1994    1993    1994    1994       0
    1996    1997    1998    1997    1998    1998       0    2000    2001    2002
    2001    2002    2002       0    2004    2005    2006    2005    2006    2006
       0    2008    2009    2010    2009    2010    2010       0    2012    2013
    2014    2013    2014    2014       0    2016    2017    2018    2017    2018
    2018       0    2020    2021    2022    2021    2022    2022       0    2024
    2025    2026    2025    2026    2026       0    2028    2029    2030    2029
    2030    2030       0    2032    2033    2034    2033    2034    2034       0
    2036    2037    2038    2037    2038    2038       0    2040    2041    2042
    2041    2042    2042       0    2044    2045    2046    2045    2046    2046
       0    2048    2049    2050    2049    2050    2050       0    2052    2053
    2054    2053    2054    2054       0    2056    2057    2058    2057    2058
    2058       0    2060    2061    2062    2061    2062    2062       0    2064
    2065    2066    2065    2066    2066       0    2068    2069    2070    2069
    2070    2070       0    2072    2073    2074    2073    2074    2074       0
    2076    2077    2078    2077    2078    2078       0    2080    2081    2082
    2081    2082    2082       0    2084    2085    2086    2085    2086    2086
       0    2088    2089    2090    2089    2090    2090       0    2092    2093
    2094    2093    2094    2094       0    2096    2097    2098    2097    2098
    2098       0    2100    2101    2102    2101    2102    2102       0    2104
    2105    2106    2105    2106    2106       0    2108    2109    2110    2109
    2110    2110       0    2112    2113    2114    2113    2114    2114       0
    2116    2117    2118    2117    2118    2118       0    2120    2121    2122
    2121    2122    2122       0    2124    2125    2126    2125    2126    2126
       0    2128    2129    2130    2129    2130    2130       0    2132    2133
    2134    2133    2134    2134       0    2136    2137    2138    2137    2138
    2138       0    2140    2141    2142    2141    2142    2142       0    2144
    2145    2146    2145    2146    2146       0    2148    2149    2150    2149
    2150    2150       0    2152    2153    2154    2153    2154    2154       0
    2156    2157    2158    2157    2158    2158       0    2160    2161    2162
    2161    2162    2162       0    2164    2165    2166    2165    2166    2166
       0    2168    2169    2170    2169    2170    2170       0    2172    2173
    2174    2173    2174    2174       0    2176    2177    2178    2177    2178
    2178       0    2180    2181    2182    2181    2182    2182       0    2184
    2185    2186    2185    2186    2186       0    2188    2189    2190    2189
    2190    2190       0    2192    2193    2194    2193    2194    2194       0
    2196    2197    2198    2197    2198    2198       0    2200    2201    2202
    2201    2202    2202       0    2204    2205    2206    2205    2206    2206
       0    2208    2209    2210    2209    2210    2210       0    2212    2213
    2214    2213    2214    2214       0    2216    2217    2218    2217    2218
    2218       0    2220    2221    2222    2221    2222    2222       0    2224
    2225    2226    2225    2226    2226       0    2228    2229    2230    2229
    2230    2230       0    2232    2233    2234    2233    2234    2234       0
    2236    2237    2238    2237    2238    2238       0    2240    2241    2242
    2241    2242    2242       0    2244    2245    2246    2245    2246    2246
       0    2248    2249    2250    2249    2250    2250       0    2252    2253
    2254    2253    2254    2254       0    2256    2257    2258    2257    2258
    2258       0    2260    2261    2262    2261    2262    2262       0    2264
    2265    2266    2265    2266    2266       0    2268    2269    2270    2269
    2270    2270       0    2272    2273    2274    2273    2274    2274       0
    2276    2277    2278    2277    2278    2278       0    2280    2281    2282
    2281    2282    2282       0    2284    2285    2286    2285    2286    2286
       0    2288    2289    2290    2289    2290    2290       0    2292    2293
    2294    2293    2294    2294       0    2296    2297    2298    2297    2298
    2298       0    2300    2301    2302    2301    2302    2302       0    2304
    2305    2306    2305    2306    2306       0    2308    2309    2310    2309
    2310    2310       0    2312    2313    2314    2313    2314    2314       0
    2316    2317    2318    2317    2318    2318       0    2320    2321    2322
    2321    2322    2322       0    2324    2325    2326    2325    2326    2326
       0    2328    2329    2330    2329    2330    2330       0    2332    2333
    2334    2333    2334    2334       0    2336    2337    2338    2337    2338
    2338       0    2340    2341    2342    2341    2342    2342       0    2344
    2345    2346    2345    2346    2346       0    2348    2349    2350    2349
    2350    2350       0    2352    2353    2354    2353    2354    2354       0
    2356    2357    2358    2357    2358    2358       0    2360    2361    2362
    2361    2362    2362       0    2364    2365    2366    2365    2366    2366
       0    2368    2369    2370    2369    2370    2370       0    2372    2373
    2374    2373    2374    2374       0    2376    2377    2378    2377    2378
    2378       0    2380    2381    2382    2381    2382    2382       0    2384
    2385    2386    2385    2386    2386       0    2388    2389    2390    2389
    2390    2390       0    2392    2393    2394    2393    2394    2394       0
    2396    2397    2398    2397    2398    2398       0    2400    2401    2402
    2401    2402    2402       0    2404    2405    2406    2405    2406    2406
       0    2408    2409    2410    2409    2410    2410       0    2412    2413
    2414    2413    2414    2414       0    2416    2417    2418    2417    2418
    2418       0    2420    2421    2422    2421    2422    2422       0    2424
    2425    2426    2425    2426    2426       0    2428    2429    2430    2429
    2430    2430       0    2432    2433    2434    2433    2434    2434       0
    2436    2437    2438    2437    2438    2438       0    2440    2441    2442
    2441    2442    2442       0    2444    2445    2446    2445    2446    2446
       0    2448    2449    2450    2449    2450    2450       0    2452    2453
    2454    2453    2454    2454       0    2456    2457    2458    2457    2458
    2458       0    2460    2461    2462    2461    2462    2462       0    2464
    2465    2466    2465    2466    2466       0    2468    2469    2470    2469
    2470    2470       0    2472    2473    2474    2473    2474    2474       0
    2476    2477    2478    2477    2478    2478       0    2480    2481    2482
    2481    2482    2482       0    2484    2485    2486    2485    2486    2486
       0    2488    2489    2490    2489    2490    2490       0    2492    2493
    2494    2493    2494    2494       0    2496    2497    2498    2497    2498
    2498       0    2500    2501    2502    2501    2502    2502       0    2504
    2505    2506    2505    2506    2506       0    2508    2509    2510    2509
    2510    2510       0    2512    2513    2514    2513    2514    2514       0
    2516    2517    2518    2517    2518    2518       0    2520    2521    2522
    2521    2522    2522       0    2524    2525    2526    2525    2526    2526
       0    2528    2529    2530    2529    2530    2530       0    2532    2533
    2534    2533    2534    2534       0    2536    2537    2538    2537    2538
    2538       0    2540    2541    2542    2541    2542    2542       0    2544
    2545    2546    2545    2546    2546       0    2548    2549    2550    2549
    2550    2550       0    2552    2553    2554    2553    2554    2554       0
    2556    2557    2558    2557    2558    2558       0    2560    2561    2562
    2561    2562    2562       0    2564    2565    2566    2565    2566    2566
       0    2568    2569    2570    2569    2570    2570       0    2572    2573
    2574    2573    2574    2574       0    2576    2577    2578    2577    2578
    2578       0    2580    2581    2582    2581    2582    2582       0    2584
    2585    2586    2585    2586    2586       0    2588    2589    2590    2589
    2590    2590       0    2592    2593    2594    2593    2594    2594       0
    2596    2597    2598    2597    2598    2598       0    2600    2601    2602
    2601    2602    2602       0    2604    2605    2606    2605    2606    2606
       0    2608    2609    2610    2609    2610    2610       0    2612    2613
    2614    2613    2614    2614       0    2616    2617    2618    2617    2618
    2618       0    2620    2621    2622    2621    2622    2622       0    2624
    2625    2626    2625    2626    2626       0    2628    2629    2630    2629
    2630    2630       0    2632    2633    2634    2633    2634    2634       0
    2636    2637    2638    2637    2638    2638       0    2640    2641    2642
    2641    2642    2642       0    2644    2645    2646    2645    2646    2646
       0    2648    2649    2650    2649    2650    2650       0    2652    2653
    2654    2653    2654    2654       0    2656    2657    2658    2657    2658
    2658       0    2660    2661    2662    2661    2662    2662       0    2664
    2665    2666    2665    2666    2666       0    2668    2669    2670    2669
    2670    2670       0    2672    2673    2674    2673    2674    2674       0
    2676    2677    2678    2677    2678    2678       0    2680    2681    2682
    2681    2682    2682       0    2684    2685    2686    2685    2686    2686
       0    2688    2689    2690    2689    2690    2690       0    2692    2693
    2694    2693    2694    2694       0    2696    2697    2698    2697    2698
    2698       0    2700    2701    2702    2701    2702    2702       0    2704
    2705    2706    2705    2706    2706       0    2708    2709    2710    2709
    2710    2710       0    2712    2713    2714    2713    2714    2714       0
    2716    2717    2718    2717    2718    2718       0    2720    2721    2722
    2721    2722    2722       0    2724    2725    2726    2725    2726    2726
       0    2728    2729    2730    2729    2730    2730       0    2732    2733
    2734    2733    2734    2734       0    2736    2737    2738    2737    2738
    2738       0    2740    2741    2742    2741    2742    2742       0    2744
    2745    2746    2745    2746    2746       0    2748    2749    2750    2749
    2750    2750       0    2752    2753    2754    2753    2754    2754       0
    2756    2757    2758    2757    2758    2758       0    2760    2761    2762
    2761    2762    2762       0    2764    2765    2766    2765    2766    2766
       0    2768    2769    2770    2769    2770    2770       0    2772    2773
    2774    2773    2774    2774       0    2776    2777    2778    2777    2778
    2778       0    2780    2781    2782    2781    2782    2782       0    2784
    2785    2786    2785    2786    2786       0    2788    2789    2790    2789
    2790    2790       0    2792    2793    2794    2793    2794    2794       0
    2796    2797    2798    2797    2798    2798       0    2800    2801    2802
    2801    2802    2802       0    2804    2805    2806    2805    2806    2806
       0    2808    2809    2810    2809    2810    2810       0    2812    2813
    2814    2813    2814    2814       0    2816    2817    2818    2817    2818
    2818       0    2820    2821    2822    2821    2822    2822       0    2824
    2825    2826    2825    2826    2826       0    2828    2829    2830    2829
    2830    2830       0    2832    2833    2834    2833    2834    2834       0
    2836    2837    2838    2837    2838    2838       0    2840    2841    2842
    2841    2842    2842       0    2844    2845    2846    2845    2846    2846
       0    2848    2849    2850    2849    2850    2850       0    2852    2853
    2854    2853    2854    2854       0    2856    2857    2858    2857    2858
    2858       0    2860    2861    2862    2861    2862    2862       0    2864
    2865    2866    2865    2866    2866       0    2868    2869    2870    2869
    2870    2870       0    2872    2873    2874    2873    2874    2874       0
    2876    2877    2878    2877    2878    2878       0    2880    2881    2882
    2881    2882    2882       0    2884    2885    2886    2885    2886    2886
       0    2888    2889    2890    2889    2890    2890       0    2892    2893
    2894    2893    2894    2894       0    2896    2897    2898    2897    2898
    2898       0    2900    2901    2902    2901    2902    2902       0    2904
    2905    2906    2905    2906    2906       0    2908    2909    2910    2909
    2910    2910       0    2912    2913    2914    2913    2914    2914       0
    2916    2917    2918    2917    2918    2918       0    2920    2921    2922
    2921    2922    2922       0    2924    2925    2926    2925    2926    2926
       0    2928    2929    2930    2929    2930    2930       0    2932    2933
    2934    2933    2934    2934       0    2936    2937    2938    2937    2938
    2938       0    2940    2941    2942    2941    2942    2942       0    2944
    2945    2946    2945    2946    2946       0    2948    2949    2950    2949
    2950    2950       0    2952    2953    2954    2953    2954    2954       0
    2956    2957    2958    2957    2958    2958       0    2960    2961    2962
    2961    2962    2962       0    2964    2965    2966    2965    2966    2966
       0    2968    2969    2970    2969    2970    2970       0    2972    2973
    2974    2973    2974    2974       0    2976    2977    2978    2977    2978
    2978       0    2980    2981    2982    2981    2982    2982       0    2984
    2985    2986    2985    2986    2986       0    2988    2989    2990    2989
    2990    2990       0    2992    2993    2994    2993    2994    2994       0
    2996    2997    2998    2997    2998    2998       0    3000    3001    3002
    3001    3002    3002       0    3004    3005    3006    3005    3006    3006
       0    3008    3009    3010    3009    3010    3010       0    3012    3013
    3014    3013    3014    3014       0    3016    3017    3018    3017    3018
    3018       0    3020    3021    3022    3021    3022    3022       0    3024
    3025    3026    3025    3026    3026       0    3028    3029    3030    3029
    3030    3030       0    3032    3033    3034    3033    3034    3034       0
    3036    3037    3038    3037    3038    3038       0    3040    3041    3042
    3041    3042    3042       0    3044    3045    3046    3045    3046    3046
       0    3048    3049    3050    3049    3050    3050       0    3052    3053
    3054    3053    3054    3054       0    3056    3057    3058    3057    3058
    3058       0    3060    3061    3062    3061    3062    3062       0    3064
    3065    3066    3065    3066    3066       0    3068    3069    3070    3069
    3070    3070       0    3072    3073    3074    3073    3074    3074       0
    3076    3077    3078    3077    3078    3078       0    3080    3081    3082
    3081    3082    3082       0    3084    3085    3086    3085    3086    3086
       0    3088    3089    3090    3089    3090    3090       0    3092    3093
    3094    3093    3094    3094       0    3096    3097    3098    3097    3098
    3098       0    3100    3101    3102    3101    3102    3102       0    3104
    3105    3106    3105    3106    3106       0    3108    3109    3110    3109
    3110    3110       0    3112    3113    3114    3113    3114    3114       0
    3116    3117    3118    3117    3118    3118       0    3120    3121    3122
    3121    3122    3122       0    3124    3125    3126    3125    3126    3126
       0    3128    3129    3130    3129    3130    3130       0    3132    3133
    3134    3133    3134    3134       0    3136    3137    3138    3137    3138
    3138       0    3140    3141    3142    3141    3142    3142       0    3144
    3145    3146    3145    3146    3146       0    3148    3149    3150    3149
    3150    3150       0    3152    3153    3154    3153    3154    3154       0
    3156    3157    3158    3157    3158    3158       0    3160    3161    3162
    3161    3162    3162       0    3164    3165    3166    3165    3166    3166
       0    3168    3169    3170    3169    3170    3170       0    3172    3173
    3174    3173    3174    3174       0    3176    3177    3178    3177    3178
    3178       0    3180    3181    3182    3181    3182    3182       0    3184
    3185    3186    3185    3186    3186       0    3188    3189    3190    3189
    3190    3190       0    3192    3193    3194    3193    3194    3194       0
    3196    3197    3198    3197    3198    3198       0    3200    3201    3202
    3201    3202    3202       0    3204    3205    3206    3205    3206    3206
       0    3208    3209    3210    3209    3210    3210       0    3212    3213
    3214    3213    3214    3214       0    3216    3217    3218    3217    3218
    3218       0    3220    3221    3222    3221    3222    3222       0    3224
    3225    3226    3225    3226    3226       0    3228    3229    3230    3229
    3230    3230       0    3232    3233    3234    3233    3234    3234       0
    3236    3237    3238    3237    3238    3238       0    3240    3241    3242
    3241    3242    3242       0    3244    3245    3246    3245    3246    3246
       0    3248    3249    3250    3249    3250    3250       0    3252    3253
    3254    3253    3254    3254       0    3256    3257    3258    3257    3258
    3258       0    3260    3261    3262    3261    3262    3262       0    3264
    3265    3266    3265    3266    3266       0    3268    3269    3270    3269
    3270    3270       0    3272    3273    3274    3273    3274    3274       0
    3276    3277    3278    3277    3278    3278       0    3280    3281    3282
    3281    3282    3282       0    3284    3285    3286    3285    3286    3286
       0    3288    3289    3290    3289    3290    3290       0    3292    3293
    3294    3293    3294    3294       0    3296    3297    3298    3297    3298
    3298       0    3300    3301    3302    3301    3302    3302       0    3304
    3305    3306    3305    3306    3306       0    3308    3309    3310    3309
    3310    3310       0    3312    3313    3314    3313    3314    3314       0
    3316    3317    3318    3317    3318    3318       0    3320    3321    3322
    3321    3322    3322       0    3324    3325    3326    3325    3326    3326
       0    3328    3329    3330    3329    3330    3330       0    3332    3333
    3334    3333    3334    3334       0    3336    3337    3338    3337    3338
    3338       0    3340    3341    3342    3341    3342    3342       0    3344
    3345    3346    3345    3346    3346       0    3348    3349    3350    3349
    3350    3350       0    3352    3353    3354    3353    3354    3354       0
    3356    3357    3358    3357    3358    3358       0    3360    3361    3362
    3361    3362    3362       0    3364    3365    3366    3365    3366    3366
       0    3368    3369    3370    3369    3370    3370       0    3372    3373
    3374    3373    3374    3374       0    3376    3377    3378    3377    3378
    3378       0    3380    3381    3382    3381    3382    3382       0    3384
    3385    3386    3385    3386    3386       0    3388    3389    3390    3389
    3390    3390       0    3392    3393    3394    3393    3394    3394       0
    3396    3397    3398    3397    3398    3398       0    3400    3401    3402
    3401    3402    3402       0    3404    3405    3406    3405    3406    3406
       0    3408    3409    3410    3409    3410    3410       0    3412    3413
    3414    3413    3414    3414       0    3416    3417    3418    3417    3418
    3418       0    3420    3421    3422    3421    3422    3422       0    3424
    3425    3426    3425    3426    3426       0    3428    3429    3430    3429
    3430    3430       0    3432    3433    3434    3433    3434    3434       0
    3436    3437    3438    3437    3438    3438       0    3440    3441    3442
    3441    3442    3442       0    3444    3445    3446    3445    3446    3446
       0    3448    3449    3450    3449    3450    3450       0    3452    3453
    3454    3453    3454    3454       0    3456    3457    3458    3457    3458
    3458       0    3460    3461    3462    3461    3462    3462       0    3464
    3465    3466    3465    3466    3466       0    3468    3469    3470    3469
    3470    3470       0    3472    3473    3474    3473    3474    3474       0
    3476    3477    3478    3477    3478    3478       0    3480    3481    3482
    3481    3482    3482       0    3484    3485    3486    3485    3486    3486
       0    3488    3489    3490    3489    3490    3490       0    3492    3493
    3494    3493    3494    3494       0    3496    3497    3498    3497    3498
    3498       0    3500    3501    3502    3501    3502    3502       0    3504
    3505    3506    3505    3506    3506       0    3508    3509    3510    3509
    3510    3510       0    3512    3513    3514    3513    3514    3514       0
    3516    3517    3518    3517    3518    3518       0    3520    3521    3522
    3521    3522    3522       0    3524    3525    3526    3525    3526    3526
       0    3528    3529    3530    3529    3530    3530       0    3532    3533
    3534    3533    3534    3534       0    3536    3537    3538    3537    3538
    3538       0    3540    3541    3542    3541    3542    3542       0    3544
    3545    3546    3545    3546    3546       0    3548    3549    3550    3549
    3550    3550       0    3552    3553    3554    3553    3554    3554       0
    3556    3557    3558    3557    3558    3558       0    3560    3561    3562
    3561    3562    3562       0    3564    3565    3566    3565    3566    3566
       0    3568    3569    3570    3569    3570    3570       0    3572    3573
    3574    3573    3574    3574       0    3576    3577    3578    3577    3578
    3578       0    3580    3581    3582    3581    3582    3582       0    3584
    3585    3586    3585    3586    3586       0    3588    3589    3590    3589
    3590    3590       0    3592    3593    3594    3593    3594    3594       0
    3596    3597    3598    3597    3598    3598       0    3600    3601    3602
    3601    3602    3602       0    3604    3605    3606    3605    3606    3606
       0    3608    3609    3610    3609    3610    3610       0    3612    3613
    3614    3613    3614    3614       0    3616    3617    3618    3617    3618
    3618       0    3620    3621    3622    3621    3622    3622       0    3624
    3625    3626    3625    3626    3626       0    3628    3629    3630    3629
    3630    3630       0    3632    3633    3634    3633    3634    3634       0
    3636    3637    3638    3637    3638    3638       0    3640    3641    3642
    3641    3642    3642       0    3644    3645    3646    3645    3646    3646
       0    3648    3649    3650    3649    3650    3650       0    3652    3653
    3654    3653    3654    3654       0    3656    3657    3658    3657    3658
    3658       0    3660    3661    3662    3661    3662    3662       0    3664
    3665    3666    3665    3666    3666       0    3668    3669    3670    3669
    3670    3670       0    3672    3673    3674    3673    3674    3674       0
    3676    3677    3678    3677    3678    3678       0    3680    3681    3682
    3681    3682    3682       0    3684    3685    3686    3685    3686    3686
       0    3688    3689    3690    3689    3690    3690       0    3692    3693
    3694    3693    3694    3694       0    3696    3697    3698    3697    3698
    3698       0    3700    3701    3702    3701    3702    3702       0    3704
    3705    3706    3705    3706    3706       0    3708    3709    3710    3709
    3710    3710       0    3712    3713    3714    3713    3714    3714       0
    3716    3717    3718    3717    3718    3718       0    3720    3721    3722
    3721    3722    3722       0    3724    3725    3726    3725    3726    3726
       0    3728    3729    3730    3729    3730    3730       0    3732    3733
    3734    3733    3734    3734       0    3736    3737    3738    3737    3738
    3738       0    3740    3741    3742    3741    3742    3742       0    3744
    3745    3746    3745    3746    3746       0    3748    3749    3750    3749
    3750    3750       0    3752    3753    3754    3753    3754    3754       0
    3756    3757    3758    3757    3758    3758       0    3760    3761    3762
    3761    3762    3762       0    3764    3765    3766    3765    3766    3766
       0    3768    3769    3770    3769    3770    3770       0    3772    3773
    3774    3773    3774    3774       0    3776    3777    3778    3777    3778
    3778       0    3780    3781    3782    3781    3782    3782       0    3784
    3785    3786    3785    3786    3786       0    3788    3789    3790    3789
    3790    3790       0    3792    3793    3794    3793    3794    3794       0
    3796    3797    3798    3797    3798    3798       0    3800    3801    3802
    3801    3802    3802       0    3804    3805    3806    3805    3806    3806
       0    3808    3809    3810    3809    3810    3810       0    3812    3813
    3814    3813    3814    3814       0    3816    3817    3818    3817    3818
    3818       0    3820    3821    3822    3821    3822    3822       0    3824
    3825    3826    3825    3826    3826       0    3828    3829    3830    3829
    3830    3830       0    3832    3833    3834    3833    3834    3834       0
    3836    3837    3838    3837    3838    3838       0    3840    3841    3842
    3841    3842    3842       0    3844    3845    3846    3845    3846    3846
       0    3848    3849    3850    3849    3850    3850       0    3852    3853
    3854    3853    3854    3854       0    3856    3857    3858    3857    3858
    3858       0    3860    3861    3862    3861    3862    3862       0    3864
    3865    3866    3865    3866    3866       0    3868    3869    3870    3869
    3870    3870       0    3872    3873    3874    3873    3874    3874       0
    3876    3877    3878    3877    3878    3878       0    3880    3881    3882
    3881    3882    3882       0    3884    3885    3886    3885    3886    3886
       0    3888    3889    3890    3889    3890    3890       0    3892    3893
    3894    3893    3894    3894       0    3896    3897    3898    3897    3898
    3898       0    3900    3901    3902    3901    3902    3902       0    3904
    3905    3906    3905    3906    3906       0    3908    3909    3910    3909
    3910    3910       0    3912    3913    3914    3913    3914    3914       0
    3916    3917    3918    3917    3918    3918       0    3920    3921    3922
    3921    3922    3922       0    3924    3925    3926    3925    3926    3926
       0    3928    3929    3930    3929    3930    3930       0    3932    3933
    3934    3933    3934    3934       0    3936    3937    3938    3937    3938
    3938       0    3940    3941    3942    3941    3942    3942       0    3944
    3945    3946    3945    3946    3946       0    3948    3949    3950    3949
    3950    3950       0    3952    3953    3954    3953    3954    3954       0
    3956    3957    3958    3957    3958    3958       0    3960    3961    3962
    3961    3962    3962       0    3964    3965    3966    3965    3966    3966
       0    3968    3969    3970    3969    3970    3970       0    3972    3973
    3974    3973    3974    3974       0    3976    3977    3978    3977    3978
    3978       0    3980    3981    3982    3981    3982    3982       0    3984
    3985    3986    3985    3986    3986       0    3988    3989    3990    3989
    3990    3990       0    3992    3993    3994    3993    3994    3994       0
    3996    3997    3998    3997    3998    3998       0    4000    4001    4002
    4001    4002    4002       0    4004    4005    4006    4005    4006    4006
       0    4008    4009    4010    4009    4010    4010       0    4012    4013
    4014    4013    4014    4014       0    4016    4017    4018    4017    4018
    4018       0    4020    4021    4022    4021    4022    4022       0    4024
    4025    4026    4025    4026    4026       0    4028    4029    4030    4029
    4030    4030       0    4032    4033    4034    4033    4034    4034       0
    4036    4037    4038    4037    4038    4038       0    4040    4041    4042
    4041    4042    4042       0    4044    4045    4046    4045    4046    4046
       0    4048    4049    4050    4049    4050    4050       0    4052    4053
    4054    4053    4054    4054       0    4056    4057    4058    4057    4058
    4058       0    4060    4061    4062    4061    4062    4062       0    4064
    4065    4066    4065    4066    4066       0    4068    4069    4070    4069
    4070    4070       0    4072    4073    4074    4073    4074    4074       0
    4076    4077    4078    4077    4078    4078       0    4080    4081    4082
    4081    4082    4082       0    4084    4085    4086    4085    4086    4086
       0    4088    4089    4090    4089    4090    4090       0    4092    4093
    4094    4093    4094    4094       0    4096    4097    4098    4097    4098
    4098       0    4100    4101    4102    4101    4102    4102       0    4104
    4105    4106    4105    4106    4106       0    4108    4109    4110    4109
    4110    4110       0    4112    4113    4114    4113    4114    4114       0
    4116    4117    4118    4117    4118    4118       0    4120    4121    4122
    4121    4122    4122       0    4124    4125    4126    4125    4126    4126
       0    4128    4129    4130    4129    4130    4130       0    4132    4133
    4134    4133    4134    4134       0    4136    4137    4138    4137    4138
    4138       0    4140    4141    4142    4141    4142    4142       0    4144
    4145    4146    4145    4146    4146       0    4148    4149    4150    4149
    4150    4150       0    4152    4153    4154    4153    4154    4154       0
    4156    4157    4158    4157    4158    4158       0    4160    4161    4162
    4161    4162    4162       0    4164    4165    4166    4165    4166    4166
       0    4168    4169    4170    4169    4170    4170       0    4172    4173
    4174    4173    4174    4174       0    4176    4177    4178    4177    4178
    4178       0    4180    4181    4182    4181    4182    4182       0    4184
    4185    4186    4185    4186    4186       0    4188    4189    4190    4189
    4190    4190       0    4192    4193    4194    4193    4194    4194       0
    4196    4197    4198    4197    4198    4198       0    4200    4201    4202
    4201    4202    4202       0    4204    4205    4206    4205    4206    4206
       0    4208    4209    4210    4209    4210    4210       0    4212    4213
    4214    4213    4214    4214       0    4216    4217    4218    4217    4218
    4218       0    4220    4221    4222    4221    4222    4222       0    4224
    4225    4226    4225    4226    4226       0    4228    4229    4230    4229
    4230    4230       0    4232    4233    4234    4233    4234    4234       0
    4236    4237    4238    4237    4238    4238       0    4240    4241    4242
    4241    4242    4242       0    4244    4245    4246    4245    4246    4246
       0    4248    4249    4250    4249    4250    4250       0    4252    4253
    4254    4253    4254    4254       0    4256    4257    4258    4257    4258
    4258       0    4260    4261    4262    4261    4262    4262       0    4264
    4265    4266    4265    4266    4266       0    4268    4269    4270    4269
    4270    4270       0    4272    4273    4274    4273    4274    4274       0
    4276    4277    4278    4277    4278    4278       0    4280    4281    4282
    4281    4282    4282       0    4284    4285    4286    4285    4286    4286
       0    4288    4289    4290    4289    4290    4290       0    4292    4293
    4294    4293    4294    4294       0    4296    4297    4298    4297    4298
    4298       0    4300    4301    4302    4301    4302    4302       0    4304
    4305    4306    4305    4306    4306       0    4308    4309    4310    4309
    4310    4310       0    4312    4313    4314    4313    4314    4314       0
    4316    4317    4318    4317    4318    4318       0    4320    4321    4322
    4321    4322    4322       0    4324    4325    4326    4325    4326    4326
       0    4328    4329    4330    4329    4330    4330       0    4332    4333
    4334    4333    4334    4334       0    4336    4337    4338    4337    4338
    4338       0    4340    4341    4342    4341    4342    4342       0    4344
    4345    4346    4345    4346    4346       0    4348    4349    4350    4349
    4350    4350       0    4352    4353    4354    4353    4354    4354       0
    4356    4357    4358    4357    4358    4358       0    4360    4361    4362
    4361    4362    4362       0    4364    4365    4366    4365    4366    4366
       0    4368    4369    4370    4369    4370    4370       0    4372    4373
    4374    4373    4374    4374       0    4376    4377    4378    4377    4378
    4378       0    4380    4381    4382    4381    4382    4382       0    4384
    4385    4386    4385    4386    4386       0    4388    4389    4390    4389
    4390    4390       0    4392    4393    4394    4393    4394    4394       0
    4396    4397    4398    4397    4398    4398       0    4400    4401    4402
    4401    4402    4402       0    4404    4405    4406    4405    4406    4406
       0    4408    4409    4410    4409    4410    4410       0    4412    4413
    4414    4413    4414    4414       0    4416    4417    4418    4417    4418
    4418       0    4420    4421    4422    4421    4422    4422       0    4424
    4425    4426    4425    4426    4426       0    4428    4429    4430    4429
    4430    4430       0    4432    4433    4434    4433    4434    4434       0
    4436    4437    4438    4437    4438    4438       0    4440    4441    4442
    4441    4442    4442       0    4444    4445    4446    4445    4446    4446
       0    4448    4449    4450    4449    4450    4450       0    4452    4453
    4454    4453    4454    4454       0    4456    4457    4458    4457    4458
    4458       0    4460    4461    4462    4461    4462    4462       0    4464
    4465    4466    4465    4466    4466       0    4468    4469    4470    4469
    4470    4470       0    4472    4473    4474    4473    4474    4474       0
    4476    4477    4478    4477    4478    4478       0    4480    4481    4482
    4481    4482    4482       0    4484    4485    4486    4485    4486    4486
       0    4488    4489    4490    4489    4490    4490       0    4492    4493
    4494    4493    4494    4494       0    4496    4497    4498    4497    4498
    4498       0    4500    4501    4502    4501    4502    4502       0    4504
    4505    4506    4505    4506    4506       0    4508    4509    4510    4509
    4510    4510       0    4512    4513    4514    4513    4514    4514       0
    4516    4517    4518    4517    4518    4518       0    4520    4521    4522
    4521    4522    4522       0    4524    4525    4526    4525    4526    4526
       0    4528    4529    4530    4529    4530    4530       0    4532    4533
    4534    4533    4534    4534       0    4536    4537    4538    4537    4538
    4538       0    4540    4541    4542    4541    4542    4542       0    4544
    4545    4546    4545    4546    4546       0    4548    4549    4550    4549
    4550    4550       0    4552    4553    4554    4553    4554    4554       0
    4556    4557    4558    4557    4558    4558       0    4560    4561    4562
    4561    4562    4562       0    4564    4565    4566    4565    4566    4566
       0    4568    4569    4570    4569    4570    4570       0    4572    4573
    4574    4573    4574    4574       0    4576    4577    4578    4577    4578
    4578       0    4580    4581    4582    4581    4582    4582       0    4584
    4585    4586    4585    4586    4586       0    4588    4589    4590    4589
    4590    4590       0    4592    4593    4594    4593    4594    4594       0
    4596    4597    4598    4597    4598    4598       0    4600    4601    4602
    4601    4602    4602       0    4604    4605    4606    4605    4606    4606
       0    4608    4609    4610    4609    4610    4610       0    4612    4613
    4614    4613    4614    4614       0    4616    4617    4618    4617    4618
    4618       0    4620    4621    4622    4621    4622    4622       0    4624
    4625    4626    4625    4626    4626       0    4628    4629    4630    4629
    4630    4630       0    4632    4633    4634    4633    4634    4634       0
    4636    4637    4638    4637    4638    4638       0    4640    4641    4642
    4641    4642    4642       0    4644    4645    4646    4645    4646    4646
       0    4648    4649    4650    4649    4650    4650       0    4652    4653
    4654    4653    4654    4654       0    4656    4657    4658    4657    4658
    4658       0    4660    4661    4662    4661    4662    4662       0    4664
    4665    4666    4665    4666    4666       0    4668    4669    4670    4669
    4670    4670       0    4672    4673    4674    4673    4674    4674       0
    4676    4677    4678    4677    4678    4678       0    4680    4681    4682
    4681    4682    4682       0    4684    4685    4686    4685    4686    4686
       0    4688    4689    4690    4689    4690    4690       0    4692    4693
    4694    4693    4694    4694       0    4696    4697    4698    4697    4698
    4698       0    4700    4701    4702    4701    4702    4702       0    4704
    4705    4706    4705    4706    4706       0    4708    4709    4710    4709
    4710    4710       0    4712    4713    4714    4713    4714    4714       0
    4716    4717    4718    4717    4718    4718       0    4720    4721    4722
    4721    4722    4722       0    4724    4725    4726    4725    4726    4726
       0    4728    4729    4730    4729    4730    4730       0    4732    4733
    4734    4733    4734    4734       0    4736    4737    4738    4737    4738
    4738       0    4740    4741    4742    4741    4742    4742       0    4744
    4745    4746    4745    4746    4746       0    4748    4749    4750    4749
    4750    4750       0    4752    4753    4754    4753    4754    4754       0
    4756    4757    4758    4757    4758    4758       0    4760    4761    4762
    4761    4762    4762       0    4764    4765    4766    4765    4766    4766
       0    4768    4769    4770    4769    4770    4770       0    4772    4773
    4774    4773    4774    4774       0    4776    4777    4778    4777    4778
    4778       0    4780    4781    4782    4781    4782    4782       0    4784
    4785    4786    4785    4786    4786       0    4788    4789    4790    4789
    4790    4790       0    4792    4793    4794    4793    4794    4794       0
    4796    4797    4798    4797    4798    4798       0    4800    4801    4802
    4801    4802    4802       0    4804    4805    4806    4805    4806    4806
       0    4808    4809    4810    4809    4810    4810       0    4812    4813
    4814    4813    4814    4814       0    4816    4817    4818    4817    4818
    4818       0    4820    4821    4822    4821    4822    4822       0    4824
    4825    4826    4825    4826    4826       0    4828    4829    4830    4829
    4830    4830       0    4832    4833    4834    4833    4834    4834       0
    4836    4837    4838    4837    4838    4838       0    4840    4841    4842
    4841    4842    4842       0    4844    4845    4846    4845    4846    4846
       0    4848    4849    4850    4849    4850    4850       0    4852    4853
    4854    4853    4854    4854       0    4856    4857    4858    4857    4858
    4858       0    4860    4861    4862    4861    4862    4862       0    4864
    4865    4866    4865    4866    4866       0    4868    4869    4870    4869
    4870    4870       0    4872    4873    4874    4873    4874    4874       0
    4876    4877    4878    4877    4878    4878       0    4880    4881    4882
    4881    4882    4882       0    4884    4885    4886    4885    4886    4886
       0    4888    4889    4890    4889    4890    4890       0    4892    4893
    4894    4893    4894    4894       0    4896    4897    4898    4897    4898
    4898       0    4900    4901    4902    4901    4902    4902       0    4904
    4905    4906    4905    4906    4906       0    4908    4909    4910    4909
    4910    4910       0    4912    4913    4914    4913    4914    4914       0
    4916    4917    4918    4917    4918    4918       0    4920    4921    4922
    4921    4922    4922       0    4924    4925    4926    4925    4926    4926
       0    4928    4929    4930    4929    4930    4930       0    4932    4933
    4934    4933    4934    4934       0    4936    4937    4938    4937    4938
    4938       0    4940    4941    4942    4941    4942    4942       0    4944
    4945    4946    4945    4946    4946       0    4948    4949    4950    4949
    4950    4950       0    4952    4953    4954    4953    4954    4954       0
    4956    4957    4958    4957    4958    4958       0    4960    4961    4962
    4961    4962    4962       0    4964    4965    4966    4965    4966    4966
       0    4968    4969    4970    4969    4970    4970       0    4972    4973
    4974    4973    4974    4974       0    4976    4977    4978    4977    4978
    4978       0    4980    4981    4982    4981    4982    4982       0    4984
    4985    4986    4985    4986    4986       0    4988    4989    4990    4989
    4990    4990       0    4992    4993    4994    4993    4994    4994       0
    4996    4997    4998    4997    4998    4998       0    5000    5001    5002
    5001    5002    5002       0    5004    5005    5006    5005    5006    5006
       0    5008    5009    5010    5009    5010    5010       0    5012    5013
    5014    5013    5014    5014       0    5016    5017    5018    5017    5018
    5018       0    5020    5021    5022    5021    5022    5022       0    5024
    5025    5026    5025    5026    5026       0    5028    5029    5030    5029
    5030    5030       0    5032    5033    5034    5033    5034    5034       0
    5036    5037    5038    5037    5038    5038       0    5040    5041    5042
    5041    5042    5042       0    5044    5045    5046    5045    5046    5046
       0    5048    5049    5050    5049    5050    5050       0    5052    5053
    5054    5053    5054    5054       0    5056    5057    5058    5057    5058
    5058       0    5060    5061    5062    5061    5062    5062       0    5064
    5065    5066    5065    5066    5066       0    5068    5069    5070    5069
    5070    5070       0    5072    5073    5074    5073    5074    5074       0
    5076    5077    5078    5077    5078    5078       0    5080    5081    5082
    5081    5082    5082       0    5084    5085    5086    5085    5086    5086
       0    5088    5089    5090    5089    5090    5090       0    5092    5093
    5094    5093    5094    5094       0    5096    5097    5098    5097    5098
    5098       0    5100    5101    5102    5101    5102    5102       0    5104
    5105    5106    5105    5106    5106       0    5108    5109    5110    5109
    5110    5110       0    5112    5113    5114    5113    5114    5114       0
    5116    5117    5118    5117    5118    5118       0    5120    5121    5122
    5121    5122    5122       0    5124    5125    5126    5125    5126    5126
       0    5128    5129    5130    5129    5130    5130       0    5132    5133
    5134    5133    5134    5134       0    5136    5137    5138    5137    5138
    5138       0    5140    5141    5142    5141    5142    5142       0    5144
    5145    5146    5145    5146    5146       0    5148    5149    5150    5149
    5150    5150       0    5152    5153    5154    5153    5154    5154       0
    5156    5157    5158    5157    5158    5158       0    5160    5161    5162
    5161    5162    5162       0    5164    5165    5166    5165    5166    5166
       0    5168    5169    5170    5169    5170    5170       0    5172    5173
    5174    5173    5174    5174       0    5176    5177    5178    5177    5178
    5178       0    5180    5181    5182    5181    5182    5182       0    5184
    5185    5186    5185    5186    5186       0    5188    5189    5190    5189
    5190    5190       0    5192    5193    5194    5193    5194    5194       0
    5196    5197    5198    5197    5198    5198       0    5200    5201    5202
    5201    5202    5202       0    5204    5205    5206    5205    5206    5206
       0    5208    5209    5210    5209    5210    5210       0    5212    5213
    5214    5213    5214    5214       0    5216    5217    5218    5217    5218
    5218       0    5220    5221    5222    5221    5222    5222       0    5224
    5225    5226    5225    5226    5226       0    5228    5229    5230    5229
    5230    5230       0    5232    5233    5234    5233    5234    5234       0
    5236    5237    5238    5237    5238    5238       0    5240    5241    5242
    5241    5242    5242       0    5244    5245    5246    5245    5246    5246
       0    5248    5249    5250    5249    5250    5250       0    5252    5253
    5254    5253    5254    5254       0    5256    5257    5258    5257    5258
    5258       0    5260    5261    5262    5261    5262    5262       0    5264
    5265    5266    5265    5266    5266       0    5268    5269    5270    5269
    5270    5270       0    5272    5273    5274    5273    5274    5274       0
    5276    5277    5278    5277    5278    5278       0    5280    5281    5282
    5281    5282    5282       0    5284    5285    5286    5285    5286    5286
       0    5288    5289    5290    5289    5290    5290       0    5292    5293
    5294    5293    5294    5294       0    5296    5297    5298    5297    5298
    5298       0    5300    5301    5302    5301    5302    5302       0    5304
    5305    5306    5305    5306    5306       0    5308    5309    5310    5309
    5310    5310       0    5312    5313    5314    5313    5314    5314       0
    5316    5317    5318    5317    5318    5318       0    5320    5321    5322
    5321    5322    5322       0    5324    5325    5326    5325    5326    5326
       0    5328    5329    5330    5329    5330    5330       0    5332    5333
    5334    5333    5334    5334       0    5336    5337    5338    5337    5338
    5338       0    5340    5341    5342    5341    5342    5342       0    5344
    5345    5346    5345    5346    5346       0    5348    5349    5350    5349
    5350    5350       0    5352    5353    5354    5353    5354    5354       0
    5356    5357    5358    5357    5358    5358       0    5360    5361    5362
    5361    5362    5362       0    5364    5365    5366    5365    5366    5366
       0    5368    5369    5370    5369    5370    5370       0    5372    5373
    5374    5373    5374    5374       0    5376    5377    5378    5377    5378
    5378       0    5380    5381    5382    5381    5382    5382       0    5384
    5385    5386    5385    5386    5386       0    5388    5389    5390    5389
    5390    5390       0    5392    5393    5394    5393    5394    5394       0
    5396    5397    5398    5397    5398    5398       0    5400    5401    5402
    5401    5402    5402       0    5404    5405    5406    5405    5406    5406
       0    5408    5409    5410    5409    5410    5410       0    5412    5413
    5414    5413    5414    5414       0    5416    5417    5418    5417    5418
    5418       0    5420    5421    5422    5421    5422    5422       0    5424
    5425    5426    5425    5426    5426       0    5428    5429    5430    5429
    5430    5430       0    5432    5433    5434    5433    5434    5434       0
    5436    5437    5438    5437    5438    5438       0    5440    5441    5442
    5441    5442    5442       0    5444    5445    5446    5445    5446    5446
       0    5448    5449    5450    5449    5450    5450       0    5452    5453
    5454    5453    5454    5454       0    5456    5457    5458    5457    5458
    5458       0    5460    5461    5462    5461    5462    5462       0    5464
    5465    5466    5465    5466    5466       0    5468    5469    5470    5469
    5470    5470       0    5472    5473    5474    5473    5474    5474       0
    5476    5477    5478    5477    5478    5478       0    5480    5481    5482
    5481    5482    5482       0    5484    5485    5486    5485    5486    5486
       0    5488    5489    5490    5489    5490    5490       0    5492    5493
    5494    5493    5494    5494       0    5496    5497    5498    5497    5498
    5498       0    5500    5501    5502    5501    5502    5502       0    5504
    5505    5506    5505    5506    5506       0    5508    5509    5510    5509
    5510    5510       0    5512    5513    5514    5513    5514    5514       0
    5516    5517    5518    5517    5518    5518       0    5520    5521    5522
    5521    5522    5522       0    5524    5525    5526    5525    5526    5526
       0    5528    5529    5530    5529    5530    5530       0    5532    5533
    5534    5533    5534    5534       0    5536    5537    5538    5537    5538
    5538       0    5540    5541    5542    5541    5542    5542       0    5544
    5545    5546    5545    5546    5546       0    5548    5549    5550    5549
    5550    5550       0    5552    5553    5554    5553    5554    5554       0
    5556    5557    5558    5557    5558    5558       0    5560    5561    5562
    5561    5562    5562       0    5564    5565    5566    5565    5566    5566
       0    5568    5569    5570    5569    5570    5570       0    5572    5573
    5574    5573    5574    5574       0    5576    5577    5578    5577    5578
    5578       0    5580    5581    5582    5581    5582    5582       0    5584
    5585    5586    5585    5586    5586       0    5588    5589    5590    5589
    5590    5590       0    5592    5593    5594    5593    5594    5594       0
    5596    5597    5598    5597    5598    5598       0    5600    5601    5602
    5601    5602    5602       0    5604    5605    5606    5605    5606    5606
       0    5608    5609    5610    5609    5610    5610       0    5612    5613
    5614    5613    5614    5614       0    5616    5617    5618    5617    5618
    5618       0    5620    5621    5622    5621    5622    5622       0    5624
    5625    5626    5625    5626    5626       0    5628    5629    5630    5629
    5630    5630       0    5632    5633    5634    5633    5634    5634       0
    5636    5637    5638    5637    5638    5638       0    5640    5641    5642
    5641    5642    5642       0    5644    5645    5646    5645    5646    5646
       0    5648    5649    5650    5649    5650    5650       0    5652    5653
    5654    5653    5654    5654       0    5656    5657    5658    5657    5658
    5658       0    5660    5661    5662    5661    5662    5662       0    5664
    5665    5666    5665    5666    5666       0    5668    5669    5670    5669
    5670    5670       0    5672    5673    5674    5673    5674    5674       0
    5676    5677    5678    5677    5678    5678       0    5680    5681    5682
    5681    5682    5682       0    5684    5685    5686    5685    5686    5686
       0    5688    5689    5690    5689    5690    5690       0    5692    5693
    5694    5693    5694    5694       0    5696    5697    5698    5697    5698
    5698       0    5700    5701    5702    5701    5702    5702       0    5704
    5705    5706    5705    5706    5706       0    5708    5709    5710    5709
    5710    5710       0    5712    5713    5714    5713    5714    5714       0
    5716    5717    5718    5717    5718    5718       0    5720    5721    5722
    5721    5722    5722       0    5724    5725    5726    5725    5726    5726
       0    5728    5729    5730    5729    5730    5730       0    5732    5733
    5734    5733    5734    5734       0    5736    5737    5738    5737    5738
    5738       0    5740    5741    5742    5741    5742    5742       0    5744
    5745    5746    5745    5746    5746       0    5748    5749    5750    5749
    5750    5750       0    5752    5753    5754    5753    5754    5754       0
    5756    5757    5758    5757    5758    5758       0    5760    5761    5762
    5761    5762    5762       0    5764    5765    5766    5765    5766    5766
       0    5768    5769    5770    5769    5770    5770       0    5772    5773
    5774    5773    5774    5774       0    5776    5777    5778    5777    5778
    5778       0    5780    5781    5782    5781    5782    5782       0    5784
    5785    5786    5785    5786    5786       0    5788    5789    5790    5789
    5790    5790       0    5792    5793    5794    5793    5794    5794       0
    5796    5797    5798    5797    5798    5798       0    5800    5801    5802
    5801    5802    5802       0    5804    5805    5806    5805    5806    5806
       0    5808    5809    5810    5809    5810    5810       0    5812    5813
    5814    5813    5814    5814       0    5816    5817    5818    5817    5818
    5818       0    5820    5821    5822    5821    5822    5822       0    5824
    5825    5826    5825    5826    5826       0    5828    5829    5830    5829
    5830    5830       0    5832    5833    5834    5833    5834    5834       0
    5836    5837    5838    5837    5838    5838       0    5840    5841    5842
    5841    5842    5842       0    5844    5845    5846    5845    5846    5846
       0    5848    5849    5850    5849    5850    5850       0    5852    5853
    5854    5853    5854    5854       0    5856    5857    5858    5857    5858
    5858       0    5860    5861    5862    5861    5862    5862       0    5864
    5865    5866    5865    5866    5866       0    5868    5869    5870    5869
    5870    5870       0    5872    5873    5874    5873    5874    5874       0
    5876    5877    5878    5877    5878    5878       0    5880    5881    5882
    5881    5882    5882       0    5884    5885    5886    5885    5886    5886
       0    5888    5889    5890    5889    5890    5890       0    5892    5893
    5894    5893    5894    5894       0    5896    5897    5898    5897    5898
    5898       0    5900    5901    5902    5901    5902    5902       0    5904
    5905    5906    5905    5906    5906       0    5908    5909    5910    5909
    5910    5910       0    5912    5913    5914    5913    5914    5914       0
    5916    5917    5918    5917    5918    5918       0    5920    5921    5922
    5921    5922    5922       0    5924    5925    5926    5925    5926    5926
       0    5928    5929    5930    5929    5930    5930       0    5932    5933
    5934    5933    5934    5934       0    5936    5937    5938    5937    5938
    5938       0    5940    5941    5942    5941    5942    5942       0    5944
    5945    5946    5945    5946    5946       0    5948    5949    5950    5949
    5950    5950       0    5952    5953    5954    5953    5954    5954       0
    5956    5957    5958    5957    5958    5958       0    5960    5961    5962
    5961    5962    5962       0    5964    5965    5966    5965    5966    5966
       0    5968    5969    5970    5969    5970    5970       0    5972    5973
    5974    5973    5974    5974       0    5976    5977    5978    5977    5978
    5978       0    5980    5981    5982    5981    5982    5982       0    5984
    5985    5986    5985    5986    5986       0    5988    5989    5990    5989
    5990    5990       0    5992    5993    5994    5993    5994    5994       0
    5996    5997    5998    5997    5998    5998       0    6000    6001    6002
    6001    6002    6002       0    6004    6005    6006    6005    6006    6006
       0    6008    6009    6010    6009    6010    6010       0    6012    6013
    6014    6013    6014    6014       0    6016    6017    6018    6017    6018
    6018       0    6020    6021    6022    6021    6022    6022       0    6024
    6025    6026    6025    6026    6026       0    6028    6029    6030    6029
    6030    6030       0    6032    6033    6034    6033    6034    6034       0
    6036    6037    6038    6037    6038    6038       0    6040    6041    6042
    6041    6042    6042       0    6044    6045    6046    6045    6046    6046
       0    6048    6049    6050    6049    6050    6050       0    6052    6053
    6054    6053    6054    6054       0    6056    6057    6058    6057    6058
    6058       0    6060    6061    6062    6061    6062    6062       0    6064
    6065    6066    6065    6066    6066       0    6068    6069    6070    6069
    6070    6070       0    6072    6073    6074    6073    6074    6074       0
    6076    6077    6078    6077    6078    6078       0    6080    6081    6082
    6081    6082    6082       0    6084    6085    6086    6085    6086    6086
       0    6088    6089    6090    6089    6090    6090       0    6092    6093
    6094    6093    6094    6094       0    6096    6097    6098    6097    6098
    6098       0    6100    6101    6102    6101    6102    6102       0    6104
    6105    6106    6105    6106    6106       0    6108    6109    6110    6109
    6110    6110       0    6112    6113    6114    6113    6114    6114       0
    6116    6117    6118    6117    6118    6118       0    6120    6121    6122
    6121    6122    6122       0    6124    6125    6126    6125    6126    6126
       0    6128    6129    6130    6129    6130    6130       0    6132    6133
    6134    6133    6134    6134       0    6136    6137    6138    6137    6138
    6138       0    6140    6141    6142    6141    6142    6142       0    6144
    6145    6146    6145    6146    6146       0    6148    6149    6150    6149
    6150    6150       0    6152    6153    6154    6153    6154    6154       0
    6156    6157    6158    6157    6158    6158       0    6160    6161    6162
    6161    6162    6162       0    6164    6165    6166    6165    6166    6166
       0    6168    6169    6170    6169    6170    6170       0    6172    6173
    6174    6173    6174    6174       0    6176    6177    6178    6177    6178
    6178       0    6180    6181    6182    6181    6182    6182       0    6184
    6185    6186    6185    6186    6186       0    6188    6189    6190    6189
    6190    6190       0    6192    6193    6194    6193    6194    6194       0
    6196    6197    6198    6197    6198    6198       0    6200    6201    6202
    6201    6202    6202       0    6204    6205    6206    6205    6206    6206
       0    6208    6209    6210    6209    6210    6210       0    6212    6213
    6214    6213    6214    6214       0    6216    6217    6218    6217    6218
    6218       0    6220    6221    6222    6221    6222    6222       0    6224
    6225    6226    6225    6226    6226       0    6228    6229    6230    6229
    6230    6230       0    6232    6233    6234    6233    6234    6234       0
    6236    6237    6238    6237    6238    6238       0    6240    6241    6242
    6241    6242    6242       0    6244    6245    6246    6245    6246    6246
       0    6248    6249    6250    6249    6250    6250       0    6252    6253
    6254    6253    6254    6254       0    6256    6257    6258    6257    6258
    6258       0    6260    6261    6262    6261    6262    6262       0    6264
    6265    6266    6265    6266    6266       0    6268    6269    6270    6269
    6270    6270       0    6272    6273    6274    6273    6274    6274       0
    6276    6277    6278    6277    6278    6278       0    6280    6281    6282
    6281    6282    6282       0    6284    6285    6286    6285    6286    6286
       0    6288    6289    6290    6289    6290    6290       0    6292    6293
    6294    6293    6294    6294       0    6296    6297    6298    6297    6298
    6298       0    6300    6301    6302    6301    6302    6302       0    6304
    6305    6306    6305    6306    6306       0    6308    6309    6310    6309
    6310    6310       0    6312    6313    6314    6313    6314    6314       0
    6316    6317    6318    6317    6318    6318       0    6320    6321    6322
    6321    6322    6322       0    6324    6325    6326    6325    6326    6326
       0    6328    6329    6330    6329    6330    6330       0    6332    6333
    6334    6333    6334    6334       0    6336    6337    6338    6337    6338
    6338       0    6340    6341    6342    6341    6342    6342       0    6344
    6345    6346    6345    6346    6346       0    6348    6349    6350    6349
    6350    6350       0    6352    6353    6354    6353    6354    6354       0
    6356    6357    6358    6357    6358    6358       0    6360    6361    6362
    6361    6362    6362       0    6364    6365    6366    6365    6366    6366
       0    6368    6369    6370    6369    6370    6370       0    6372    6373
    6374    6373    6374    6374       0    6376    6377    6378    6377    6378
    6378       0    6380    6381    6382    6381    6382    6382       0    6384
    6385    6386    6385    6386    6386       0    6388    6389    6390    6389
    6390    6390       0    6392    6393    6394    6393    6394    6394       0
    6396    6397    6398    6397    6398    6398       0    6400    6401    6402
    6401    6402    6402       0    6404    6405    6406    6405    6406    6406
       0    6408    6409    6410    6409    6410    6410       0    6412    6413
    6414    6413    6414    6414       0    6416    6417    6418    6417    6418
    6418       0    6420    6421    6422    6421    6422    6422       0    6424
    6425    6426    6425    6426    6426       0    6428    6429    6430    6429
    6430    6430       0    6432    6433    6434    6433    6434    6434       0
    6436    6437    6438    6437    6438    6438       0    6440    6441    6442
    6441    6442    6442       0    6444    6445    6446    6445    6446    6446
       0    6448    6449    6450    6449    6450    6450       0    6452    6453
    6454    6453    6454    6454       0    6456    6457    6458    6457    6458
    6458       0    6460    6461    6462    6461    6462    6462       0    6464
    6465    6466    6465    6466    6466       0    6468    6469    6470    6469
    6470    6470       0    6472    6473    6474    6473    6474    6474       0
    6476    6477    6478    6477    6478    6478       0    6480    6481    6482
    6481    6482    6482       0    6484    6485    6486    6485    6486    6486
       0
%FLAG HBOND_ACOEF                                                               
%FORMAT(5E16.8)                                                                 

%FLAG HBOND_BCOEF                                                               
%FORMAT(5E16.8)                                                                 

%FLAG HBCUT                                                                     
%FORMAT(5E16.8)                                                                 

%FLAG AMBER_ATOM_TYPE                                                           
%FORMAT(20a4)                                                                   
HC  CT  HC  HC  C   O   N   H   XC  H1  CT  HC  HC  HC  C   O   N   CT  H1  H1  
CT  HC  HC  CT  HC  HC  XC  H1  C   O   N   H   XC  H1  CT  HC  HC  HC  C   O   
N   H   CT  H1  H1  H1  OW  HW  HW  EP  OW  HW  HW  EP  OW  HW  HW  EP  OW  HW  
HW  EP  OW  HW  HW  EP  OW  HW  HW  EP  OW  HW  HW  EP  OW  HW  HW  EP  OW  HW  
HW  EP  OW  HW  HW  EP  OW  HW  HW  EP  OW  HW  HW  EP  OW  HW  HW  EP  OW  HW  
HW  EP  OW  HW  HW  EP  OW  HW  HW  EP  OW  HW  HW  EP  OW  HW  HW  EP  OW  HW  
HW  EP  OW  HW  HW  EP  OW  HW  HW  EP  OW  HW  HW  EP  OW  HW  HW  EP  OW  HW  
HW  EP  OW  HW  HW  EP  OW  HW  HW  EP  OW  HW  HW  EP  OW  HW  HW  EP  OW  HW  
HW  EP  OW  HW  HW  EP  OW  HW  HW  EP  OW  HW  HW  EP  OW  HW  HW  EP  OW  HW  
HW  EP  OW  HW  HW  EP  OW  HW  HW  EP  OW  HW  HW  EP  OW  HW  HW  EP  OW  HW  
HW  EP  OW  HW  HW  EP  OW  HW  HW  EP  OW  HW  HW  EP  OW  HW  HW  EP  OW  HW  
HW  EP  OW  HW  HW  EP  OW  HW  HW  EP  OW  HW  HW  EP  OW  HW  HW  EP  OW  HW  
HW  EP  OW  HW  HW  EP  OW  HW  HW  EP  OW  HW  HW  EP  OW  HW  HW  EP  OW  HW  
HW  EP  OW  HW  HW  EP  OW  HW  HW  EP  OW  HW  HW  EP  OW  HW  HW  EP  OW  HW  
HW  EP  OW  HW  HW  EP  OW  HW  HW  EP  OW  HW  HW  EP  OW  HW  HW  EP  OW  HW  
HW  EP  OW  HW  HW  EP  OW  HW  HW  EP  OW  HW  HW  EP  OW  HW  HW  EP  OW  HW  
HW  EP  OW  HW  HW  EP  OW  HW  HW  EP  OW  HW  HW  EP  OW  HW  HW  EP  OW  HW  
HW  EP  OW  HW  HW  EP  OW  HW  HW  EP  OW  HW  HW  EP  OW  HW  HW  EP  OW  HW  
HW  EP  OW  HW  HW  EP  OW  HW  HW  EP  OW  HW  HW  EP  OW  HW  HW  EP  OW  HW  
HW  EP  OW  HW  HW  EP  OW  HW  HW  EP  OW  HW  HW  EP  OW  HW  HW  EP  OW  HW  
HW  EP  OW  HW  HW  EP  OW  HW  HW  EP  OW  HW  HW  EP  OW  HW  HW  EP  OW  HW  
HW  EP  OW  HW  HW  EP  OW  HW  HW  EP  OW  HW  HW  EP  OW  HW  HW  EP  OW  HW  
HW  EP  OW  HW  HW  EP  OW  HW  HW  EP  OW  HW  HW  EP  OW  HW  HW  EP  OW  HW  
HW  EP  OW  HW  HW  EP  OW  HW  HW  EP  OW  HW  HW  EP  OW  HW  HW  EP  OW  HW  
HW  EP  OW  HW  HW  EP  OW  HW  HW  EP  OW  HW  HW  EP  OW  HW  HW  EP  OW  HW  
HW  EP  OW  HW  HW  EP  OW  HW  HW  EP  OW  HW  HW  EP  OW  HW  HW  EP  OW  HW  
HW  EP  OW  HW  HW  EP  OW  HW  HW  EP  OW  HW  HW  EP  OW  HW  HW  EP  OW  HW  
HW  EP  OW  HW  HW  EP  OW  HW  HW  EP  OW  HW  HW  EP  OW  HW  HW  EP  OW  HW  
HW  EP  OW  HW  HW  EP  OW  HW  HW  EP  OW  HW  HW  EP  OW  HW  HW  EP  OW  HW  
HW  EP  OW  HW  HW  EP  OW  HW  HW  EP  OW  HW  HW  EP  OW  HW  HW  EP  OW  HW  
HW  EP  OW  HW  HW  EP  OW  HW  HW  EP  OW  HW  HW  EP  OW  HW  HW  EP  OW  HW  
HW  EP  OW  HW  HW  EP  OW  HW  HW  EP  OW  HW  HW  EP  OW  HW  HW  EP  OW  HW  
HW  EP  OW  HW  HW  EP  OW  HW  HW  EP  OW  HW  HW  EP  OW  HW  HW  EP  OW  HW  
HW  EP  OW  HW  HW  EP  OW  HW  HW  EP  OW  HW  HW  EP  OW  HW  HW  EP  OW  HW  
HW  EP  OW  HW  HW  EP  OW  HW  HW  EP  OW  HW  HW  EP  OW  HW  HW  EP  OW  HW  
HW  EP  OW  HW  HW  EP  OW  HW  HW  EP  OW  HW  HW  EP  OW  HW  HW  EP  OW  HW  
HW  EP  OW  HW  HW  EP  OW  HW  HW  EP  OW  HW  HW  EP  OW  HW  HW  EP  OW  HW  
HW  EP  OW  HW  HW  EP  OW  HW  HW  EP  OW  HW  HW  EP  OW  HW  HW  EP  OW  HW  
HW  EP  OW  HW  HW  EP  OW  HW  HW  EP  OW  HW  HW  EP  OW  HW  HW  EP  OW  HW  
HW  EP  OW  HW  HW  EP  OW  HW  HW  EP  OW  HW  HW  EP  OW  HW  HW  EP  OW  HW  
HW  EP  OW  HW  HW  EP  OW  HW  HW  EP  OW  HW  HW  EP  OW  HW  HW  EP  OW  HW  
HW  EP  OW  HW  HW  EP  OW  HW  HW  EP  OW  HW  HW  EP  OW  HW  HW  EP  OW  HW  
HW  EP  OW  HW  HW  EP  OW  HW  HW  EP  OW  HW  HW  EP  OW  HW  HW  EP  OW  HW  
HW  EP  OW  HW  HW  EP  OW  HW  HW  EP  OW  HW  HW  EP  OW  HW  HW  EP  OW  HW  
HW  EP  OW  HW  HW  EP  OW  HW  HW  EP  OW  HW  HW  EP  OW  HW  HW  EP  OW  HW  
HW  EP  OW  HW  HW  EP  OW  HW  HW  EP  OW  HW  HW  EP  OW  HW  HW  EP  OW  HW  
HW  EP  OW  HW  HW  EP  OW  HW  HW  EP  OW  HW  HW  EP  OW  HW  HW  EP  OW  HW  
HW  EP  OW  HW  HW  EP  OW  HW  HW  EP  OW  HW  HW  EP  OW  HW  HW  EP  OW  HW  
HW  EP  OW  HW  HW  EP  OW  HW  HW  EP  OW  HW  HW  EP  OW  HW  HW  EP  OW  HW  
HW  EP  OW  HW  HW  EP  OW  HW  HW  EP  OW  HW  HW  EP  OW  HW  HW  EP  OW  HW  
HW  EP  OW  HW  HW  EP  OW  HW  HW  EP  OW  HW  HW  EP  OW  HW  HW  EP  OW  HW  
HW  EP  OW  HW  HW  EP  OW  HW  HW  EP  OW  HW  HW  EP  OW  HW  HW  EP  OW  HW  
HW  EP  OW  HW  HW  EP  OW  HW  HW  EP  OW  HW  HW  EP  OW  HW  HW  EP  OW  HW  
HW  EP  OW  HW  HW  EP  OW  HW  HW  EP  OW  HW  HW  EP  OW  HW  HW  EP  OW  HW  
HW  EP  OW  HW  HW  EP  OW  HW  HW  EP  OW  HW  HW  EP  OW  HW  HW  EP  OW  HW  
HW  EP  OW  HW  HW  EP  OW  HW  HW  EP  OW  HW  HW  EP  OW  HW  HW  EP  OW  HW  
HW  EP  OW  HW  HW  EP  OW  HW  HW  EP  OW  HW  HW  EP  OW  HW  HW  EP  OW  HW  
HW  EP  OW  HW  HW  EP  OW  HW  HW  EP  OW  HW  HW  EP  OW  HW  HW  EP  OW  HW  
HW  EP  OW  HW  HW  EP  OW  HW  HW  EP  OW  HW  HW  EP  OW  HW  HW  EP  OW  HW  
HW  EP  OW  HW  HW  EP  OW  HW  HW  EP  OW  HW  HW  EP  OW  HW  HW  EP  OW  HW  
HW  EP  OW  HW  HW  EP  OW  HW  HW  EP  OW  HW  HW  EP  OW  HW  HW  EP  OW  HW  
HW  EP  OW  HW  HW  EP  OW  HW  HW  EP  OW  HW  HW  EP  OW  HW  HW  EP  OW  HW  
HW  EP  OW  HW  HW  EP  OW  HW  HW  EP  OW  HW  HW  EP  OW  HW  HW  EP  OW  HW  
HW  EP  OW  HW  HW  EP  OW  HW  HW  EP  OW  HW  HW  EP  OW  HW  HW  EP  OW  HW  
HW  EP  OW  HW  HW  EP  OW  HW  HW  EP  OW  HW  HW  EP  OW  HW  HW  EP  OW  HW  
HW  EP  OW  HW  HW  EP  OW  HW  HW  EP  OW  HW  HW  EP  OW  HW  HW  EP  OW  HW  
HW  EP  OW  HW  HW  EP  OW  HW  HW  EP  OW  HW  HW  EP  OW  HW  HW  EP  OW  HW  
HW  EP  OW  HW  HW  EP  OW  HW  HW  EP  OW  HW  HW  EP  OW  HW  HW  EP  OW  HW  
HW  EP  OW  HW  HW  EP  OW  HW  HW  EP  OW  HW  HW  EP  OW  HW  HW  EP  OW  HW  
HW  EP  OW  HW  HW  EP  OW  HW  HW  EP  OW  HW  HW  EP  OW  HW  HW  EP  OW  HW  
HW  EP  OW  HW  HW  EP  OW  HW  HW  EP  OW  HW  HW  EP  OW  HW  HW  EP  OW  HW  
HW  EP  OW  HW  HW  EP  OW  HW  HW  EP  OW  HW  HW  EP  OW  HW  HW  EP  OW  HW  
HW  EP  OW  HW  HW  EP  OW  HW  HW  EP  OW  HW  HW  EP  OW  HW  HW  EP  OW  HW  
HW  EP  OW  HW  HW  EP  OW  HW  HW  EP  OW  HW  HW  EP  OW  HW  HW  EP  OW  HW  
HW  EP  OW  HW  HW  EP  OW  HW  HW  EP  OW  HW  HW  EP  OW  HW  HW  EP  OW  HW  
HW  EP  OW  HW  HW  EP  OW  HW  HW  EP  OW  HW  HW  EP  OW  HW  HW  EP  OW  HW  
HW  EP  OW  HW  HW  EP  OW  HW  HW  EP  OW  HW  HW  EP  OW  HW  HW  EP  OW  HW  
HW  EP  OW  HW  HW  EP  OW  HW  HW  EP  OW  HW  HW  EP  OW  HW  HW  EP  OW  HW  
HW  EP  OW  HW  HW  EP  OW  HW  HW  EP  OW  HW  HW  EP  OW  HW  HW  EP  OW  HW  
HW  EP  OW  HW  HW  EP  OW  HW  HW  EP  OW  HW  HW  EP  OW  HW  HW  EP  OW  HW  
HW  EP  OW  HW  HW  EP  OW  HW  HW  EP  OW  HW  HW  EP  OW  HW  HW  EP  OW  HW  
HW  EP  OW  HW  HW  EP  OW  HW  HW  EP  OW  HW  HW  EP  OW  HW  HW  EP  OW  HW  
HW  EP  OW  HW  HW  EP  OW  HW  HW  EP  OW  HW  HW  EP  OW  HW  HW  EP  OW  HW  
HW  EP  OW  HW  HW  EP  OW  HW  HW  EP  OW  HW  HW  EP  OW  HW  HW  EP  OW  HW  
HW  EP  OW  HW  HW  EP  OW  HW  HW  EP  OW  HW  HW  EP  OW  HW  HW  EP  OW  HW  
HW  EP  OW  HW  HW  EP  OW  HW  HW  EP  OW  HW  HW  EP  OW  HW  HW  EP  OW  HW  
HW  EP  OW  HW  HW  EP  OW  HW  HW  EP  OW  HW  HW  EP  OW  HW  HW  EP  OW  HW  
HW  EP  OW  HW  HW  EP  OW  HW  HW  EP  OW  HW  HW  EP  OW  HW  HW  EP  OW  HW  
HW  EP  OW  HW  HW  EP  OW  HW  HW  EP  OW  HW  HW  EP  OW  HW  HW  EP  OW  HW  
HW  EP  OW  HW  HW  EP  OW  HW  HW  EP  OW  HW  HW  EP  OW  HW  HW  EP  OW  HW  
HW  EP  OW  HW  HW  EP  OW  HW  HW  EP  OW  HW  HW  EP  OW  HW  HW  EP  OW  HW  
HW  EP  OW  HW  HW  EP  OW  HW  HW  EP  OW  HW  HW  EP  OW  HW  HW  EP  OW  HW  
HW  EP  OW  HW  HW  EP  OW  HW  HW  EP  OW  HW  HW  EP  OW  HW  HW  EP  OW  HW  
HW  EP  OW  HW  HW  EP  OW  HW  HW  EP  OW  HW  HW  EP  OW  HW  HW  EP  OW  HW  
HW  EP  OW  HW  HW  EP  OW  HW  HW  EP  OW  HW  HW  EP  OW  HW  HW  EP  OW  HW  
HW  EP  OW  HW  HW  EP  OW  HW  HW  EP  OW  HW  HW  EP  OW  HW  HW  EP  OW  HW  
HW  EP  OW  HW  HW  EP  OW  HW  HW  EP  OW  HW  HW  EP  OW  HW  HW  EP  OW  HW  
HW  EP  OW  HW  HW  EP  OW  HW  HW  EP  OW  HW  HW  EP  OW  HW  HW  EP  OW  HW  
HW  EP  OW  HW  HW  EP  OW  HW  HW  EP  OW  HW  HW  EP  OW  HW  HW  EP  OW  HW  
HW  EP  OW  HW  HW  EP  OW  HW  HW  EP  OW  HW  HW  EP  OW  HW  HW  EP  OW  HW  
HW  EP  OW  HW  HW  EP  OW  HW  HW  EP  OW  HW  HW  EP  OW  HW  HW  EP  OW  HW  
HW  EP  OW  HW  HW  EP  OW  HW  HW  EP  OW  HW  HW  EP  OW  HW  HW  EP  OW  HW  
HW  EP  OW  HW  HW  EP  OW  HW  HW  EP  OW  HW  HW  EP  OW  HW  HW  EP  OW  HW  
HW  EP  OW  HW  HW  EP  OW  HW  HW  EP  OW  HW  HW  EP  OW  HW  HW  EP  OW  HW  
HW  EP  OW  HW  HW  EP  OW  HW  HW  EP  OW  HW  HW  EP  OW  HW  HW  EP  OW  HW  
HW  EP  OW  HW  HW  EP  OW  HW  HW  EP  OW  HW  HW  EP  OW  HW  HW  EP  OW  HW  
HW  EP  OW  HW  HW  EP  OW  HW  HW  EP  OW  HW  HW  EP  OW  HW  HW  EP  OW  HW  
HW  EP  OW  HW  HW  EP  OW  HW  HW  EP  OW  HW  HW  EP  OW  HW  HW  EP  OW  HW  
HW  EP  OW  HW  HW  EP  OW  HW  HW  EP  OW  HW  HW  EP  OW  HW  HW  EP  OW  HW  
HW  EP  OW  HW  HW  EP  OW  HW  HW  EP  OW  HW  HW  EP  OW  HW  HW  EP  OW  HW  
HW  EP  OW  HW  HW  EP  OW  HW  HW  EP  OW  HW  HW  EP  OW  HW  HW  EP  OW  HW  
HW  EP  OW  HW  HW  EP  OW  HW  HW  EP  OW  HW  HW  EP  OW  HW  HW  EP  OW  HW  
HW  EP  OW  HW  HW  EP  OW  HW  HW  EP  OW  HW  HW  EP  OW  HW  HW  EP  OW  HW  
HW  EP  OW  HW  HW  EP  OW  HW  HW  EP  OW  HW  HW  EP  OW  HW  HW  EP  OW  HW  
HW  EP  OW  HW  HW  EP  OW  HW  HW  EP  OW  HW  HW  EP  OW  HW  HW  EP  OW  HW  
HW  EP  OW  HW  HW  EP  OW  HW  HW  EP  OW  HW  HW  EP  OW  HW  HW  EP  OW  HW  
HW  EP  OW  HW  HW  EP  OW  HW  HW  EP  OW  HW  HW  EP  OW  HW  HW  EP  OW  HW  
HW  EP  OW  HW  HW  EP  OW  HW  HW  EP  OW  HW  HW  EP  OW  HW  HW  EP  OW  HW  
HW  EP  OW  HW  HW  EP  OW  HW  HW  EP  OW  HW  HW  EP  OW  HW  HW  EP  OW  HW  
HW  EP  OW  HW  HW  EP  OW  HW  HW  EP  OW  HW  HW  EP  OW  HW  HW  EP  OW  HW  
HW  EP  OW  HW  HW  EP  OW  HW  HW  EP  OW  HW  HW  EP  OW  HW  HW  EP  OW  HW  
HW  EP  OW  HW  HW  EP  OW  HW  HW  EP  OW  HW  HW  EP  OW  HW  HW  EP  OW  HW  
HW  EP  OW  HW  HW  EP  OW  HW  HW  EP  OW  HW  HW  EP  OW  HW  HW  EP  OW  HW  
HW  EP  OW  HW  HW  EP  OW  HW  HW  EP  OW  HW  HW  EP  OW  HW  HW  EP  OW  HW  
HW  EP  OW  HW  HW  EP  OW  HW  HW  EP  OW  HW  HW  EP  OW  HW  HW  EP  OW  HW  
HW  EP  OW  HW  HW  EP  OW  HW  HW  EP  OW  HW  HW  EP  OW  HW  HW  EP  OW  HW  
HW  EP  OW  HW  HW  EP  OW  HW  HW  EP  OW  HW  HW  EP  OW  HW  HW  EP  OW  HW  
HW  EP  OW  HW  HW  EP  OW  HW  HW  EP  OW  HW  HW  EP  OW  HW  HW  EP  OW  HW  
HW  EP  OW  HW  HW  EP  OW  HW  HW  EP  OW  HW  HW  EP  OW  HW  HW  EP  OW  HW  
HW  EP  OW  HW  HW  EP  OW  HW  HW  EP  OW  HW  HW  EP  OW  HW  HW  EP  OW  HW  
HW  EP  OW  HW  HW  EP  OW  HW  HW  EP  OW  HW  HW  EP  OW  HW  HW  EP  OW  HW  
HW  EP  OW  HW  HW  EP  OW  HW  HW  EP  OW  HW  HW  EP  OW  HW  HW  EP  OW  HW  
HW  EP  OW  HW  HW  EP  OW  HW  HW  EP  OW  HW  HW  EP  OW  HW  HW  EP  OW  HW  
HW  EP  OW  HW  HW  EP  OW  HW  HW  EP  OW  HW  HW  EP  OW  HW  HW  EP  OW  HW  
HW  EP  OW  HW  HW  EP  OW  HW  HW  EP  OW  HW  HW  EP  OW  HW  HW  EP  OW  HW  
HW  EP  OW  HW  HW  EP  OW  HW  HW  EP  OW  HW  HW  EP  OW  HW  HW  EP  OW  HW  
HW  EP  OW  HW  HW  EP  OW  HW  HW  EP  OW  HW  HW  EP  OW  HW  HW  EP  OW  HW  
HW  EP  OW  HW  HW  EP  OW  HW  HW  EP  OW  HW  HW  EP  OW  HW  HW  EP  OW  HW  
HW  EP  OW  HW  HW  EP  OW  HW  HW  EP  OW  HW  HW  EP  OW  HW  HW  EP  OW  HW  
HW  EP  OW  HW  HW  EP  OW  HW  HW  EP  OW  HW  HW  EP  OW  HW  HW  EP  OW  HW  
HW  EP  OW  HW  HW  EP  OW  HW  HW  EP  OW  HW  HW  EP  OW  HW  HW  EP  OW  HW  
HW  EP  OW  HW  HW  EP  OW  HW  HW  EP  OW  HW  HW  EP  OW  HW  HW  EP  OW  HW  
HW  EP  OW  HW  HW  EP  OW  HW  HW  EP  OW  HW  HW  EP  OW  HW  HW  EP  OW  HW  
HW  EP  OW  HW  HW  EP  OW  HW  HW  EP  OW  HW  HW  EP  OW  HW  HW  EP  OW  HW  
HW  EP  OW  HW  HW  EP  OW  HW  HW  EP  OW  HW  HW  EP  OW  HW  HW  EP  OW  HW  
HW  EP  OW  HW  HW  EP  OW  HW  HW  EP  OW  HW  HW  EP  OW  HW  HW  EP  OW  HW  
HW  EP  OW  HW  HW  EP  OW  HW  HW  EP  OW  HW  HW  EP  OW  HW  HW  EP  OW  HW  
HW  EP  OW  HW  HW  EP  OW  HW  HW  EP  OW  HW  HW  EP  OW  HW  HW  EP  OW  HW  
HW  EP  OW  HW  HW  EP  OW  HW  HW  EP  OW  HW  HW  EP  OW  HW  HW  EP  OW  HW  
HW  EP  OW  HW  HW  EP  OW  HW  HW  EP  OW  HW  HW  EP  OW  HW  HW  EP  OW  HW  
HW  EP  OW  HW  HW  EP  OW  HW  HW  EP  OW  HW  HW  EP  OW  HW  HW  EP  OW  HW  
HW  EP  OW  HW  HW  EP  OW  HW  HW  EP  OW  HW  HW  EP  OW  HW  HW  EP  OW  HW  
HW  EP  OW  HW  HW  EP  OW  HW  HW  EP  OW  HW  HW  EP  OW  HW  HW  EP  OW  HW  
HW  EP  OW  HW  HW  EP  OW  HW  HW  EP  OW  HW  HW  EP  OW  HW  HW  EP  OW  HW  
HW  EP  OW  HW  HW  EP  OW  HW  HW  EP  OW  HW  HW  EP  OW  HW  HW  EP  OW  HW  
HW  EP  OW  HW  HW  EP  OW  HW  HW  EP  OW  HW  HW  EP  OW  HW  HW  EP  OW  HW  
HW  EP  OW  HW  HW  EP  OW  HW  HW  EP  OW  HW  HW  EP  OW  HW  HW  EP  OW  HW  
HW  EP  OW  HW  HW  EP  OW  HW  HW  EP  OW  HW  HW  EP  OW  HW  HW  EP  OW  HW  
HW  EP  OW  HW  HW  EP  OW  HW  HW  EP  OW  HW  HW  EP  OW  HW  HW  EP  OW  HW  
HW  EP  OW  HW  HW  EP  OW  HW  HW  EP  OW  HW  HW  EP  OW  HW  HW  EP  OW  HW  
HW  EP  OW  HW  HW  EP  OW  HW  HW  EP  OW  HW  HW  EP  OW  HW  HW  EP  OW  HW  
HW  EP  OW  HW  HW  EP  OW  HW  HW  EP  OW  HW  HW  EP  OW  HW  HW  EP  OW  HW  
HW  EP  OW  HW  HW  EP  OW  HW  HW  EP  OW  HW  HW  EP  OW  HW  HW  EP  OW  HW  
HW  EP  OW  HW  HW  EP  OW  HW  HW  EP  OW  HW  HW  EP  OW  HW  HW  EP  OW  HW  
HW  EP  OW  HW  HW  EP  OW  HW  HW  EP  OW  HW  HW  EP  OW  HW  HW  EP  OW  HW  
HW  EP  OW  HW  HW  EP  OW  HW  HW  EP  OW  HW  HW  EP  OW  HW  HW  EP  OW  HW  
HW  EP  OW  HW  HW  EP  OW  HW  HW  EP  OW  HW  HW  EP  OW  HW  HW  EP  OW  HW  
HW  EP  OW  HW  HW  EP  OW  HW  HW  EP  OW  HW  HW  EP  OW  HW  HW  EP  OW  HW  
HW  EP  OW  HW  HW  EP  OW  HW  HW  EP  OW  HW  HW  EP  OW  HW  HW  EP  OW  HW  
HW  EP  OW  HW  HW  EP  OW  HW  HW  EP  OW  HW  HW  EP  OW  HW  HW  EP  OW  HW  
HW  EP  OW  HW  HW  EP  OW  HW  HW  EP  OW  HW  HW  EP  OW  HW  HW  EP  OW  HW  
HW  EP  OW  HW  HW  EP  OW  HW  HW  EP  OW  HW  HW  EP  OW  HW  HW  EP  OW  HW  
HW  EP  OW  HW  HW  EP  OW  HW  HW  EP  OW  HW  HW  EP  OW  HW  HW  EP  OW  HW  
HW  EP  OW  HW  HW  EP  OW  HW  HW  EP  OW  HW  HW  EP  OW  HW  HW  EP  OW  HW  
HW  EP  OW  HW  HW  EP  OW  HW  HW  EP  OW  HW  HW  EP  OW  HW  HW  EP  OW  HW  
HW  EP  OW  HW  HW  EP  OW  HW  HW  EP  OW  HW  HW  EP  OW  HW  HW  EP  OW  HW  
HW  EP  OW  HW  HW  EP  OW  HW  HW  EP  OW  HW  HW  EP  OW  HW  HW  EP  OW  HW  
HW  EP  OW  HW  HW  EP  OW  HW  HW  EP  OW  HW  HW  EP  OW  HW  HW  EP  OW  HW  
HW  EP  OW  HW  HW  EP  OW  HW  HW  EP  OW  HW  HW  EP  OW  HW  HW  EP  OW  HW  
HW  EP  OW  HW  HW  EP  OW  HW  HW  EP  OW  HW  HW  EP  OW  HW  HW  EP  OW  HW  
HW  EP  OW  HW  HW  EP  OW  HW  HW  EP  OW  HW  HW  EP  OW  HW  HW  EP  OW  HW  
HW  EP  OW  HW  HW  EP  OW  HW  HW  EP  OW  HW  HW  EP  OW  HW  HW  EP  OW  HW  
HW  EP  OW  HW  HW  EP  OW  HW  HW  EP  OW  HW  HW  EP  OW  HW  HW  EP  OW  HW  
HW  EP  OW  HW  HW  EP  OW  HW  HW  EP  OW  HW  HW  EP  OW  HW  HW  EP  OW  HW  
HW  EP  OW  HW  HW  EP  OW  HW  HW  EP  OW  HW  HW  EP  OW  HW  HW  EP  OW  HW  
HW  EP  OW  HW  HW  EP  OW  HW  HW  EP  OW  HW  HW  EP  OW  HW  HW  EP  OW  HW  
HW  EP  OW  HW  HW  EP  OW  HW  HW  EP  OW  HW  HW  EP  OW  HW  HW  EP  OW  HW  
HW  EP  OW  HW  HW  EP  OW  HW  HW  EP  OW  HW  HW  EP  OW  HW  HW  EP  OW  HW  
HW  EP  OW  HW  HW  EP  OW  HW  HW  EP  OW  HW  HW  EP  OW  HW  HW  EP  OW  HW  
HW  EP  OW  HW  HW  EP  OW  HW  HW  EP  OW  HW  HW  EP  OW  HW  HW  EP  OW  HW  
HW  EP  OW  HW  HW  EP  OW  HW  HW  EP  OW  HW  HW  EP  OW  HW  HW  EP  OW  HW  
HW  EP  OW  HW  HW  EP  OW  HW  HW  EP  OW  HW  HW  EP  OW  HW  HW  EP  OW  HW  
HW  EP  OW  HW  HW  EP  OW  HW  HW  EP  OW  HW  HW  EP  OW  HW  HW  EP  OW  HW  
HW  EP  OW  HW  HW  EP  OW  HW  HW  EP  OW  HW  HW  EP  OW  HW  HW  EP  OW  HW  
HW  EP  OW  HW  HW  EP  OW  HW  HW  EP  OW  HW  HW  EP  OW  HW  HW  EP  OW  HW  
HW  EP  OW  HW  HW  EP  OW  HW  HW  EP  OW  HW  HW  EP  OW  HW  HW  EP  OW  HW  
HW  EP  OW  HW  HW  EP  OW  HW  HW  EP  OW  HW  HW  EP  OW  HW  HW  EP  OW  HW  
HW  EP  OW  HW  HW  EP  OW  HW  HW  EP  OW  HW  HW  EP  OW  HW  HW  EP  OW  HW  
HW  EP  OW  HW  HW  EP  OW  HW  HW  EP  OW  HW  HW  EP  OW  HW  HW  EP  OW  HW  
HW  EP  OW  HW  HW  EP  OW  HW  HW  EP  OW  HW  HW  EP  OW  HW  HW  EP  OW  HW  
HW  EP  OW  HW  HW  EP  OW  HW  HW  EP  OW  HW  HW  EP  OW  HW  HW  EP  OW  HW  
HW  EP  OW  HW  HW  EP  OW  HW  HW  EP  OW  HW  HW  EP  OW  HW  HW  EP  OW  HW  
HW  EP  OW  HW  HW  EP  OW  HW  HW  EP  OW  HW  HW  EP  OW  HW  HW  EP  OW  HW  
HW  EP  OW  HW  HW  EP  OW  HW  HW  EP  OW  HW  HW  EP  OW  HW  HW  EP  OW  HW  
HW  EP  OW  HW  HW  EP  OW  HW  HW  EP  OW  HW  HW  EP  OW  HW  HW  EP  OW  HW  
HW  EP  OW  HW  HW  EP  OW  HW  HW  EP  OW  HW  HW  EP  OW  HW  HW  EP  OW  HW  
HW  EP  OW  HW  HW  EP  OW  HW  HW  EP  OW  HW  HW  EP  OW  HW  HW  EP  OW  HW  
HW  EP  OW  HW  HW  EP  OW  HW  HW  EP  OW  HW  HW  EP  OW  HW  HW  EP  OW  HW  
HW  EP  OW  HW  HW  EP  OW  HW  HW  EP  OW  HW  HW  EP  OW  HW  HW  EP  OW  HW  
HW  EP  OW  HW  HW  EP  OW  HW  HW  EP  OW  HW  HW  EP  OW  HW  HW  EP  OW  HW  
HW  EP  OW  HW  HW  EP  OW  HW  HW  EP  OW  HW  HW  EP  OW  HW  HW  EP  OW  HW  
HW  EP  OW  HW  HW  EP  OW  HW  HW  EP  OW  HW  HW  EP  OW  HW  HW  EP  OW  HW  
HW  EP  OW  HW  HW  EP  OW  HW  HW  EP  OW  HW  HW  EP  OW  HW  HW  EP  OW  HW  
HW  EP  OW  HW  HW  EP  OW  HW  HW  EP  OW  HW  HW  EP  OW  HW  HW  EP  OW  HW  
HW  EP  OW  HW  HW  EP  OW  HW  HW  EP  OW  HW  HW  EP  OW  HW  HW  EP  OW  HW  
HW  EP  OW  HW  HW  EP  OW  HW  HW  EP  OW  HW  HW  EP  OW  HW  HW  EP  OW  HW  
HW  EP  OW  HW  HW  EP  OW  HW  HW  EP  OW  HW  HW  EP  OW  HW  HW  EP  OW  HW  
HW  EP  OW  HW  HW  EP  OW  HW  HW  EP  OW  HW  HW  EP  OW  HW  HW  EP  OW  HW  
HW  EP  OW  HW  HW  EP  OW  HW  HW  EP  OW  HW  HW  EP  OW  HW  HW  EP  OW  HW  
HW  EP  OW  HW  HW  EP  OW  HW  HW  EP  OW  HW  HW  EP  OW  HW  HW  EP  OW  HW  
HW  EP  OW  HW  HW  EP  OW  HW  HW  EP  OW  HW  HW  EP  OW  HW  HW  EP  OW  HW  
HW  EP  OW  HW  HW  EP  OW  HW  HW  EP  OW  HW  HW  EP  OW  HW  HW  EP  OW  HW  
HW  EP  OW  HW  HW  EP  OW  HW  HW  EP  OW  HW  HW  EP  OW  HW  HW  EP  OW  HW  
HW  EP  OW  HW  HW  EP  OW  HW  HW  EP  OW  HW  HW  EP  OW  HW  HW  EP  OW  HW  
HW  EP  OW  HW  HW  EP  OW  HW  HW  EP  OW  HW  HW  EP  OW  HW  HW  EP  OW  HW  
HW  EP  OW  HW  HW  EP  OW  HW  HW  EP  OW  HW  HW  EP  OW  HW  HW  EP  OW  HW  
HW  EP  OW  HW  HW  EP  OW  HW  HW  EP  OW  HW  HW  EP  OW  HW  HW  EP  OW  HW  
HW  EP  OW  HW  HW  EP  OW  HW  HW  EP  OW  HW  HW  EP  OW  HW  HW  EP  OW  HW  
HW  EP  OW  HW  HW  EP  OW  HW  HW  EP  OW  HW  HW  EP  OW  HW  HW  EP  OW  HW  
HW  EP  OW  HW  HW  EP  OW  HW  HW  EP  OW  HW  HW  EP  OW  HW  HW  EP  OW  HW  
HW  EP  OW  HW  HW  EP  OW  HW  HW  EP  OW  HW  HW  EP  OW  HW  HW  EP  OW  HW  
HW  EP  OW  HW  HW  EP  OW  HW  HW  EP  OW  HW  HW  EP  OW  HW  HW  EP  OW  HW  
HW  EP  OW  HW  HW  EP  OW  HW  HW  EP  OW  HW  HW  EP  OW  HW  HW  EP  OW  HW  
HW  EP  OW  HW  HW  EP  OW  HW  HW  EP  OW  HW  HW  EP  OW  HW  HW  EP  OW  HW  
HW  EP  OW  HW  HW  EP  OW  HW  HW  EP  OW  HW  HW  EP  OW  HW  HW  EP  OW  HW  
HW  EP  OW  HW  HW  EP  OW  HW  HW  EP  OW  HW  HW  EP  OW  HW  HW  EP  OW  HW  
HW  EP  OW  HW  HW  EP  OW  HW  HW  EP  OW  HW  HW  EP  OW  HW  HW  EP  OW  HW  
HW  EP  OW  HW  HW  EP  OW  HW  HW  EP  OW  HW  HW  EP  OW  HW  HW  EP  OW  HW  
HW  EP  OW  HW  HW  EP  OW  HW  HW  EP  OW  HW  HW  EP  OW  HW  HW  EP  OW  HW  
HW  EP  OW  HW  HW  EP  OW  HW  HW  EP  OW  HW  HW  EP  OW  HW  HW  EP  OW  HW  
HW  EP  OW  HW  HW  EP  OW  HW  HW  EP  OW  HW  HW  EP  OW  HW  HW  EP  OW  HW  
HW  EP  OW  HW  HW  EP  OW  HW  HW  EP  OW  HW  HW  EP  OW  HW  HW  EP  OW  HW  
HW  EP  OW  HW  HW  EP  OW  HW  HW  EP  OW  HW  HW  EP  OW  HW  HW  EP  OW  HW  
HW  EP  OW  HW  HW  EP  OW  HW  HW  EP  OW  HW  HW  EP  OW  HW  HW  EP  OW  HW  
HW  EP  OW  HW  HW  EP  OW  HW  HW  EP  OW  HW  HW  EP  OW  HW  HW  EP  OW  HW  
HW  EP  OW  HW  HW  EP  OW  HW  HW  EP  OW  HW  HW  EP  OW  HW  HW  EP  OW  HW  
HW  EP  OW  HW  HW  EP  OW  HW  HW  EP  OW  HW  HW  EP  OW  HW  HW  EP  OW  HW  
HW  EP  OW  HW  HW  EP  OW  HW  HW  EP  OW  HW  HW  EP  OW  HW  HW  EP  OW  HW  
HW  EP  OW  HW  HW  EP  OW  HW  HW  EP  OW  HW  HW  EP  OW  HW  HW  EP  OW  HW  
HW  EP  OW  HW  HW  EP  OW  HW  HW  EP  OW  HW  HW  EP  OW  HW  HW  EP  OW  HW  
HW  EP  OW  HW  HW  EP  OW  HW  HW  EP  OW  HW  HW  EP  OW  HW  HW  EP  OW  HW  
HW  EP  OW  HW  HW  EP  OW  HW  HW  EP  OW  HW  HW  EP  OW  HW  HW  EP  OW  HW  
HW  EP  OW  HW  HW  EP  OW  HW  HW  EP  OW  HW  HW  EP  OW  HW  HW  EP  OW  HW  
HW  EP  OW  HW  HW  EP  OW  HW  HW  EP  OW  HW  HW  EP  OW  HW  HW  EP  OW  HW  
HW  EP  OW  HW  HW  EP  OW  HW  HW  EP  OW  HW  HW  EP  OW  HW  HW  EP  OW  HW  
HW  EP  OW  HW  HW  EP  OW  HW  HW  EP  OW  HW  HW  EP  OW  HW  HW  EP  OW  HW  
HW  EP  OW  HW  HW  EP  OW  HW  HW  EP  OW  HW  HW  EP  OW  HW  HW  EP  OW  HW  
HW  EP  OW  HW  HW  EP  OW  HW  HW  EP  OW  HW  HW  EP  OW  HW  HW  EP  OW  HW  
HW  EP  OW  HW  HW  EP  OW  HW  HW  EP  OW  HW  HW  EP  OW  HW  HW  EP  OW  HW  
HW  EP  OW  HW  HW  EP  OW  HW  HW  EP  OW  HW  HW  EP  OW  HW  HW  EP  OW  HW  
HW  EP  OW  HW  HW  EP  OW  HW  HW  EP  OW  HW  HW  EP  OW  HW  HW  EP  OW  HW  
HW  EP  OW  HW  HW  EP  OW  HW  HW  EP  OW  HW  HW  EP  OW  HW  HW  EP  OW  HW  
HW  EP  OW  HW  HW  EP  OW  HW  HW  EP  OW  HW  HW  EP  OW  HW  HW  EP  OW  HW  
HW  EP  OW  HW  HW  EP  OW  HW  HW  EP  OW  HW  HW  EP  OW  HW  HW  EP  OW  HW  
HW  EP  OW  HW  HW  EP  OW  HW  HW  EP  OW  HW  HW  EP  OW  HW  HW  EP  OW  HW  
HW  EP  OW  HW  HW  EP  OW  HW  HW  EP  OW  HW  HW  EP  OW  HW  HW  EP  OW  HW  
HW  EP  OW  HW  HW  EP  OW  HW  HW  EP  OW  HW  HW  EP  OW  HW  HW  EP  OW  HW  
HW  EP  OW  HW  HW  EP  OW  HW  HW  EP  OW  HW  HW  EP  OW  HW  HW  EP  OW  HW  
HW  EP  OW  HW  HW  EP  OW  HW  HW  EP  OW  HW  HW  EP  OW  HW  HW  EP  OW  HW  
HW  EP  OW  HW  HW  EP  OW  HW  HW  EP  OW  HW  HW  EP  OW  HW  HW  EP  OW  HW  
HW  EP  OW  HW  HW  EP  OW  HW  HW  EP  OW  HW  HW  EP  OW  HW  HW  EP  OW  HW  
HW  EP  OW  HW  HW  EP  OW  HW  HW  EP  OW  HW  HW  EP  OW  HW  HW  EP  OW  HW  
HW  EP  OW  HW  HW  EP  OW  HW  HW  EP  OW  HW  HW  EP  OW  HW  HW  EP  OW  HW  
HW  EP  OW  HW  HW  EP  OW  HW  HW  EP  OW  HW  HW  EP  OW  HW  HW  EP  OW  HW  
HW  EP  OW  HW  HW  EP  OW  HW  HW  EP  OW  HW  HW  EP  OW  HW  HW  EP  OW  HW  
HW  EP  OW  HW  HW  EP  OW  HW  HW  EP  OW  HW  HW  EP  OW  HW  HW  EP  OW  HW  
HW  EP  OW  HW  HW  EP  OW  HW  HW  EP  OW  HW  HW  EP  OW  HW  HW  EP  OW  HW  
HW  EP  OW  HW  HW  EP  OW  HW  HW  EP  OW  HW  HW  EP  OW  HW  HW  EP  OW  HW  
HW  EP  OW  HW  HW  EP  OW  HW  HW  EP  OW  HW  HW  EP  OW  HW  HW  EP  OW  HW  
HW  EP  OW  HW  HW  EP  OW  HW  HW  EP  OW  HW  HW  EP  OW  HW  HW  EP  OW  HW  
HW  EP  OW  HW  HW  EP  OW  HW  HW  EP  OW  HW  HW  EP  OW  HW  HW  EP  OW  HW  
HW  EP  OW  HW  HW  EP  OW  HW  HW  EP  OW  HW  HW  EP  OW  HW  HW  EP  OW  HW  
HW  EP  OW  HW  HW  EP  OW  HW  HW  EP  OW  HW  HW  EP  OW  HW  HW  EP  OW  HW  
HW  EP  OW  HW  HW  EP  OW  HW  HW  EP  OW  HW  HW  EP  OW  HW  HW  EP  OW  HW  
HW  EP  OW  HW  HW  EP  OW  HW  HW  EP  OW  HW  HW  EP  OW  HW  HW  EP  OW  HW  
HW  EP  OW  HW  HW  EP  OW  HW  HW  EP  OW  HW  HW  EP  OW  HW  HW  EP  OW  HW  
HW  EP  OW  HW  HW  EP  OW  HW  HW  EP  OW  HW  HW  EP  OW  HW  HW  EP  OW  HW  
HW  EP  OW  HW  HW  EP  OW  HW  HW  EP  OW  HW  HW  EP  OW  HW  HW  EP  OW  HW  
HW  EP  OW  HW  HW  EP  OW  HW  HW  EP  OW  HW  HW  EP  OW  HW  HW  EP  OW  HW  
HW  EP  OW  HW  HW  EP  OW  HW  HW  EP  OW  HW  HW  EP  OW  HW  HW  EP  OW  HW  
HW  EP  OW  HW  HW  EP  OW  HW  HW  EP  OW  HW  HW  EP  OW  HW  HW  EP  OW  HW  
HW  EP  OW  HW  HW  EP  OW  HW  HW  EP  OW  HW  HW  EP  OW  HW  HW  EP  OW  HW  
HW  EP  OW  HW  HW  EP  OW  HW  HW  EP  OW  HW  HW  EP  OW  HW  HW  EP  OW  HW  
HW  EP  OW  HW  HW  EP  OW  HW  HW  EP  OW  HW  HW  EP  OW  HW  HW  EP  OW  HW  
HW  EP  OW  HW  HW  EP  OW  HW  HW  EP  OW  HW  HW  EP  OW  HW  HW  EP  OW  HW  
HW  EP  OW  HW  HW  EP  OW  HW  HW  EP  OW  HW  HW  EP  OW  HW  HW  EP  OW  HW  
HW  EP  OW  HW  HW  EP  OW  HW  HW  EP  OW  HW  HW  EP  OW  HW  HW  EP  OW  HW  
HW  EP  OW  HW  HW  EP  OW  HW  HW  EP  OW  HW  HW  EP  OW  HW  HW  EP  OW  HW  
HW  EP  OW  HW  HW  EP  OW  HW  HW  EP  OW  HW  HW  EP  OW  HW  HW  EP  OW  HW  
HW  EP  OW  HW  HW  EP  OW  HW  HW  EP  OW  HW  HW  EP  OW  HW  HW  EP  OW  HW  
HW  EP  OW  HW  HW  EP  OW  HW  HW  EP  OW  HW  HW  EP  OW  HW  HW  EP  OW  HW  
HW  EP  OW  HW  HW  EP  OW  HW  HW  EP  OW  HW  HW  EP  OW  HW  HW  EP  OW  HW  
HW  EP  OW  HW  HW  EP  OW  HW  HW  EP  OW  HW  HW  EP  OW  HW  HW  EP  OW  HW  
HW  EP  OW  HW  HW  EP  OW  HW  HW  EP  OW  HW  HW  EP  OW  HW  HW  EP  OW  HW  
HW  EP  OW  HW  HW  EP  OW  HW  HW  EP  OW  HW  HW  EP  OW  HW  HW  EP  OW  HW  
HW  EP  OW  HW  HW  EP  OW  HW  HW  EP  OW  HW  HW  EP  OW  HW  HW  EP  OW  HW  
HW  EP  OW  HW  HW  EP  OW  HW  HW  EP  OW  HW  HW  EP  OW  HW  HW  EP  OW  HW  
HW  EP  OW  HW  HW  EP  OW  HW  HW  EP  OW  HW  HW  EP  OW  HW  HW  EP  OW  HW  
HW  EP  OW  HW  HW  EP  OW  HW  HW  EP  OW  HW  HW  EP  OW  HW  HW  EP  OW  HW  
HW  EP  OW  HW  HW  EP  OW  HW  HW  EP  OW  HW  HW  EP  OW  HW  HW  EP  OW  HW  
HW  EP  OW  HW  HW  EP  OW  HW  HW  EP  OW  HW  HW  EP  OW  HW  HW  EP  OW  HW  
HW  EP  OW  HW  HW  EP  OW  HW  HW  EP  OW  HW  HW  EP  OW  HW  HW  EP  OW  HW  
HW  EP  OW  HW  HW  EP  OW  HW  HW  EP  OW  HW  HW  EP  OW  HW  HW  EP  OW  HW  
HW  EP  OW  HW  HW  EP  OW  HW  HW  EP  OW  HW  HW  EP  OW  HW  HW  EP  OW  HW  
HW  EP  OW  HW  HW  EP  OW  HW  HW  EP  OW  HW  HW  EP  OW  HW  HW  EP  OW  HW  
HW  EP  OW  HW  HW  EP  OW  HW  HW  EP  OW  HW  HW  EP  OW  HW  HW  EP  OW  HW  
HW  EP  OW  HW  HW  EP  OW  HW  HW  EP  OW  HW  HW  EP  OW  HW  HW  EP  OW  HW  
HW  EP  OW  HW  HW  EP  OW  HW  HW  EP  OW  HW  HW  EP  OW  HW  HW  EP  OW  HW  
HW  EP  OW  HW  HW  EP  OW  HW  HW  EP  OW  HW  HW  EP  OW  HW  HW  EP  OW  HW  
HW  EP  OW  HW  HW  EP  OW  HW  HW  EP  OW  HW  HW  EP  OW  HW  HW  EP  OW  HW  
HW  EP  OW  HW  HW  EP  OW  HW  HW  EP  OW  HW  HW  EP  OW  HW  HW  EP  OW  HW  
HW  EP  OW  HW  HW  EP  OW  HW  HW  EP  OW  HW  HW  EP  OW  HW  HW  EP  OW  HW  
HW  EP  OW  HW  HW  EP  OW  HW  HW  EP  OW  HW  HW  EP  OW  HW  HW  EP  OW  HW  
HW  EP  OW  HW  HW  EP  OW  HW  HW  EP  OW  HW  HW  EP  OW  HW  HW  EP  OW  HW  
HW  EP  OW  HW  HW  EP  
%FLAG TREE_CHAIN_CLASSIFICATION                                                 
%FORMAT(20a4)                                                                   
M   M   E   E   M   E   M   E   M   E   3   E   E   E   M   E   M   3   E   E   
3   E   E   B   E   E   M   E   M   E   M   E   M   E   3   E   E   E   M   E   
M   E   M   E   E   E   M   S   E   E   M   S   E   E   M   S   E   E   M   S   
E   E   M   S   E   E   M   S   E   E   M   S   E   E   M   S   E   E   M   S   
E   E   M   S   E   E   M   S   E   E   M   S   E   E   M   S   E   E   M   S   
E   E   M   S   E   E   M   S   E   E   M   S   E   E   M   S   E   E   M   S   
E   E   M   S   E   E   M   S   E   E   M   S   E   E   M   S   E   E   M   S   
E   E   M   S   E   E   M   S   E   E   M   S   E   E   M   S   E   E   M   S   
E   E   M   S   E   E   M   S   E   E   M   S   E   E   M   S   E   E   M   S   
E   E   M   S   E   E   M   S   E   E   M   S   E   E   M   S   E   E   M   S   
E   E   M   S   E   E   M   S   E   E   M   S   E   E   M   S   E   E   M   S   
E   E   M   S   E   E   M   S   E   E   M   S   E   E   M   S   E   E   M   S   
E   E   M   S   E   E   M   S   E   E   M   S   E   E   M   S   E   E   M   S   
E   E   M   S   E   E   M   S   E   E   M   S   E   E   M   S   E   E   M   S   
E   E   M   S   E   E   M   S   E   E   M   S   E   E   M   S   E   E   M   S   
E   E   M   S   E   E   M   S   E   E   M   S   E   E   M   S   E   E   M   S   
E   E   M   S   E   E   M   S   E   E   M   S   E   E   M   S   E   E   M   S   
E   E   M   S   E   E   M   S   E   E   M   S   E   E   M   S   E   E   M   S   
E   E   M   S   E   E   M   S   E   E   M   S   E   E   M   S   E   E   M   S   
E   E   M   S   E   E   M   S   E   E   M   S   E   E   M   S   E   E   M   S   
E   E   M   S   E   E   M   S   E   E   M   S   E   E   M   S   E   E   M   S   
E   E   M   S   E   E   M   S   E   E   M   S   E   E   M   S   E   E   M   S   
E   E   M   S   E   E   M   S   E   E   M   S   E   E   M   S   E   E   M   S   
E   E   M   S   E   E   M   S   E   E   M   S   E   E   M   S   E   E   M   S   
E   E   M   S   E   E   M   S   E   E   M   S   E   E   M   S   E   E   M   S   
E   E   M   S   E   E   M   S   E   E   M   S   E   E   M   S   E   E   M   S   
E   E   M   S   E   E   M   S   E   E   M   S   E   E   M   S   E   E   M   S   
E   E   M   S   E   E   M   S   E   E   M   S   E   E   M   S   E   E   M   S   
E   E   M   S   E   E   M   S   E   E   M   S   E   E   M   S   E   E   M   S   
E   E   M   S   E   E   M   S   E   E   M   S   E   E   M   S   E   E   M   S   
E   E   M   S   E   E   M   S   E   E   M   S   E   E   M   S   E   E   M   S   
E   E   M   S   E   E   M   S   E   E   M   S   E   E   M   S   E   E   M   S   
E   E   M   S   E   E   M   S   E   E   M   S   E   E   M   S   E   E   M   S   
E   E   M   S   E   E   M   S   E   E   M   S   E   E   M   S   E   E   M   S   
E   E   M   S   E   E   M   S   E   E   M   S   E   E   M   S   E   E   M   S   
E   E   M   S   E   E   M   S   E   E   M   S   E   E   M   S   E   E   M   S   
E   E   M   S   E   E   M   S   E   E   M   S   E   E   M   S   E   E   M   S   
E   E   M   S   E   E   M   S   E   E   M   S   E   E   M   S   E   E   M   S   
E   E   M   S   E   E   M   S   E   E   M   S   E   E   M   S   E   E   M   S   
E   E   M   S   E   E   M   S   E   E   M   S   E   E   M   S   E   E   M   S   
E   E   M   S   E   E   M   S   E   E   M   S   E   E   M   S   E   E   M   S   
E   E   M   S   E   E   M   S   E   E   M   S   E   E   M   S   E   E   M   S   
E   E   M   S   E   E   M   S   E   E   M   S   E   E   M   S   E   E   M   S   
E   E   M   S   E   E   M   S   E   E   M   S   E   E   M   S   E   E   M   S   
E   E   M   S   E   E   M   S   E   E   M   S   E   E   M   S   E   E   M   S   
E   E   M   S   E   E   M   S   E   E   M   S   E   E   M   S   E   E   M   S   
E   E   M   S   E   E   M   S   E   E   M   S   E   E   M   S   E   E   M   S   
E   E   M   S   E   E   M   S   E   E   M   S   E   E   M   S   E   E   M   S   
E   E   M   S   E   E   M   S   E   E   M   S   E   E   M   S   E   E   M   S   
E   E   M   S   E   E   M   S   E   E   M   S   E   E   M   S   E   E   M   S   
E   E   M   S   E   E   M   S   E   E   M   S   E   E   M   S   E   E   M   S   
E   E   M   S   E   E   M   S   E   E   M   S   E   E   M   S   E   E   M   S   
E   E   M   S   E   E   M   S   E   E   M   S   E   E   M   S   E   E   M   S   
E   E   M   S   E   E   M   S   E   E   M   S   E   E   M   S   E   E   M   S   
E   E   M   S   E   E   M   S   E   E   M   S   E   E   M   S   E   E   M   S   
E   E   M   S   E   E   M   S   E   E   M   S   E   E   M   S   E   E   M   S   
E   E   M   S   E   E   M   S   E   E   M   S   E   E   M   S   E   E   M   S   
E   E   M   S   E   E   M   S   E   E   M   S   E   E   M   S   E   E   M   S   
E   E   M   S   E   E   M   S   E   E   M   S   E   E   M   S   E   E   M   S   
E   E   M   S   E   E   M   S   E   E   M   S   E   E   M   S   E   E   M   S   
E   E   M   S   E   E   M   S   E   E   M   S   E   E   M   S   E   E   M   S   
E   E   M   S   E   E   M   S   E   E   M   S   E   E   M   S   E   E   M   S   
E   E   M   S   E   E   M   S   E   E   M   S   E   E   M   S   E   E   M   S   
E   E   M   S   E   E   M   S   E   E   M   S   E   E   M   S   E   E   M   S   
E   E   M   S   E   E   M   S   E   E   M   S   E   E   M   S   E   E   M   S   
E   E   M   S   E   E   M   S   E   E   M   S   E   E   M   S   E   E   M   S   
E   E   M   S   E   E   M   S   E   E   M   S   E   E   M   S   E   E   M   S   
E   E   M   S   E   E   M   S   E   E   M   S   E   E   M   S   E   E   M   S   
E   E   M   S   E   E   M   S   E   E   M   S   E   E   M   S   E   E   M   S   
E   E   M   S   E   E   M   S   E   E   M   S   E   E   M   S   E   E   M   S   
E   E   M   S   E   E   M   S   E   E   M   S   E   E   M   S   E   E   M   S   
E   E   M   S   E   E   M   S   E   E   M   S   E   E   M   S   E   E   M   S   
E   E   M   S   E   E   M   S   E   E   M   S   E   E   M   S   E   E   M   S   
E   E   M   S   E   E   M   S   E   E   M   S   E   E   M   S   E   E   M   S   
E   E   M   S   E   E   M   S   E   E   M   S   E   E   M   S   E   E   M   S   
E   E   M   S   E   E   M   S   E   E   M   S   E   E   M   S   E   E   M   S   
E   E   M   S   E   E   M   S   E   E   M   S   E   E   M   S   E   E   M   S   
E   E   M   S   E   E   M   S   E   E   M   S   E   E   M   S   E   E   M   S   
E   E   M   S   E   E   M   S   E   E   M   S   E   E   M   S   E   E   M   S   
E   E   M   S   E   E   M   S   E   E   M   S   E   E   M   S   E   E   M   S   
E   E   M   S   E   E   M   S   E   E   M   S   E   E   M   S   E   E   M   S   
E   E   M   S   E   E   M   S   E   E   M   S   E   E   M   S   E   E   M   S   
E   E   M   S   E   E   M   S   E   E   M   S   E   E   M   S   E   E   M   S   
E   E   M   S   E   E   M   S   E   E   M   S   E   E   M   S   E   E   M   S   
E   E   M   S   E   E   M   S   E   E   M   S   E   E   M   S   E   E   M   S   
E   E   M   S   E   E   M   S   E   E   M   S   E   E   M   S   E   E   M   S   
E   E   M   S   E   E   M   S   E   E   M   S   E   E   M   S   E   E   M   S   
E   E   M   S   E   E   M   S   E   E   M   S   E   E   M   S   E   E   M   S   
E   E   M   S   E   E   M   S   E   E   M   S   E   E   M   S   E   E   M   S   
E   E   M   S   E   E   M   S   E   E   M   S   E   E   M   S   E   E   M   S   
E   E   M   S   E   E   M   S   E   E   M   S   E   E   M   S   E   E   M   S   
E   E   M   S   E   E   M   S   E   E   M   S   E   E   M   S   E   E   M   S   
E   E   M   S   E   E   M   S   E   E   M   S   E   E   M   S   E   E   M   S   
E   E   M   S   E   E   M   S   E   E   M   S   E   E   M   S   E   E   M   S   
E   E   M   S   E   E   M   S   E   E   M   S   E   E   M   S   E   E   M   S   
E   E   M   S   E   E   M   S   E   E   M   S   E   E   M   S   E   E   M   S   
E   E   M   S   E   E   M   S   E   E   M   S   E   E   M   S   E   E   M   S   
E   E   M   S   E   E   M   S   E   E   M   S   E   E   M   S   E   E   M   S   
E   E   M   S   E   E   M   S   E   E   M   S   E   E   M   S   E   E   M   S   
E   E   M   S   E   E   M   S   E   E   M   S   E   E   M   S   E   E   M   S   
E   E   M   S   E   E   M   S   E   E   M   S   E   E   M   S   E   E   M   S   
E   E   M   S   E   E   M   S   E   E   M   S   E   E   M   S   E   E   M   S   
E   E   M   S   E   E   M   S   E   E   M   S   E   E   M   S   E   E   M   S   
E   E   M   S   E   E   M   S   E   E   M   S   E   E   M   S   E   E   M   S   
E   E   M   S   E   E   M   S   E   E   M   S   E   E   M   S   E   E   M   S   
E   E   M   S   E   E   M   S   E   E   M   S   E   E   M   S   E   E   M   S   
E   E   M   S   E   E   M   S   E   E   M   S   E   E   M   S   E   E   M   S   
E   E   M   S   E   E   M   S   E   E   M   S   E   E   M   S   E   E   M   S   
E   E   M   S   E   E   M   S   E   E   M   S   E   E   M   S   E   E   M   S   
E   E   M   S   E   E   M   S   E   E   M   S   E   E   M   S   E   E   M   S   
E   E   M   S   E   E   M   S   E   E   M   S   E   E   M   S   E   E   M   S   
E   E   M   S   E   E   M   S   E   E   M   S   E   E   M   S   E   E   M   S   
E   E   M   S   E   E   M   S   E   E   M   S   E   E   M   S   E   E   M   S   
E   E   M   S   E   E   M   S   E   E   M   S   E   E   M   S   E   E   M   S   
E   E   M   S   E   E   M   S   E   E   M   S   E   E   M   S   E   E   M   S   
E   E   M   S   E   E   M   S   E   E   M   S   E   E   M   S   E   E   M   S   
E   E   M   S   E   E   M   S   E   E   M   S   E   E   M   S   E   E   M   S   
E   E   M   S   E   E   M   S   E   E   M   S   E   E   M   S   E   E   M   S   
E   E   M   S   E   E   M   S   E   E   M   S   E   E   M   S   E   E   M   S   
E   E   M   S   E   E   M   S   E   E   M   S   E   E   M   S   E   E   M   S   
E   E   M   S   E   E   M   S   E   E   M   S   E   E   M   S   E   E   M   S   
E   E   M   S   E   E   M   S   E   E   M   S   E   E   M   S   E   E   M   S   
E   E   M   S   E   E   M   S   E   E   M   S   E   E   M   S   E   E   M   S   
E   E   M   S   E   E   M   S   E   E   M   S   E   E   M   S   E   E   M   S   
E   E   M   S   E   E   M   S   E   E   M   S   E   E   M   S   E   E   M   S   
E   E   M   S   E   E   M   S   E   E   M   S   E   E   M   S   E   E   M   S   
E   E   M   S   E   E   M   S   E   E   M   S   E   E   M   S   E   E   M   S   
E   E   M   S   E   E   M   S   E   E   M   S   E   E   M   S   E   E   M   S   
E   E   M   S   E   E   M   S   E   E   M   S   E   E   M   S   E   E   M   S   
E   E   M   S   E   E   M   S   E   E   M   S   E   E   M   S   E   E   M   S   
E   E   M   S   E   E   M   S   E   E   M   S   E   E   M   S   E   E   M   S   
E   E   M   S   E   E   M   S   E   E   M   S   E   E   M   S   E   E   M   S   
E   E   M   S   E   E   M   S   E   E   M   S   E   E   M   S   E   E   M   S   
E   E   M   S   E   E   M   S   E   E   M   S   E   E   M   S   E   E   M   S   
E   E   M   S   E   E   M   S   E   E   M   S   E   E   M   S   E   E   M   S   
E   E   M   S   E   E   M   S   E   E   M   S   E   E   M   S   E   E   M   S   
E   E   M   S   E   E   M   S   E   E   M   S   E   E   M   S   E   E   M   S   
E   E   M   S   E   E   M   S   E   E   M   S   E   E   M   S   E   E   M   S   
E   E   M   S   E   E   M   S   E   E   M   S   E   E   M   S   E   E   M   S   
E   E   M   S   E   E   M   S   E   E   M   S   E   E   M   S   E   E   M   S   
E   E   M   S   E   E   M   S   E   E   M   S   E   E   M   S   E   E   M   S   
E   E   M   S   E   E   M   S   E   E   M   S   E   E   M   S   E   E   M   S   
E   E   M   S   E   E   M   S   E   E   M   S   E   E   M   S   E   E   M   S   
E   E   M   S   E   E   M   S   E   E   M   S   E   E   M   S   E   E   M   S   
E   E   M   S   E   E   M   S   E   E   M   S   E   E   M   S   E   E   M   S   
E   E   M   S   E   E   M   S   E   E   M   S   E   E   M   S   E   E   M   S   
E   E   M   S   E   E   M   S   E   E   M   S   E   E   M   S   E   E   M   S   
E   E   M   S   E   E   M   S   E   E   M   S   E   E   M   S   E   E   M   S   
E   E   M   S   E   E   M   S   E   E   M   S   E   E   M   S   E   E   M   S   
E   E   M   S   E   E   M   S   E   E   M   S   E   E   M   S   E   E   M   S   
E   E   M   S   E   E   M   S   E   E   M   S   E   E   M   S   E   E   M   S   
E   E   M   S   E   E   M   S   E   E   M   S   E   E   M   S   E   E   M   S   
E   E   M   S   E   E   M   S   E   E   M   S   E   E   M   S   E   E   M   S   
E   E   M   S   E   E   M   S   E   E   M   S   E   E   M   S   E   E   M   S   
E   E   M   S   E   E   M   S   E   E   M   S   E   E   M   S   E   E   M   S   
E   E   M   S   E   E   M   S   E   E   M   S   E   E   M   S   E   E   M   S   
E   E   M   S   E   E   M   S   E   E   M   S   E   E   M   S   E   E   M   S   
E   E   M   S   E   E   M   S   E   E   M   S   E   E   M   S   E   E   M   S   
E   E   M   S   E   E   M   S   E   E   M   S   E   E   M   S   E   E   M   S   
E   E   M   S   E   E   M   S   E   E   M   S   E   E   M   S   E   E   M   S   
E   E   M   S   E   E   M   S   E   E   M   S   E   E   M   S   E   E   M   S   
E   E   M   S   E   E   M   S   E   E   M   S   E   E   M   S   E   E   M   S   
E   E   M   S   E   E   M   S   E   E   M   S   E   E   M   S   E   E   M   S   
E   E   M   S   E   E   M   S   E   E   M   S   E   E   M   S   E   E   M   S   
E   E   M   S   E   E   M   S   E   E   M   S   E   E   M   S   E   E   M   S   
E   E   M   S   E   E   M   S   E   E   M   S   E   E   M   S   E   E   M   S   
E   E   M   S   E   E   M   S   E   E   M   S   E   E   M   S   E   E   M   S   
E   E   M   S   E   E   M   S   E   E   M   S   E   E   M   S   E   E   M   S   
E   E   M   S   E   E   M   S   E   E   M   S   E   E   M   S   E   E   M   S   
E   E   M   S   E   E   M   S   E   E   M   S   E   E   M   S   E   E   M   S   
E   E   M   S   E   E   M   S   E   E   M   S   E   E   M   S   E   E   M   S   
E   E   M   S   E   E   M   S   E   E   M   S   E   E   M   S   E   E   M   S   
E   E   M   S   E   E   M   S   E   E   M   S   E   E   M   S   E   E   M   S   
E   E   M   S   E   E   M   S   E   E   M   S   E   E   M   S   E   E   M   S   
E   E   M   S   E   E   M   S   E   E   M   S   E   E   M   S   E   E   M   S   
E   E   M   S   E   E   M   S   E   E   M   S   E   E   M   S   E   E   M   S   
E   E   M   S   E   E   M   S   E   E   M   S   E   E   M   S   E   E   M   S   
E   E   M   S   E   E   M   S   E   E   M   S   E   E   M   S   E   E   M   S   
E   E   M   S   E   E   M   S   E   E   M   S   E   E   M   S   E   E   M   S   
E   E   M   S   E   E   M   S   E   E   M   S   E   E   M   S   E   E   M   S   
E   E   M   S   E   E   M   S   E   E   M   S   E   E   M   S   E   E   M   S   
E   E   M   S   E   E   M   S   E   E   M   S   E   E   M   S   E   E   M   S   
E   E   M   S   E   E   M   S   E   E   M   S   E   E   M   S   E   E   M   S   
E   E   M   S   E   E   M   S   E   E   M   S   E   E   M   S   E   E   M   S   
E   E   M   S   E   E   M   S   E   E   M   S   E   E   M   S   E   E   M   S   
E   E   M   S   E   E   M   S   E   E   M   S   E   E   M   S   E   E   M   S   
E   E   M   S   E   E   M   S   E   E   M   S   E   E   M   S   E   E   M   S   
E   E   M   S   E   E   M   S   E   E   M   S   E   E   M   S   E   E   M   S   
E   E   M   S   E   E   M   S   E   E   M   S   E   E   M   S   E   E   M   S   
E   E   M   S   E   E   M   S   E   E   M   S   E   E   M   S   E   E   M   S   
E   E   M   S   E   E   M   S   E   E   M   S   E   E   M   S   E   E   M   S   
E   E   M   S   E   E   M   S   E   E   M   S   E   E   M   S   E   E   M   S   
E   E   M   S   E   E   M   S   E   E   M   S   E   E   M   S   E   E   M   S   
E   E   M   S   E   E   M   S   E   E   M   S   E   E   M   S   E   E   M   S   
E   E   M   S   E   E   M   S   E   E   M   S   E   E   M   S   E   E   M   S   
E   E   M   S   E   E   M   S   E   E   M   S   E   E   M   S   E   E   M   S   
E   E   M   S   E   E   M   S   E   E   M   S   E   E   M   S   E   E   M   S   
E   E   M   S   E   E   M   S   E   E   M   S   E   E   M   S   E   E   M   S   
E   E   M   S   E   E   M   S   E   E   M   S   E   E   M   S   E   E   M   S   
E   E   M   S   E   E   M   S   E   E   M   S   E   E   M   S   E   E   M   S   
E   E   M   S   E   E   M   S   E   E   M   S   E   E   M   S   E   E   M   S   
E   E   M   S   E   E   M   S   E   E   M   S   E   E   M   S   E   E   M   S   
E   E   M   S   E   E   M   S   E   E   M   S   E   E   M   S   E   E   M   S   
E   E   M   S   E   E   M   S   E   E   M   S   E   E   M   S   E   E   M   S   
E   E   M   S   E   E   M   S   E   E   M   S   E   E   M   S   E   E   M   S   
E   E   M   S   E   E   M   S   E   E   M   S   E   E   M   S   E   E   M   S   
E   E   M   S   E   E   M   S   E   E   M   S   E   E   M   S   E   E   M   S   
E   E   M   S   E   E   M   S   E   E   M   S   E   E   M   S   E   E   M   S   
E   E   M   S   E   E   M   S   E   E   M   S   E   E   M   S   E   E   M   S   
E   E   M   S   E   E   M   S   E   E   M   S   E   E   M   S   E   E   M   S   
E   E   M   S   E   E   M   S   E   E   M   S   E   E   M   S   E   E   M   S   
E   E   M   S   E   E   M   S   E   E   M   S   E   E   M   S   E   E   M   S   
E   E   M   S   E   E   M   S   E   E   M   S   E   E   M   S   E   E   M   S   
E   E   M   S   E   E   M   S   E   E   M   S   E   E   M   S   E   E   M   S   
E   E   M   S   E   E   M   S   E   E   M   S   E   E   M   S   E   E   M   S   
E   E   M   S   E   E   M   S   E   E   M   S   E   E   M   S   E   E   M   S   
E   E   M   S   E   E   M   S   E   E   M   S   E   E   M   S   E   E   M   S   
E   E   M   S   E   E   M   S   E   E   M   S   E   E   M   S   E   E   M   S   
E   E   M   S   E   E   M   S   E   E   M   S   E   E   M   S   E   E   M   S   
E   E   M   S   E   E   M   S   E   E   M   S   E   E   M   S   E   E   M   S   
E   E   M   S   E   E   M   S   E   E   M   S   E   E   M   S   E   E   M   S   
E   E   M   S   E   E   M   S   E   E   M   S   E   E   M   S   E   E   M   S   
E   E   M   S   E   E   M   S   E   E   M   S   E   E   M   S   E   E   M   S   
E   E   M   S   E   E   M   S   E   E   M   S   E   E   M   S   E   E   M   S   
E   E   M   S   E   E   M   S   E   E   M   S   E   E   M   S   E   E   M   S   
E   E   M   S   E   E   M   S   E   E   M   S   E   E   M   S   E   E   M   S   
E   E   M   S   E   E   M   S   E   E   M   S   E   E   M   S   E   E   M   S   
E   E   M   S   E   E   M   S   E   E   M   S   E   E   M   S   E   E   M   S   
E   E   M   S   E   E   M   S   E   E   M   S   E   E   M   S   E   E   M   S   
E   E   M   S   E   E   M   S   E   E   M   S   E   E   M   S   E   E   M   S   
E   E   M   S   E   E   M   S   E   E   M   S   E   E   M   S   E   E   M   S   
E   E   M   S   E   E   M   S   E   E   M   S   E   E   M   S   E   E   M   S   
E   E   M   S   E   E   M   S   E   E   M   S   E   E   M   S   E   E   M   S   
E   E   M   S   E   E   M   S   E   E   M   S   E   E   M   S   E   E   M   S   
E   E   M   S   E   E   M   S   E   E   M   S   E   E   M   S   E   E   M   S   
E   E   M   S   E   E   M   S   E   E   M   S   E   E   M   S   E   E   M   S   
E   E   M   S   E   E   M   S   E   E   M   S   E   E   M   S   E   E   M   S   
E   E   M   S   E   E   M   S   E   E   M   S   E   E   M   S   E   E   M   S   
E   E   M   S   E   E   M   S   E   E   M   S   E   E   M   S   E   E   M   S   
E   E   M   S   E   E   M   S   E   E   M   S   E   E   M   S   E   E   M   S   
E   E   M   S   E   E   M   S   E   E   M   S   E   E   M   S   E   E   M   S   
E   E   M   S   E   E   M   S   E   E   M   S   E   E   M   S   E   E   M   S   
E   E   M   S   E   E   M   S   E   E   M   S   E   E   M   S   E   E   M   S   
E   E   M   S   E   E   M   S   E   E   M   S   E   E   M   S   E   E   M   S   
E   E   M   S   E   E   M   S   E   E   M   S   E   E   M   S   E   E   M   S   
E   E   M   S   E   E   M   S   E   E   M   S   E   E   M   S   E   E   M   S   
E   E   M   S   E   E   M   S   E   E   M   S   E   E   M   S   E   E   M   S   
E   E   M   S   E   E   M   S   E   E   M   S   E   E   M   S   E   E   M   S   
E   E   M   S   E   E   M   S   E   E   M   S   E   E   M   S   E   E   M   S   
E   E   M   S   E   E   M   S   E   E   M   S   E   E   M   S   E   E   M   S   
E   E   M   S   E   E   M   S   E   E   M   S   E   E   M   S   E   E   M   S   
E   E   M   S   E   E   M   S   E   E   M   S   E   E   M   S   E   E   M   S   
E   E   M   S   E   E   M   S   E   E   M   S   E   E   M   S   E   E   M   S   
E   E   M   S   E   E   M   S   E   E   M   S   E   E   M   S   E   E   M   S   
E   E   M   S   E   E   M   S   E   E   M   S   E   E   M   S   E   E   M   S   
E   E   M   S   E   E   M   S   E   E   M   S   E   E   M   S   E   E   M   S   
E   E   M   S   E   E   M   S   E   E   M   S   E   E   M   S   E   E   M   S   
E   E   M   S   E   E   M   S   E   E   M   S   E   E   M   S   E   E   M   S   
E   E   M   S   E   E   M   S   E   E   M   S   E   E   M   S   E   E   M   S   
E   E   M   S   E   E   M   S   E   E   M   S   E   E   M   S   E   E   M   S   
E   E   M   S   E   E   M   S   E   E   M   S   E   E   M   S   E   E   M   S   
E   E   M   S   E   E   M   S   E   E   M   S   E   E   M   S   E   E   M   S   
E   E   M   S   E   E   M   S   E   E   M   S   E   E   M   S   E   E   M   S   
E   E   M   S   E   E   M   S   E   E   M   S   E   E   M   S   E   E   M   S   
E   E   M   S   E   E   M   S   E   E   M   S   E   E   M   S   E   E   M   S   
E   E   M   S   E   E   M   S   E   E   M   S   E   E   M   S   E   E   M   S   
E   E   M   S   E   E   M   S   E   E   M   S   E   E   M   S   E   E   M   S   
E   E   M   S   E   E   M   S   E   E   M   S   E   E   M   S   E   E   M   S   
E   E   M   S   E   E   M   S   E   E   M   S   E   E   M   S   E   E   M   S   
E   E   M   S   E   E   M   S   E   E   M   S   E   E   M   S   E   E   M   S   
E   E   M   S   E   E   M   S   E   E   M   S   E   E   M   S   E   E   M   S   
E   E   M   S   E   E   M   S   E   E   M   S   E   E   M   S   E   E   M   S   
E   E   M   S   E   E   M   S   E   E   M   S   E   E   M   S   E   E   M   S   
E   E   M   S   E   E   M   S   E   E   M   S   E   E   M   S   E   E   M   S   
E   E   M   S   E   E   M   S   E   E   M   S   E   E   M   S   E   E   M   S   
E   E   M   S   E   E   M   S   E   E   M   S   E   E   M   S   E   E   M   S   
E   E   M   S   E   E   M   S   E   E   M   S   E   E   M   S   E   E   M   S   
E   E   M   S   E   E   M   S   E   E   M   S   E   E   M   S   E   E   M   S   
E   E   M   S   E   E   M   S   E   E   M   S   E   E   M   S   E   E   M   S   
E   E   M   S   E   E   M   S   E   E   M   S   E   E   M   S   E   E   M   S   
E   E   M   S   E   E   M   S   E   E   M   S   E   E   M   S   E   E   M   S   
E   E   M   S   E   E   M   S   E   E   M   S   E   E   M   S   E   E   M   S   
E   E   M   S   E   E   M   S   E   E   M   S   E   E   M   S   E   E   M   S   
E   E   M   S   E   E   M   S   E   E   M   S   E   E   M   S   E   E   M   S   
E   E   M   S   E   E   M   S   E   E   M   S   E   E   M   S   E   E   M   S   
E   E   M   S   E   E   M   S   E   E   M   S   E   E   M   S   E   E   M   S   
E   E   M   S   E   E   M   S   E   E   M   S   E   E   M   S   E   E   M   S   
E   E   M   S   E   E   M   S   E   E   M   S   E   E   M   S   E   E   M   S   
E   E   M   S   E   E   M   S   E   E   M   S   E   E   M   S   E   E   M   S   
E   E   M   S   E   E   M   S   E   E   M   S   E   E   M   S   E   E   M   S   
E   E   M   S   E   E   M   S   E   E   M   S   E   E   M   S   E   E   M   S   
E   E   M   S   E   E   M   S   E   E   M   S   E   E   M   S   E   E   M   S   
E   E   M   S   E   E   M   S   E   E   M   S   E   E   M   S   E   E   M   S   
E   E   M   S   E   E   M   S   E   E   M   S   E   E   M   S   E   E   M   S   
E   E   M   S   E   E   M   S   E   E   M   S   E   E   M   S   E   E   M   S   
E   E   M   S   E   E   M   S   E   E   M   S   E   E   M   S   E   E   M   S   
E   E   M   S   E   E   M   S   E   E   M   S   E   E   M   S   E   E   M   S   
E   E   M   S   E   E   M   S   E   E   M   S   E   E   M   S   E   E   M   S   
E   E   M   S   E   E   M   S   E   E   M   S   E   E   M   S   E   E   M   S   
E   E   M   S   E   E   M   S   E   E   M   S   E   E   M   S   E   E   M   S   
E   E   M   S   E   E   M   S   E   E   M   S   E   E   M   S   E   E   M   S   
E   E   M   S   E   E   M   S   E   E   M   S   E   E   M   S   E   E   M   S   
E   E   M   S   E   E   M   S   E   E   M   S   E   E   M   S   E   E   M   S   
E   E   M   S   E   E   M   S   E   E   M   S   E   E   M   S   E   E   M   S   
E   E   M   S   E   E   M   S   E   E   M   S   E   E   M   S   E   E   M   S   
E   E   M   S   E   E   M   S   E   E   M   S   E   E   M   S   E   E   M   S   
E   E   M   S   E   E   M   S   E   E   M   S   E   E   M   S   E   E   M   S   
E   E   M   S   E   E   M   S   E   E   M   S   E   E   M   S   E   E   M   S   
E   E   M   S   E   E   M   S   E   E   M   S   E   E   M   S   E   E   M   S   
E   E   M   S   E   E   M   S   E   E   M   S   E   E   M   S   E   E   M   S   
E   E   M   S   E   E   M   S   E   E   M   S   E   E   M   S   E   E   M   S   
E   E   M   S   E   E   M   S   E   E   M   S   E   E   M   S   E   E   M   S   
E   E   M   S   E   E   M   S   E   E   M   S   E   E   M   S   E   E   M   S   
E   E   M   S   E   E   M   S   E   E   M   S   E   E   M   S   E   E   M   S   
E   E   M   S   E   E   M   S   E   E   M   S   E   E   M   S   E   E   M   S   
E   E   M   S   E   E   M   S   E   E   M   S   E   E   M   S   E   E   M   S   
E   E   M   S   E   E   M   S   E   E   M   S   E   E   M   S   E   E   M   S   
E   E   M   S   E   E   M   S   E   E   M   S   E   E   M   S   E   E   M   S   
E   E   M   S   E   E   M   S   E   E   M   S   E   E   M   S   E   E   M   S   
E   E   M   S   E   E   M   S   E   E   M   S   E   E   M   S   E   E   M   S   
E   E   M   S   E   E   M   S   E   E   M   S   E   E   M   S   E   E   M   S   
E   E   M   S   E   E   M   S   E   E   M   S   E   E   M   S   E   E   M   S   
E   E   M   S   E   E   M   S   E   E   M   S   E   E   M   S   E   E   M   S   
E   E   M   S   E   E   M   S   E   E   M   S   E   E   M   S   E   E   M   S   
E   E   M   S   E   E   
%FLAG JOIN_ARRAY                                                                
%FORMAT(10I8)                                                                   
       0       0       0       0       0       0       0       0       0       0
       0       0       0       0       0       0       0       0       0       0
       0       0       0       0       0       0       0       0       0       0
       0       0       0       0       0       0       0       0       0       0
       0       0       0       0       0       0       0       0       0       0
       0       0       0       0       0       0       0       0       0       0
       0       0       0       0       0       0       0       0       0       0
       0       0       0       0       0       0       0       0       0       0
       0       0       0       0       0       0       0       0       0       0
       0       0       0       0       0       0       0       0       0       0
       0       0       0       0       0       0       0       0       0       0
       0       0       0       0       0       0       0       0       0       0
       0       0       0       0       0       0       0       0       0       0
       0       0       0       0       0       0       0       0       0       0
       0       0       0       0       0       0       0       0       0       0
       0       0       0       0       0       0       0       0       0       0
       0       0       0       0       0       0       0       0       0       0
       0       0       0       0       0       0       0       0       0       0
       0       0       0       0       0       0       0       0       0       0
       0       0       0       0       0       0       0       0       0       0
       0       0       0       0       0       0       0       0       0       0
       0       0       0       0       0       0       0       0       0       0
       0       0       0       0       0       0       0       0       0       0
       0       0       0       0       0       0       0       0       0       0
       0       0       0       0       0       0       0       0       0       0
       0       0       0       0       0       0       0       0       0       0
       0       0       0       0       0       0       0       0       0       0
       0       0       0       0       0       0       0       0       0       0
       0       0       0       0       0       0       0       0       0       0
       0       0       0       0       0       0       0       0       0       0
       0       0       0       0       0       0       0       0       0       0
       0       0       0       0       0       0       0       0       0       0
       0       0       0       0       0       0       0       0       0       0
       0       0       0       0       0       0       0       0       0       0
       0       0       0       0       0       0       0       0       0       0
       0       0       0       0       0       0       0       0       0       0
       0       0       0       0       0       0       0       0       0       0
       0       0       0       0       0       0       0       0       0       0
       0       0       0       0       0       0       0       0       0       0
       0       0       0       0       0       0       0       0       0       0
       0       0       0       0       0       0       0       0       0       0
       0       0       0       0       0       0       0       0       0       0
       0       0       0       0       0       0       0       0       0       0
       0       0       0       0       0       0       0       0       0       0
       0       0       0       0       0       0       0       0       0       0
       0       0       0       0       0       0       0       0       0       0
       0       0       0       0       0       0       0       0       0       0
       0       0       0       0       0       0       0       0       0       0
       0       0       0       0       0       0       0       0       0       0
       0       0       0       0       0       0       0       0       0       0
       0       0       0       0       0       0       0       0       0       0
       0       0       0       0       0       0       0       0       0       0
       0       0       0       0       0       0       0       0       0       0
       0       0       0       0       0       0       0       0       0       0
       0       0       0       0       0       0       0       0       0       0
       0       0       0       0       0       0       0       0       0       0
       0       0       0       0       0       0       0       0       0       0
       0       0       0       0       0       0       0       0       0       0
       0       0       0       0       0       0       0       0       0       0
       0       0       0       0       0       0       0       0       0       0
       0       0       0       0       0       0       0       0       0       0
       0       0       0       0       0       0       0       0       0       0
       0       0       0       0       0       0       0       0       0       0
       0       0       0       0       0       0       0       0       0       0
       0       0       0       0       0       0       0       0       0       0
       0       0       0       0       0       0       0       0       0       0
       0       0       0       0       0       0       0       0       0       0
       0       0       0       0       0       0       0       0       0       0
       0       0       0       0       0       0       0       0       0       0
       0       0       0       0       0       0       0       0       0       0
       0       0       0       0       0       0       0       0       0       0
       0       0       0       0       0       0       0       0       0       0
       0       0       0       0       0       0       0       0       0       0
       0       0       0       0       0       0       0       0       0       0
       0       0       0       0       0       0       0       0       0       0
       0       0       0       0       0       0       0       0       0       0
       0       0       0       0       0       0       0       0       0       0
       0       0       0       0       0       0       0       0       0       0
       0       0       0       0       0       0       0       0       0       0
       0       0       0       0       0       0       0       0       0       0
       0       0       0       0       0       0       0       0       0       0
       0       0       0       0       0       0       0       0       0       0
       0       0       0       0       0       0       0       0       0       0
       0       0       0       0       0       0       0       0       0       0
       0       0       0       0       0       0       0       0       0       0
       0       0       0       0       0       0       0       0       0       0
       0       0       0       0       0       0       0       0       0       0
       0       0       0       0       0       0       0       0       0       0
       0       0       0       0       0       0       0       0       0       0
       0       0       0       0       0       0       0       0       0       0
       0       0       0       0       0       0       0       0       0       0
       0       0       0       0       0       0       0       0       0       0
       0       0       0       0       0       0       0       0       0       0
       0       0       0       0       0       0       0       0       0       0
       0       0       0       0       0       0       0       0       0       0
       0       0       0       0       0       0       0       0       0       0
       0       0       0       0       0       0       0       0       0       0
       0       0       0       0       0       0       0       0       0       0
       0       0       0       0       0       0       0       0       0       0
       0       0       0       0       0       0       0       0       0       0
       0       0       0       0       0       0       0       0       0       0
       0       0       0       0       0       0       0       0       0       0
       0       0       0       0       0       0       0       0       0       0
       0       0       0       0       0       0       0       0       0       0
       0       0       0       0       0       0       0       0       0       0
       0       0       0       0       0       0       0       0       0       0
       0       0       0       0       0       0       0       0       0       0
       0       0       0       0       0       0       0       0       0       0
       0       0       0       0       0       0       0       0       0       0
       0       0       0       0       0       0       0       0       0       0
       0       0       0       0       0       0       0       0       0       0
       0       0       0       0       0       0       0       0       0       0
       0       0       0       0       0       0       0       0       0       0
       0       0       0       0       0       0       0       0       0       0
       0       0       0       0       0       0       0       0       0       0
       0       0       0       0       0       0       0       0       0       0
       0       0       0       0       0       0       0       0       0       0
       0       0       0       0       0       0       0       0       0       0
       0       0       0       0       0       0       0       0       0       0
       0       0       0       0       0       0       0       0       0       0
       0       0       0       0       0       0       0       0       0       0
       0       0       0       0       0       0       0       0       0       0
       0       0       0       0       0       0       0       0       0       0
       0       0       0       0       0       0       0       0       0       0
       0       0       0       0       0       0       0       0       0       0
       0       0       0       0       0       0       0       0       0       0
       0       0       0       0       0       0       0       0       0       0
       0       0       0       0       0       0       0       0       0       0
       0       0       0       0       0       0       0       0       0       0
       0       0       0       0       0       0       0       0       0       0
       0       0       0       0       0       0       0       0       0       0
       0       0       0       0       0       0       0       0       0       0
       0       0       0       0       0       0       0       0       0       0
       0       0       0       0       0       0       0       0       0       0
       0       0       0       0       0       0       0       0       0       0
       0       0       0       0       0       0       0       0       0       0
       0       0       0       0       0       0       0       0       0       0
       0       0       0       0       0       0       0       0       0       0
       0       0       0       0       0       0       0       0       0       0
       0       0       0       0       0       0       0       0       0       0
       0       0       0       0       0       0       0       0       0       0
       0       0       0       0       0       0       0       0       0       0
       0       0       0       0       0       0       0       0       0       0
       0       0       0       0       0       0       0       0       0       0
       0       0       0       0       0       0       0       0       0       0
       0       0       0       0       0       0       0       0       0       0
       0       0       0       0       0       0       0       0       0       0
       0       0       0       0       0       0       0       0       0       0
       0       0       0       0       0       0       0       0       0       0
       0       0       0       0       0       0       0       0       0       0
       0       0       0       0       0       0       0       0       0       0
       0       0       0       0       0       0       0       0       0       0
       0       0       0       0       0       0       0       0       0       0
       0       0       0       0       0       0       0       0       0       0
       0       0       0       0       0       0       0       0       0       0
       0       0       0       0       0       0       0       0       0       0
       0       0       0       0       0       0       0       0       0       0
       0       0       0       0       0       0       0       0       0       0
       0       0       0       0       0       0       0       0       0       0
       0       0       0       0       0       0       0       0       0       0
       0       0       0       0       0       0       0       0       0       0
       0       0       0       0       0       0       0       0       0       0
       0       0       0       0       0       0       0       0       0       0
       0       0       0       0       0       0       0       0       0       0
       0       0       0       0       0       0       0       0       0       0
       0       0       0       0       0       0       0       0       0       0
       0       0       0       0       0       0       0       0       0       0
       0       0       0       0       0       0       0       0       0       0
       0       0       0       0       0       0       0       0       0       0
       0       0       0       0       0       0       0       0       0       0
       0       0       0       0       0       0       0       0       0       0
       0       0       0       0       0       0       0       0       0       0
       0       0       0       0       0       0       0       0       0       0
       0       0       0       0       0       0       0       0       0       0
       0       0       0       0       0       0       0       0       0       0
       0       0       0       0       0       0       0       0       0       0
       0       0       0       0       0       0       0       0       0       0
       0       0       0       0       0       0       0       0       0       0
       0       0       0       0       0       0       0       0       0       0
       0       0       0       0       0       0       0       0       0       0
       0       0       0       0       0       0       0       0       0       0
       0       0       0       0       0       0       0       0       0       0
       0       0       0       0       0       0       0       0       0       0
       0       0       0       0       0       0       0       0       0       0
       0       0       0       0       0       0       0       0       0       0
       0       0       0       0       0       0       0       0       0       0
       0       0       0       0       0       0       0       0       0       0
       0       0       0       0       0       0       0       0       0       0
       0       0       0       0       0       0       0       0       0       0
       0       0       0       0       0       0       0       0       0       0
       0       0       0       0       0       0       0       0       0       0
       0       0       0       0       0       0       0       0       0       0
       0       0       0       0       0       0       0       0       0       0
       0       0       0       0       0       0       0       0       0       0
       0       0       0       0       0       0       0       0       0       0
       0       0       0       0       0       0       0       0       0       0
       0       0       0       0       0       0       0       0       0       0
       0       0       0       0       0       0       0       0       0       0
       0       0       0       0       0       0       0       0       0       0
       0       0       0       0       0       0       0       0       0       0
       0       0       0       0       0       0       0       0       0       0
       0       0       0       0       0       0       0       0       0       0
       0       0       0       0       0       0       0       0       0       0
       0       0       0       0       0       0       0       0       0       0
       0       0       0       0       0       0       0       0       0       0
       0       0       0       0       0       0       0       0       0       0
       0       0       0       0       0       0       0       0       0       0
       0       0       0       0       0       0       0       0       0       0
       0       0       0       0       0       0       0       0       0       0
       0       0       0       0       0       0       0       0       0       0
       0       0       0       0       0       0       0       0       0       0
       0       0       0       0       0       0       0       0       0       0
       0       0       0       0       0       0       0       0       0       0
       0       0       0       0       0       0       0       0       0       0
       0       0       0       0       0       0       0       0       0       0
       0       0       0       0       0       0       0       0       0       0
       0       0       0       0       0       0       0       0       0       0
       0       0       0       0       0       0       0       0       0       0
       0       0       0       0       0       0       0       0       0       0
       0       0       0       0       0       0       0       0       0       0
       0       0       0       0       0       0       0       0       0       0
       0       0       0       0       0       0       0       0       0       0
       0       0       0       0       0       0       0       0       0       0
       0       0       0       0       0       0       0       0       0       0
       0       0       0       0       0       0       0       0       0       0
       0       0       0       0       0       0       0       0       0       0
       0       0       0       0       0       0       0       0       0       0
       0       0       0       0       0       0       0       0       0       0
       0       0       0       0       0       0       0       0       0       0
       0       0       0       0       0       0       0       0       0       0
       0       0       0       0       0       0       0       0       0       0
       0       0       0       0       0       0       0       0       0       0
       0       0       0       0       0       0       0       0       0       0
       0       0       0       0       0       0       0       0       0       0
       0       0       0       0       0       0       0       0       0       0
       0       0       0       0       0       0       0       0       0       0
       0       0       0       0       0       0       0       0       0       0
       0       0       0       0       0       0       0       0       0       0
       0       0       0       0       0       0       0       0       0       0
       0       0       0       0       0       0       0       0       0       0
       0       0       0       0       0       0       0       0       0       0
       0       0       0       0       0       0       0       0       0       0
       0       0       0       0       0       0       0       0       0       0
       0       0       0       0       0       0       0       0       0       0
       0       0       0       0       0       0       0       0       0       0
       0       0       0       0       0       0       0       0       0       0
       0       0       0       0       0       0       0       0       0       0
       0       0       0       0       0       0       0       0       0       0
       0       0       0       0       0       0       0       0       0       0
       0       0       0       0       0       0       0       0       0       0
       0       0       0       0       0       0       0       0       0       0
       0       0       0       0       0       0       0       0       0       0
       0       0       0       0       0       0       0       0       0       0
       0       0       0       0       0       0       0       0       0       0
       0       0       0       0       0       0       0       0       0       0
       0       0       0       0       0       0       0       0       0       0
       0       0       0       0       0       0       0       0       0       0
       0       0       0       0       0       0       0       0       0       0
       0       0       0       0       0       0       0       0       0       0
       0       0       0       0       0       0       0       0       0       0
       0       0       0       0       0       0       0       0       0       0
       0       0       0       0       0       0       0       0       0       0
       0       0       0       0       0       0       0       0       0       0
       0       0       0       0       0       0       0       0       0       0
       0       0       0       0       0       0       0       0       0       0
       0       0       0       0       0       0       0       0       0       0
       0       0       0       0       0       0       0       0       0       0
       0       0       0       0       0       0       0       0       0       0
       0       0       0       0       0       0       0       0       0       0
       0       0       0       0       0       0       0       0       0       0
       0       0       0       0       0       0       0       0       0       0
       0       0       0       0       0       0       0       0       0       0
       0       0       0       0       0       0       0       0       0       0
       0       0       0       0       0       0       0       0       0       0
       0       0       0       0       0       0       0       0       0       0
       0       0       0       0       0       0       0       0       0       0
       0       0       0       0       0       0       0       0       0       0
       0       0       0       0       0       0       0       0       0       0
       0       0       0       0       0       0       0       0       0       0
       0       0       0       0       0       0       0       0       0       0
       0       0       0       0       0       0       0       0       0       0
       0       0       0       0       0       0       0       0       0       0
       0       0       0       0       0       0       0       0       0       0
       0       0       0       0       0       0       0       0       0       0
       0       0       0       0       0       0       0       0       0       0
       0       0       0       0       0       0       0       0       0       0
       0       0       0       0       0       0       0       0       0       0
       0       0       0       0       0       0       0       0       0       0
       0       0       0       0       0       0       0       0       0       0
       0       0       0       0       0       0       0       0       0       0
       0       0       0       0       0       0       0       0       0       0
       0       0       0       0       0       0       0       0       0       0
       0       0       0       0       0       0       0       0       0       0
       0       0       0       0       0       0       0       0       0       0
       0       0       0       0       0       0       0       0       0       0
       0       0       0       0       0       0       0       0       0       0
       0       0       0       0       0       0       0       0       0       0
       0       0       0       0       0       0       0       0       0       0
       0       0       0       0       0       0       0       0       0       0
       0       0       0       0       0       0       0       0       0       0
       0       0       0       0       0       0       0       0       0       0
       0       0       0       0       0       0       0       0       0       0
       0       0       0       0       0       0       0       0       0       0
       0       0       0       0       0       0       0       0       0       0
       0       0       0       0       0       0       0       0       0       0
       0       0       0       0       0       0       0       0       0       0
       0       0       0       0       0       0       0       0       0       0
       0       0       0       0       0       0       0       0       0       0
       0       0       0       0       0       0       0       0       0       0
       0       0       0       0       0       0       0       0       0       0
       0       0       0       0       0       0       0       0       0       0
       0       0       0       0       0       0       0       0       0       0
       0       0       0       0       0       0       0       0       0       0
       0       0       0       0       0       0       0       0       0       0
       0       0       0       0       0       0       0       0       0       0
       0       0       0       0       0       0       0       0       0       0
       0       0       0       0       0       0       0       0       0       0
       0       0       0       0       0       0       0       0       0       0
       0       0       0       0       0       0       0       0       0       0
       0       0       0       0       0       0       0       0       0       0
       0       0       0       0       0       0       0       0       0       0
       0       0       0       0       0       0       0       0       0       0
       0       0       0       0       0       0       0       0       0       0
       0       0       0       0       0       0       0       0       0       0
       0       0       0       0       0       0       0       0       0       0
       0       0       0       0       0       0       0       0       0       0
       0       0       0       0       0       0       0       0       0       0
       0       0       0       0       0       0       0       0       0       0
       0       0       0       0       0       0       0       0       0       0
       0       0       0       0       0       0       0       0       0       0
       0       0       0       0       0       0       0       0       0       0
       0       0       0       0       0       0       0       0       0       0
       0       0       0       0       0       0       0       0       0       0
       0       0       0       0       0       0       0       0       0       0
       0       0       0       0       0       0       0       0       0       0
       0       0       0       0       0       0       0       0       0       0
       0       0       0       0       0       0       0       0       0       0
       0       0       0       0       0       0       0       0       0       0
       0       0       0       0       0       0       0       0       0       0
       0       0       0       0       0       0       0       0       0       0
       0       0       0       0       0       0       0       0       0       0
       0       0       0       0       0       0       0       0       0       0
       0       0       0       0       0       0       0       0       0       0
       0       0       0       0       0       0       0       0       0       0
       0       0       0       0       0       0       0       0       0       0
       0       0       0       0       0       0       0       0       0       0
       0       0       0       0       0       0       0       0       0       0
       0       0       0       0       0       0       0       0       0       0
       0       0       0       0       0       0       0       0       0       0
       0       0       0       0       0       0       0       0       0       0
       0       0       0       0       0       0       0       0       0       0
       0       0       0       0       0       0       0       0       0       0
       0       0       0       0       0       0       0       0       0       0
       0       0       0       0       0       0       0       0       0       0
       0       0       0       0       0       0       0       0       0       0
       0       0       0       0       0       0       0       0       0       0
       0       0       0       0       0       0       0       0       0       0
       0       0       0       0       0       0       0       0       0       0
       0       0       0       0       0       0       0       0       0       0
       0       0       0       0       0       0       0       0       0       0
       0       0       0       0       0       0       0       0       0       0
       0       0       0       0       0       0       0       0       0       0
       0       0       0       0       0       0       0       0       0       0
       0       0       0       0       0       0       0       0       0       0
       0       0       0       0       0       0       0       0       0       0
       0       0       0       0       0       0       0       0       0       0
       0       0       0       0       0       0       0       0       0       0
       0       0       0       0       0       0       0       0       0       0
       0       0       0       0       0       0       0       0       0       0
       0       0       0       0       0       0       0       0       0       0
       0       0       0       0       0       0       0       0       0       0
       0       0       0       0       0       0       0       0       0       0
       0       0       0       0       0       0       0       0       0       0
       0       0       0       0       0       0       0       0       0       0
       0       0       0       0       0       0       0       0       0       0
       0       0       0       0       0       0       0       0       0       0
       0       0       0       0       0       0       0       0       0       0
       0       0       0       0       0       0       0       0       0       0
       0       0       0       0       0       0       0       0       0       0
       0       0       0       0       0       0       0       0       0       0
       0       0       0       0       0       0       0       0       0       0
       0       0       0       0       0       0       0       0       0       0
       0       0       0       0       0       0       0       0       0       0
       0       0       0       0       0       0       0       0       0       0
       0       0       0       0       0       0       0       0       0       0
       0       0       0       0       0       0       0       0       0       0
       0       0       0       0       0       0       0       0       0       0
       0       0       0       0       0       0       0       0       0       0
       0       0       0       0       0       0       0       0       0       0
       0       0       0       0       0       0       0       0       0       0
       0       0       0       0       0       0       0       0       0       0
       0       0       0       0       0       0       0       0       0       0
       0       0       0       0       0       0       0       0       0       0
       0       0       0       0       0       0       0       0       0       0
       0       0       0       0       0       0       0       0       0       0
       0       0       0       0       0       0       0       0       0       0
       0       0       0       0       0       0       0       0       0       0
       0       0       0       0       0       0       0       0       0       0
       0       0       0       0       0       0       0       0       0       0
       0       0       0       0       0       0       0       0       0       0
       0       0       0       0       0       0       0       0       0       0
       0       0       0       0       0       0       0       0       0       0
       0       0       0       0       0       0       0       0       0       0
       0       0       0       0       0       0       0       0       0       0
       0       0       0       0       0       0       0       0       0       0
       0       0       0       0       0       0       0       0       0       0
       0       0       0       0       0       0       0       0       0       0
       0       0       0       0       0       0       0       0       0       0
       0       0       0       0       0       0       0       0       0       0
       0       0       0       0       0       0       0       0       0       0
       0       0       0       0       0       0       0       0       0       0
       0       0       0       0       0       0       0       0       0       0
       0       0       0       0       0       0       0       0       0       0
       0       0       0       0       0       0       0       0       0       0
       0       0       0       0       0       0       0       0       0       0
       0       0       0       0       0       0       0       0       0       0
       0       0       0       0       0       0       0       0       0       0
       0       0       0       0       0       0       0       0       0       0
       0       0       0       0       0       0       0       0       0       0
       0       0       0       0       0       0       0       0       0       0
       0       0       0       0       0       0       0       0       0       0
       0       0       0       0       0       0       0       0       0       0
       0       0       0       0       0       0       0       0       0       0
       0       0       0       0       0       0       0       0       0       0
       0       0       0       0       0       0       0       0       0       0
       0       0       0       0       0       0       0       0       0       0
       0       0       0       0       0       0       0       0       0       0
       0       0       0       0       0       0       0       0       0       0
       0       0       0       0       0       0       0       0       0       0
       0       0       0       0       0       0       0       0       0       0
       0       0       0       0       0       0       0       0       0       0
       0       0       0       0       0       0       0       0       0       0
       0       0       0       0       0       0       0       0       0       0
       0       0       0       0       0       0       0       0       0       0
       0       0       0       0       0       0       0       0       0       0
       0       0       0       0       0       0       0       0       0       0
       0       0       0       0       0       0       0       0       0       0
       0       0       0       0       0       0       0       0       0       0
       0       0       0       0       0       0       0       0       0       0
       0       0       0       0       0       0       0       0       0       0
       0       0       0       0       0       0       0       0       0       0
       0       0       0       0       0       0       0       0       0       0
       0       0       0       0       0       0       0       0       0       0
       0       0       0       0       0       0       0       0       0       0
       0       0       0       0       0       0       0       0       0       0
       0       0       0       0       0       0       0       0       0       0
       0       0       0       0       0       0       0       0       0       0
       0       0       0       0       0       0       0       0       0       0
       0       0       0       0       0       0       0       0       0       0
       0       0       0       0       0       0       0       0       0       0
       0       0       0       0       0       0       0       0       0       0
       0       0       0       0       0       0       0       0       0       0
       0       0       0       0       0       0       0       0       0       0
       0       0       0       0       0       0       0       0       0       0
       0       0       0       0       0       0       0       0       0       0
       0       0       0       0       0       0       0       0       0       0
       0       0       0       0       0       0       0       0       0       0
       0       0       0       0       0       0       0       0       0       0
       0       0       0       0       0       0       0       0       0       0
       0       0       0       0       0       0       0       0       0       0
       0       0       0       0       0       0       0       0       0       0
       0       0       0       0       0       0       0       0       0       0
       0       0       0       0       0       0       0       0       0       0
       0       0       0       0       0       0       0       0       0       0
       0       0       0       0       0       0       0       0       0       0
       0       0       0       0       0       0       0       0       0       0
       0       0       0       0       0       0       0       0       0       0
       0       0       0       0       0       0       0       0       0       0
       0       0       0       0       0       0       0       0       0       0
       0       0       0       0       0       0       0       0       0       0
       0       0       0       0       0       0       0       0       0       0
       0       0       0       0       0       0       0       0       0       0
       0       0       0       0       0       0       0       0       0       0
       0       0       0       0       0       0       0       0       0       0
       0       0       0       0       0       0       0       0       0       0
       0       0       0       0       0       0       0       0       0       0
       0       0       0       0       0       0       0       0       0       0
       0       0       0       0       0       0       0       0       0       0
       0       0       0       0       0       0       0       0       0       0
       0       0       0       0       0       0       0       0       0       0
       0       0       0       0       0       0       0       0       0       0
       0       0       0       0       0       0       0       0       0       0
       0       0       0       0       0       0       0       0       0       0
       0       0       0       0       0       0       0       0       0       0
       0       0       0       0       0       0       0       0       0       0
       0       0       0       0       0       0       0       0       0       0
       0       0       0       0       0       0       0       0       0       0
       0       0       0       0       0       0       0       0       0       0
       0       0       0       0       0       0       0       0       0       0
       0       0       0       0       0       0       0       0       0       0
       0       0       0       0       0       0       0       0       0       0
       0       0       0       0       0       0       0       0       0       0
       0       0       0       0       0       0       0       0       0       0
       0       0       0       0       0       0       0       0       0       0
       0       0       0       0       0       0       0       0       0       0
       0       0       0       0       0       0       0       0       0       0
       0       0       0       0       0       0       0       0       0       0
       0       0       0       0       0       0       0       0       0       0
       0       0       0       0       0       0       0       0       0       0
       0       0       0       0       0       0       0       0       0       0
       0       0       0       0       0       0       0       0       0       0
       0       0       0       0       0       0       0       0       0       0
       0       0       0       0       0       0       0       0       0       0
       0       0       0       0       0       0       0       0       0       0
       0       0       0       0       0       0       0       0       0       0
       0       0       0       0       0       0       0       0       0       0
       0       0       0       0       0       0       0       0       0       0
       0       0       0       0       0       0       0       0       0       0
       0       0       0       0       0       0       0       0       0       0
       0       0       0       0       0       0       0       0       0       0
       0       0       0       0       0       0       0       0       0       0
       0       0       0       0       0       0       0       0       0       0
       0       0       0       0       0       0       0       0       0       0
       0       0       0       0       0       0       0       0       0       0
       0       0       0       0       0       0       0       0       0       0
       0       0       0       0       0       0       0       0       0       0
       0       0       0       0       0       0       0       0       0       0
       0       0       0       0       0       0       0       0       0       0
       0       0       0       0       0       0       0       0       0       0
       0       0       0       0       0       0       0       0       0       0
       0       0       0       0       0       0       0       0       0       0
       0       0       0       0       0       0       0       0       0       0
       0       0       0       0       0       0       0       0       0       0
       0       0       0       0       0       0       0       0       0       0
       0       0       0       0       0       0       0       0       0       0
       0       0       0       0       0       0       0       0       0       0
       0       0       0       0       0       0       0       0       0       0
       0       0       0       0       0       0       0       0       0       0
       0       0       0       0       0       0       0       0       0       0
       0       0       0       0       0       0       0       0       0       0
       0       0       0       0       0       0       0       0       0       0
       0       0       0       0       0       0       0       0       0       0
       0       0       0       0       0       0       0       0       0       0
       0       0       0       0       0       0       0       0       0       0
       0       0       0       0       0       0       0       0       0       0
       0       0       0       0       0       0       0       0       0       0
       0       0       0       0       0       0       0       0       0       0
       0       0       0       0       0       0       0       0       0       0
       0       0       0       0       0       0       0       0       0       0
       0       0       0       0       0       0       0       0       0       0
       0       0       0       0       0       0       0       0       0       0
       0       0       0       0       0       0       0       0       0       0
       0       0       0       0       0       0       0       0       0       0
       0       0       0       0       0       0       0       0       0       0
       0       0       0       0       0       0       0       0       0       0
       0       0       0       0       0       0       0       0       0       0
       0       0       0       0       0       0       0       0       0       0
       0       0       0       0       0       0       0       0       0       0
       0       0       0       0       0       0       0       0       0       0
       0       0       0       0       0       0       0       0       0       0
       0       0       0       0       0       0       0       0       0       0
       0       0       0       0       0       0       0       0       0       0
       0       0       0       0       0       0       0       0       0       0
       0       0       0       0       0       0       0       0       0       0
       0       0       0       0       0       0       0       0       0       0
       0       0       0       0       0       0       0       0       0       0
       0       0       0       0       0       0       0       0       0       0
       0       0       0       0       0       0       0       0       0       0
       0       0       0       0       0       0       0       0       0       0
       0       0       0       0       0       0       0       0       0       0
       0       0       0       0       0       0       0       0       0       0
       0       0       0       0       0       0       0       0       0       0
       0       0       0       0       0       0       0       0       0       0
       0       0       0       0       0       0       0       0       0       0
       0       0       0       0       0       0       0       0       0       0
       0       0       0       0       0       0       0       0       0       0
       0       0       0       0       0       0       0       0       0       0
       0       0       0       0       0       0       0       0       0       0
       0       0       0       0       0       0       0       0       0       0
       0       0       0       0       0       0       0       0       0       0
       0       0       0       0       0       0       0       0       0       0
       0       0       0       0       0       0       0       0       0       0
       0       0       0       0       0       0       0       0       0       0
       0       0       0       0       0       0       0       0       0       0
       0       0       0       0       0       0       0       0       0       0
       0       0       0       0       0       0       0       0       0       0
       0       0       0       0       0       0       0       0       0       0
       0       0       0       0       0       0       0       0       0       0
       0       0       0       0       0       0       0       0       0       0
       0       0       0       0       0       0       0       0       0       0
       0       0       0       0       0       0       0       0       0       0
       0       0       0       0       0       0       0       0       0       0
       0       0       0       0       0       0       0       0       0       0
       0       0       0       0       0       0       0       0       0       0
       0       0       0       0       0       0       0       0       0       0
       0       0       0       0       0       0       0       0       0       0
       0       0       0       0       0       0       0       0       0       0
       0       0       0       0       0       0       0       0       0       0
       0       0       0       0       0       0       0       0       0       0
       0       0       0       0       0       0       0       0       0       0
       0       0       0       0       0       0       0       0       0       0
       0       0       0       0       0       0       0       0       0       0
       0       0       0       0       0       0       0       0       0       0
       0       0       0       0       0       0       0       0       0       0
       0       0       0       0       0       0       0       0       0       0
       0       0       0       0       0       0       0       0       0       0
       0       0       0       0       0       0       0       0       0       0
       0       0       0       0       0       0       0       0       0       0
       0       0       0       0       0       0       0       0       0       0
       0       0       0       0       0       0       0       0       0       0
       0       0       0       0       0       0       0       0       0       0
       0       0       0       0       0       0       0       0       0       0
       0       0       0       0       0       0       0       0       0       0
       0       0       0       0       0       0       0       0       0       0
       0       0       0       0       0       0       0       0       0       0
       0       0       0       0       0       0       0       0       0       0
       0       0       0       0       0       0       0       0       0       0
       0       0       0       0       0       0       0       0       0       0
       0       0       0       0       0       0       0       0       0       0
       0       0       0       0       0       0       0       0       0       0
       0       0       0       0       0       0       0       0       0       0
       0       0       0       0       0       0       0       0       0       0
       0       0       0       0       0       0       0       0       0       0
       0       0       0       0       0       0       0       0       0       0
       0       0       0       0       0       0       0       0       0       0
       0       0       0       0       0       0       0       0       0       0
       0       0       0       0       0       0       0       0       0       0
       0       0       0       0       0       0       0       0       0       0
       0       0       0       0       0       0       0       0       0       0
       0       0       0       0       0       0       0       0       0       0
       0       0       0       0       0       0       0       0       0       0
       0       0       0       0       0       0       0       0       0       0
       0       0       0       0       0       0       0       0       0       0
       0       0       0       0       0       0       0       0       0       0
       0       0       0       0       0       0       0       0       0       0
       0       0       0       0       0       0       0       0       0       0
       0       0       0       0       0       0       0       0       0       0
       0       0       0       0       0       0       0       0       0       0
       0       0       0       0       0       0       0       0       0       0
       0       0       0       0       0       0       0       0       0       0
       0       0       0       0       0       0       0       0       0       0
       0       0       0       0       0       0       0       0       0       0
       0       0       0       0       0       0       0       0       0       0
       0       0       0       0       0       0       0       0       0       0
       0       0       0       0       0       0       0       0       0       0
       0       0       0       0       0       0       0       0       0       0
       0       0       0       0       0       0       0       0       0       0
       0       0       0       0       0       0       0       0       0       0
       0       0       0       0       0       0       0       0       0       0
       0       0       0       0       0       0       0       0       0       0
       0       0       0       0       0       0       0       0       0       0
       0       0       0       0       0       0       0       0       0       0
       0       0       0       0       0       0       0       0       0       0
       0       0       0       0       0       0       0       0       0       0
       0       0       0       0       0       0       0       0       0       0
       0       0       0       0       0       0       0       0       0       0
       0       0       0       0       0       0       0       0       0       0
       0       0       0       0       0       0       0       0       0       0
       0       0       0       0       0       0
%FLAG IROTAT                                                                    
%FORMAT(10I8)                                                                   
       0       0       0       0       0       0       0       0       0       0
       0       0       0       0       0       0       0       0       0       0
       0       0       0       0       0       0       0       0       0       0
       0       0       0       0       0       0       0       0       0       0
       0       0       0       0       0       0       0       0       0       0
       0       0       0       0       0       0       0       0       0       0
       0       0       0       0       0       0       0       0       0       0
       0       0       0       0       0       0       0       0       0       0
       0       0       0       0       0       0       0       0       0       0
       0       0       0       0       0       0       0       0       0       0
       0       0       0       0       0       0       0       0       0       0
       0       0       0       0       0       0       0       0       0       0
       0       0       0       0       0       0       0       0       0       0
       0       0       0       0       0       0       0       0       0       0
       0       0       0       0       0       0       0       0       0       0
       0       0       0       0       0       0       0       0       0       0
       0       0       0       0       0       0       0       0       0       0
       0       0       0       0       0       0       0       0       0       0
       0       0       0       0       0       0       0       0       0       0
       0       0       0       0       0       0       0       0       0       0
       0       0       0       0       0       0       0       0       0       0
       0       0       0       0       0       0       0       0       0       0
       0       0       0       0       0       0       0       0       0       0
       0       0       0       0       0       0       0       0       0       0
       0       0       0       0       0       0       0       0       0       0
       0       0       0       0       0       0       0       0       0       0
       0       0       0       0       0       0       0       0       0       0
       0       0       0       0       0       0       0       0       0       0
       0       0       0       0       0       0       0       0       0       0
       0       0       0       0       0       0       0       0       0       0
       0       0       0       0       0       0       0       0       0       0
       0       0       0       0       0       0       0       0       0       0
       0       0       0       0       0       0       0       0       0       0
       0       0       0       0       0       0       0       0       0       0
       0       0       0       0       0       0       0       0       0       0
       0       0       0       0       0       0       0       0       0       0
       0       0       0       0       0       0       0       0       0       0
       0       0       0       0       0       0       0       0       0       0
       0       0       0       0       0       0       0       0       0       0
       0       0       0       0       0       0       0       0       0       0
       0       0       0       0       0       0       0       0       0       0
       0       0       0       0       0       0       0       0       0       0
       0       0       0       0       0       0       0       0       0       0
       0       0       0       0       0       0       0       0       0       0
       0       0       0       0       0       0       0       0       0       0
       0       0       0       0       0       0       0       0       0       0
       0       0       0       0       0       0       0       0       0       0
       0       0       0       0       0       0       0       0       0       0
       0       0       0       0       0       0       0       0       0       0
       0       0       0       0       0       0       0       0       0       0
       0       0       0       0       0       0       0       0       0       0
       0       0       0       0       0       0       0       0       0       0
       0       0       0       0       0       0       0       0       0       0
       0       0       0       0       0       0       0       0       0       0
       0       0       0       0       0       0       0       0       0       0
       0       0       0       0       0       0       0       0       0       0
       0       0       0       0       0       0       0       0       0       0
       0       0       0       0       0       0       0       0       0       0
       0       0       0       0       0       0       0       0       0       0
       0       0       0       0       0       0       0       0       0       0
       0       0       0       0       0       0       0       0       0       0
       0       0       0       0       0       0       0       0       0       0
       0       0       0       0       0       0       0       0       0       0
       0       0       0       0       0       0       0       0       0       0
       0       0       0       0       0       0       0       0       0       0
       0       0       0       0       0       0       0       0       0       0
       0       0       0       0       0       0       0       0       0       0
       0       0       0       0       0       0       0       0       0       0
       0       0       0       0       0       0       0       0       0       0
       0       0       0       0       0       0       0       0       0       0
       0       0       0       0       0       0       0       0       0       0
       0       0       0       0       0       0       0       0       0       0
       0       0       0       0       0       0       0       0       0       0
       0       0       0       0       0       0       0       0       0       0
       0       0       0       0       0       0       0       0       0       0
       0       0       0       0       0       0       0       0       0       0
       0       0       0       0       0       0       0       0       0       0
       0       0       0       0       0       0       0       0       0       0
       0       0       0       0       0       0       0       0       0       0
       0       0       0       0       0       0       0       0       0       0
       0       0       0       0       0       0       0       0       0       0
       0       0       0       0       0       0       0       0       0       0
       0       0       0       0       0       0       0       0       0       0
       0       0       0       0       0       0       0       0       0       0
       0       0       0       0       0       0       0       0       0       0
       0       0       0       0       0       0       0       0       0       0
       0       0       0       0       0       0       0       0       0       0
       0       0       0       0       0       0       0       0       0       0
       0       0       0       0       0       0       0       0       0       0
       0       0       0       0       0       0       0       0       0       0
       0       0       0       0       0       0       0       0       0       0
       0       0       0       0       0       0       0       0       0       0
       0       0       0       0       0       0       0       0       0       0
       0       0       0       0       0       0       0       0       0       0
       0       0       0       0       0       0       0       0       0       0
       0       0       0       0       0       0       0       0       0       0
       0       0       0       0       0       0       0       0       0       0
       0       0       0       0       0       0       0       0       0       0
       0       0       0       0       0       0       0       0       0       0
       0       0       0       0       0       0       0       0       0       0
       0       0       0       0       0       0       0       0       0       0
       0       0       0       0       0       0       0       0       0       0
       0       0       0       0       0       0       0       0       0       0
       0       0       0       0       0       0       0       0       0       0
       0       0       0       0       0       0       0       0       0       0
       0       0       0       0       0       0       0       0       0       0
       0       0       0       0       0       0       0       0       0       0
       0       0       0       0       0       0       0       0       0       0
       0       0       0       0       0       0       0       0       0       0
       0       0       0       0       0       0       0       0       0       0
       0       0       0       0       0       0       0       0       0       0
       0       0       0       0       0       0       0       0       0       0
       0       0       0       0       0       0       0       0       0       0
       0       0       0       0       0       0       0       0       0       0
       0       0       0       0       0       0       0       0       0       0
       0       0       0       0       0       0       0       0       0       0
       0       0       0       0       0       0       0       0       0       0
       0       0       0       0       0       0       0       0       0       0
       0       0       0       0       0       0       0       0       0       0
       0       0       0       0       0       0       0       0       0       0
       0       0       0       0       0       0       0       0       0       0
       0       0       0       0       0       0       0       0       0       0
       0       0       0       0       0       0       0       0       0       0
       0       0       0       0       0       0       0       0       0       0
       0       0       0       0       0       0       0       0       0       0
       0       0       0       0       0       0       0       0       0       0
       0       0       0       0       0       0       0       0       0       0
       0       0       0       0       0       0       0       0       0       0
       0       0       0       0       0       0       0       0       0       0
       0       0       0       0       0       0       0       0       0       0
       0       0       0       0       0       0       0       0       0       0
       0       0       0       0       0       0       0       0       0       0
       0       0       0       0       0       0       0       0       0       0
       0       0       0       0       0       0       0       0       0       0
       0       0       0       0       0       0       0       0       0       0
       0       0       0       0       0       0       0       0       0       0
       0       0       0       0       0       0       0       0       0       0
       0       0       0       0       0       0       0       0       0       0
       0       0       0       0       0       0       0       0       0       0
       0       0       0       0       0       0       0       0       0       0
       0       0       0       0       0       0       0       0       0       0
       0       0       0       0       0       0       0       0       0       0
       0       0       0       0       0       0       0       0       0       0
       0       0       0       0       0       0       0       0       0       0
       0       0       0       0       0       0       0       0       0       0
       0       0       0       0       0       0       0       0       0       0
       0       0       0       0       0       0       0       0       0       0
       0       0       0       0       0       0       0       0       0       0
       0       0       0       0       0       0       0       0       0       0
       0       0       0       0       0       0       0       0       0       0
       0       0       0       0       0       0       0       0       0       0
       0       0       0       0       0       0       0       0       0       0
       0       0       0       0       0       0       0       0       0       0
       0       0       0       0       0       0       0       0       0       0
       0       0       0       0       0       0       0       0       0       0
       0       0       0       0       0       0       0       0       0       0
       0       0       0       0       0       0       0       0       0       0
       0       0       0       0       0       0       0       0       0       0
       0       0       0       0       0       0       0       0       0       0
       0       0       0       0       0       0       0       0       0       0
       0       0       0       0       0       0       0       0       0       0
       0       0       0       0       0       0       0       0       0       0
       0       0       0       0       0       0       0       0       0       0
       0       0       0       0       0       0       0       0       0       0
       0       0       0       0       0       0       0       0       0       0
       0       0       0       0       0       0       0       0       0       0
       0       0       0       0       0       0       0       0       0       0
       0       0       0       0       0       0       0       0       0       0
       0       0       0       0       0       0       0       0       0       0
       0       0       0       0       0       0       0       0       0       0
       0       0       0       0       0       0       0       0       0       0
       0       0       0       0       0       0       0       0       0       0
       0       0       0       0       0       0       0       0       0       0
       0       0       0       0       0       0       0       0       0       0
       0       0       0       0       0       0       0       0       0       0
       0       0       0       0       0       0       0       0       0       0
       0       0       0       0       0       0       0       0       0       0
       0       0       0       0       0       0       0       0       0       0
       0       0       0       0       0       0       0       0       0       0
       0       0       0       0       0       0       0       0       0       0
       0       0       0       0       0       0       0       0       0       0
       0       0       0       0       0       0       0       0       0       0
       0       0       0       0       0       0       0       0       0       0
       0       0       0       0       0       0       0       0       0       0
       0       0       0       0       0       0       0       0       0       0
       0       0       0       0       0       0       0       0       0       0
       0       0       0       0       0       0       0       0       0       0
       0       0       0       0       0       0       0       0       0       0
       0       0       0       0       0       0       0       0       0       0
       0       0       0       0       0       0       0       0       0       0
       0       0       0       0       0       0       0       0       0       0
       0       0       0       0       0       0       0       0       0       0
       0       0       0       0       0       0       0       0       0       0
       0       0       0       0       0       0       0       0       0       0
       0       0       0       0       0       0       0       0       0       0
       0       0       0       0       0       0       0       0       0       0
       0       0       0       0       0       0       0       0       0       0
       0       0       0       0       0       0       0       0       0       0
       0       0       0       0       0       0       0       0       0       0
       0       0       0       0       0       0       0       0       0       0
       0       0       0       0       0       0       0       0       0       0
       0       0       0       0       0       0       0       0       0       0
       0       0       0       0       0       0       0       0       0       0
       0       0       0       0       0       0       0       0       0       0
       0       0       0       0       0       0       0       0       0       0
       0       0       0       0       0       0       0       0       0       0
       0       0       0       0       0       0       0       0       0       0
       0       0       0       0       0       0       0       0       0       0
       0       0       0       0       0       0       0       0       0       0
       0       0       0       0       0       0       0       0       0       0
       0       0       0       0       0       0       0       0       0       0
       0       0       0       0       0       0       0       0       0       0
       0       0       0       0       0       0       0       0       0       0
       0       0       0       0       0       0       0       0       0       0
       0       0       0       0       0       0       0       0       0       0
       0       0       0       0       0       0       0       0       0       0
       0       0       0       0       0       0       0       0       0       0
       0       0       0       0       0       0       0       0       0       0
       0       0       0       0       0       0       0       0       0       0
       0       0       0       0       0       0       0       0       0       0
       0       0       0       0       0       0       0       0       0       0
       0       0       0       0       0       0       0       0       0       0
       0       0       0       0       0       0       0       0       0       0
       0       0       0       0       0       0       0       0       0       0
       0       0       0       0       0       0       0       0       0       0
       0       0       0       0       0       0       0       0       0       0
       0       0       0       0       0       0       0       0       0       0
       0       0       0       0       0       0       0       0       0       0
       0       0       0       0       0       0       0       0       0       0
       0       0       0       0       0       0       0       0       0       0
       0       0       0       0       0       0       0       0       0       0
       0       0       0       0       0       0       0       0       0       0
       0       0       0       0       0       0       0       0       0       0
       0       0       0       0       0       0       0       0       0       0
       0       0       0       0       0       0       0       0       0       0
       0       0       0       0       0       0       0       0       0       0
       0       0       0       0       0       0       0       0       0       0
       0       0       0       0       0       0       0       0       0       0
       0       0       0       0       0       0       0       0       0       0
       0       0       0       0       0       0       0       0       0       0
       0       0       0       0       0       0       0       0       0       0
       0       0       0       0       0       0       0       0       0       0
       0       0       0       0       0       0       0       0       0       0
       0       0       0       0       0       0       0       0       0       0
       0       0       0       0       0       0       0       0       0       0
       0       0       0       0       0       0       0       0       0       0
       0       0       0       0       0       0       0       0       0       0
       0       0       0       0       0       0       0       0       0       0
       0       0       0       0       0       0       0       0       0       0
       0       0       0       0       0       0       0       0       0       0
       0       0       0       0       0       0       0       0       0       0
       0       0       0       0       0       0       0       0       0       0
       0       0       0       0       0       0       0       0       0       0
       0       0       0       0       0       0       0       0       0       0
       0       0       0       0       0       0       0       0       0       0
       0       0       0       0       0       0       0       0       0       0
       0       0       0       0       0       0       0       0       0       0
       0       0       0       0       0       0       0       0       0       0
       0       0       0       0       0       0       0       0       0       0
       0       0       0       0       0       0       0       0       0       0
       0       0       0       0       0       0       0       0       0       0
       0       0       0       0       0       0       0       0       0       0
       0       0       0       0       0       0       0       0       0       0
       0       0       0       0       0       0       0       0       0       0
       0       0       0       0       0       0       0       0       0       0
       0       0       0       0       0       0       0       0       0       0
       0       0       0       0       0       0       0       0       0       0
       0       0       0       0       0       0       0       0       0       0
       0       0       0       0       0       0       0       0       0       0
       0       0       0       0       0       0       0       0       0       0
       0       0       0       0       0       0       0       0       0       0
       0       0       0       0       0       0       0       0       0       0
       0       0       0       0       0       0       0       0       0       0
       0       0       0       0       0       0       0       0       0       0
       0       0       0       0       0       0       0       0       0       0
       0       0       0       0       0       0       0       0       0       0
       0       0       0       0       0       0       0       0       0       0
       0       0       0       0       0       0       0       0       0       0
       0       0       0       0       0       0       0       0       0       0
       0       0       0       0       0       0       0       0       0       0
       0       0       0       0       0       0       0       0       0       0
       0       0       0       0       0       0       0       0       0       0
       0       0       0       0       0       0       0       0       0       0
       0       0       0       0       0       0       0       0       0       0
       0       0       0       0       0       0       0       0       0       0
       0       0       0       0       0       0       0       0       0       0
       0       0       0       0       0       0       0       0       0       0
       0       0       0       0       0       0       0       0       0       0
       0       0       0       0       0       0       0       0       0       0
       0       0       0       0       0       0       0       0       0       0
       0       0       0       0       0       0       0       0       0       0
       0       0       0       0       0       0       0       0       0       0
       0       0       0       0       0       0       0       0       0       0
       0       0       0       0       0       0       0       0       0       0
       0       0       0       0       0       0       0       0       0       0
       0       0       0       0       0       0       0       0       0       0
       0       0       0       0       0       0       0       0       0       0
       0       0       0       0       0       0       0       0       0       0
       0       0       0       0       0       0       0       0       0       0
       0       0       0       0       0       0       0       0       0       0
       0       0       0       0       0       0       0       0       0       0
       0       0       0       0       0       0       0       0       0       0
       0       0       0       0       0       0       0       0       0       0
       0       0       0       0       0       0       0       0       0       0
       0       0       0       0       0       0       0       0       0       0
       0       0       0       0       0       0       0       0       0       0
       0       0       0       0       0       0       0       0       0       0
       0       0       0       0       0       0       0       0       0       0
       0       0       0       0       0       0       0       0       0       0
       0       0       0       0       0       0       0       0       0       0
       0       0       0       0       0       0       0       0       0       0
       0       0       0       0       0       0       0       0       0       0
       0       0       0       0       0       0       0       0       0       0
       0       0       0       0       0       0       0       0       0       0
       0       0       0       0       0       0       0       0       0       0
       0       0       0       0       0       0       0       0       0       0
       0       0       0       0       0       0       0       0       0       0
       0       0       0       0       0       0       0       0       0       0
       0       0       0       0       0       0       0       0       0       0
       0       0       0       0       0       0       0       0       0       0
       0       0       0       0       0       0       0       0       0       0
       0       0       0       0       0       0       0       0       0       0
       0       0       0       0       0       0       0       0       0       0
       0       0       0       0       0       0       0       0       0       0
       0       0       0       0       0       0       0       0       0       0
       0       0       0       0       0       0       0       0       0       0
       0       0       0       0       0       0       0       0       0       0
       0       0       0       0       0       0       0       0       0       0
       0       0       0       0       0       0       0       0       0       0
       0       0       0       0       0       0       0       0       0       0
       0       0       0       0       0       0       0       0       0       0
       0       0       0       0       0       0       0       0       0       0
       0       0       0       0       0       0       0       0       0       0
       0       0       0       0       0       0       0       0       0       0
       0       0       0       0       0       0       0       0       0       0
       0       0       0       0       0       0       0       0       0       0
       0       0       0       0       0       0       0       0       0       0
       0       0       0       0       0       0       0       0       0       0
       0       0       0       0       0       0       0       0       0       0
       0       0       0       0       0       0       0       0       0       0
       0       0       0       0       0       0       0       0       0       0
       0       0       0       0       0       0       0       0       0       0
       0       0       0       0       0       0       0       0       0       0
       0       0       0       0       0       0       0       0       0       0
       0       0       0       0       0       0       0       0       0       0
       0       0       0       0       0       0       0       0       0       0
       0       0       0       0       0       0       0       0       0       0
       0       0       0       0       0       0       0       0       0       0
       0       0       0       0       0       0       0       0       0       0
       0       0       0       0       0       0       0       0       0       0
       0       0       0       0       0       0       0       0       0       0
       0       0       0       0       0       0       0       0       0       0
       0       0       0       0       0       0       0       0       0       0
       0       0       0       0       0       0       0       0       0       0
       0       0       0       0       0       0       0       0       0       0
       0       0       0       0       0       0       0       0       0       0
       0       0       0       0       0       0       0       0       0       0
       0       0       0       0       0       0       0       0       0       0
       0       0       0       0       0       0       0       0       0       0
       0       0       0       0       0       0       0       0       0       0
       0       0       0       0       0       0       0       0       0       0
       0       0       0       0       0       0       0       0       0       0
       0       0       0       0       0       0       0       0       0       0
       0       0       0       0       0       0       0       0       0       0
       0       0       0       0       0       0       0       0       0       0
       0       0       0       0       0       0       0       0       0       0
       0       0       0       0       0       0       0       0       0       0
       0       0       0       0       0       0       0       0       0       0
       0       0       0       0       0       0       0       0       0       0
       0       0       0       0       0       0       0       0       0       0
       0       0       0       0       0       0       0       0       0       0
       0       0       0       0       0       0       0       0       0       0
       0       0       0       0       0       0       0       0       0       0
       0       0       0       0       0       0       0       0       0       0
       0       0       0       0       0       0       0       0       0       0
       0       0       0       0       0       0       0       0       0       0
       0       0       0       0       0       0       0       0       0       0
       0       0       0       0       0       0       0       0       0       0
       0       0       0       0       0       0       0       0       0       0
       0       0       0       0       0       0       0       0       0       0
       0       0       0       0       0       0       0       0       0       0
       0       0       0       0       0       0       0       0       0       0
       0       0       0       0       0       0       0       0       0       0
       0       0       0       0       0       0       0       0       0       0
       0       0       0       0       0       0       0       0       0       0
       0       0       0       0       0       0       0       0       0       0
       0       0       0       0       0       0       0       0       0       0
       0       0       0       0       0       0       0       0       0       0
       0       0       0       0       0       0       0       0       0       0
       0       0       0       0       0       0       0       0       0       0
       0       0       0       0       0       0       0       0       0       0
       0       0       0       0       0       0       0       0       0       0
       0       0       0       0       0       0       0       0       0       0
       0       0       0       0       0       0       0       0       0       0
       0       0       0       0       0       0       0       0       0       0
       0       0       0       0       0       0       0       0       0       0
       0       0       0       0       0       0       0       0       0       0
       0       0       0       0       0       0       0       0       0       0
       0       0       0       0       0       0       0       0       0       0
       0       0       0       0       0       0       0       0       0       0
       0       0       0       0       0       0       0       0       0       0
       0       0       0       0       0       0       0       0       0       0
       0       0       0       0       0       0       0       0       0       0
       0       0       0       0       0       0       0       0       0       0
       0       0       0       0       0       0       0       0       0       0
       0       0       0       0       0       0       0       0       0       0
       0       0       0       0       0       0       0       0       0       0
       0       0       0       0       0       0       0       0       0       0
       0       0       0       0       0       0       0       0       0       0
       0       0       0       0       0       0       0       0       0       0
       0       0       0       0       0       0       0       0       0       0
       0       0       0       0       0       0       0       0       0       0
       0       0       0       0       0       0       0       0       0       0
       0       0       0       0       0       0       0       0       0       0
       0       0       0       0       0       0       0       0       0       0
       0       0       0       0       0       0       0       0       0       0
       0       0       0       0       0       0       0       0       0       0
       0       0       0       0       0       0       0       0       0       0
       0       0       0       0       0       0       0       0       0       0
       0       0       0       0       0       0       0       0       0       0
       0       0       0       0       0       0       0       0       0       0
       0       0       0       0       0       0       0       0       0       0
       0       0       0       0       0       0       0       0       0       0
       0       0       0       0       0       0       0       0       0       0
       0       0       0       0       0       0       0       0       0       0
       0       0       0       0       0       0       0       0       0       0
       0       0       0       0       0       0       0       0       0       0
       0       0       0       0       0       0       0       0       0       0
       0       0       0       0       0       0       0       0       0       0
       0       0       0       0       0       0       0       0       0       0
       0       0       0       0       0       0       0       0       0       0
       0       0       0       0       0       0       0       0       0       0
       0       0       0       0       0       0       0       0       0       0
       0       0       0       0       0       0       0       0       0       0
       0       0       0       0       0       0       0       0       0       0
       0       0       0       0       0       0       0       0       0       0
       0       0       0       0       0       0       0       0       0       0
       0       0       0       0       0       0       0       0       0       0
       0       0       0       0       0       0       0       0       0       0
       0       0       0       0       0       0       0       0       0       0
       0       0       0       0       0       0       0       0       0       0
       0       0       0       0       0       0       0       0       0       0
       0       0       0       0       0       0       0       0       0       0
       0       0       0       0       0       0       0       0       0       0
       0       0       0       0       0       0       0       0       0       0
       0       0       0       0       0       0       0       0       0       0
       0       0       0       0       0       0       0       0       0       0
       0       0       0       0       0       0       0       0       0       0
       0       0       0       0       0       0       0       0       0       0
       0       0       0       0       0       0       0       0       0       0
       0       0       0       0       0       0       0       0       0       0
       0       0       0       0       0       0       0       0       0       0
       0       0       0       0       0       0       0       0       0       0
       0       0       0       0       0       0       0       0       0       0
       0       0       0       0       0       0       0       0       0       0
       0       0       0       0       0       0       0       0       0       0
       0       0       0       0       0       0       0       0       0       0
       0       0       0       0       0       0       0       0       0       0
       0       0       0       0       0       0       0       0       0       0
       0       0       0       0       0       0       0       0       0       0
       0       0       0       0       0       0       0       0       0       0
       0       0       0       0       0       0       0       0       0       0
       0       0       0       0       0       0       0       0       0       0
       0       0       0       0       0       0       0       0       0       0
       0       0       0       0       0       0       0       0       0       0
       0       0       0       0       0       0       0       0       0       0
       0       0       0       0       0       0       0       0       0       0
       0       0       0       0       0       0       0       0       0       0
       0       0       0       0       0       0       0       0       0       0
       0       0       0       0       0       0       0       0       0       0
       0       0       0       0       0       0       0       0       0       0
       0       0       0       0       0       0       0       0       0       0
       0       0       0       0       0       0       0       0       0       0
       0       0       0       0       0       0       0       0       0       0
       0       0       0       0       0       0       0       0       0       0
       0       0       0       0       0       0       0       0       0       0
       0       0       0       0       0       0       0       0       0       0
       0       0       0       0       0       0       0       0       0       0
       0       0       0       0       0       0       0       0       0       0
       0       0       0       0       0       0       0       0       0       0
       0       0       0       0       0       0       0       0       0       0
       0       0       0       0       0       0       0       0       0       0
       0       0       0       0       0       0       0       0       0       0
       0       0       0       0       0       0       0       0       0       0
       0       0       0       0       0       0       0       0       0       0
       0       0       0       0       0       0       0       0       0       0
       0       0       0       0       0       0       0       0       0       0
       0       0       0       0       0       0       0       0       0       0
       0       0       0       0       0       0       0       0       0       0
       0       0       0       0       0       0       0       0       0       0
       0       0       0       0       0       0       0       0       0       0
       0       0       0       0       0       0       0       0       0       0
       0       0       0       0       0       0       0       0       0       0
       0       0       0       0       0       0       0       0       0       0
       0       0       0       0       0       0       0       0       0       0
       0       0       0       0       0       0       0       0       0       0
       0       0       0       0       0       0       0       0       0       0
       0       0       0       0       0       0       0       0       0       0
       0       0       0       0       0       0       0       0       0       0
       0       0       0       0       0       0       0       0       0       0
       0       0       0       0       0       0       0       0       0       0
       0       0       0       0       0       0       0       0       0       0
       0       0       0       0       0       0       0       0       0       0
       0       0       0       0       0       0       0       0       0       0
       0       0       0       0       0       0       0       0       0       0
       0       0       0       0       0       0       0       0       0       0
       0       0       0       0       0       0       0       0       0       0
       0       0       0       0       0       0       0       0       0       0
       0       0       0       0       0       0       0       0       0       0
       0       0       0       0       0       0       0       0       0       0
       0       0       0       0       0       0       0       0       0       0
       0       0       0       0       0       0       0       0       0       0
       0       0       0       0       0       0       0       0       0       0
       0       0       0       0       0       0       0       0       0       0
       0       0       0       0       0       0       0       0       0       0
       0       0       0       0       0       0       0       0       0       0
       0       0       0       0       0       0       0       0       0       0
       0       0       0       0       0       0       0       0       0       0
       0       0       0       0       0       0       0       0       0       0
       0       0       0       0       0       0       0       0       0       0
       0       0       0       0       0       0       0       0       0       0
       0       0       0       0       0       0       0       0       0       0
       0       0       0       0       0       0       0       0       0       0
       0       0       0       0       0       0       0       0       0       0
       0       0       0       0       0       0       0       0       0       0
       0       0       0       0       0       0       0       0       0       0
       0       0       0       0       0       0       0       0       0       0
       0       0       0       0       0       0       0       0       0       0
       0       0       0       0       0       0       0       0       0       0
       0       0       0       0       0       0       0       0       0       0
       0       0       0       0       0       0       0       0       0       0
       0       0       0       0       0       0       0       0       0       0
       0       0       0       0       0       0       0       0       0       0
       0       0       0       0       0       0       0       0       0       0
       0       0       0       0       0       0       0       0       0       0
       0       0       0       0       0       0       0       0       0       0
       0       0       0       0       0       0       0       0       0       0
       0       0       0       0       0       0       0       0       0       0
       0       0       0       0       0       0       0       0       0       0
       0       0       0       0       0       0       0       0       0       0
       0       0       0       0       0       0       0       0       0       0
       0       0       0       0       0       0       0       0       0       0
       0       0       0       0       0       0       0       0       0       0
       0       0       0       0       0       0       0       0       0       0
       0       0       0       0       0       0       0       0       0       0
       0       0       0       0       0       0       0       0       0       0
       0       0       0       0       0       0       0       0       0       0
       0       0       0       0       0       0       0       0       0       0
       0       0       0       0       0       0       0       0       0       0
       0       0       0       0       0       0       0       0       0       0
       0       0       0       0       0       0       0       0       0       0
       0       0       0       0       0       0       0       0       0       0
       0       0       0       0       0       0       0       0       0       0
       0       0       0       0       0       0       0       0       0       0
       0       0       0       0       0       0       0       0       0       0
       0       0       0       0       0       0       0       0       0       0
       0       0       0       0       0       0       0       0       0       0
       0       0       0       0       0       0       0       0       0       0
       0       0       0       0       0       0       0       0       0       0
       0       0       0       0       0       0       0       0       0       0
       0       0       0       0       0       0       0       0       0       0
       0       0       0       0       0       0       0       0       0       0
       0       0       0       0       0       0       0       0       0       0
       0       0       0       0       0       0       0       0       0       0
       0       0       0       0       0       0       0       0       0       0
       0       0       0       0       0       0       0       0       0       0
       0       0       0       0       0       0       0       0       0       0
       0       0       0       0       0       0       0       0       0       0
       0       0       0       0       0       0       0       0       0       0
       0       0       0       0       0       0       0       0       0       0
       0       0       0       0       0       0       0       0       0       0
       0       0       0       0       0       0       0       0       0       0
       0       0       0       0       0       0       0       0       0       0
       0       0       0       0       0       0       0       0       0       0
       0       0       0       0       0       0       0       0       0       0
       0       0       0       0       0       0       0       0       0       0
       0       0       0       0       0       0       0       0       0       0
       0       0       0       0       0       0       0       0       0       0
       0       0       0       0       0       0       0       0       0       0
       0       0       0       0       0       0       0       0       0       0
       0       0       0       0       0       0       0       0       0       0
       0       0       0       0       0       0       0       0       0       0
       0       0       0       0       0       0       0       0       0       0
       0       0       0       0       0       0       0       0       0       0
       0       0       0       0       0       0       0       0       0       0
       0       0       0       0       0       0       0       0       0       0
       0       0       0       0       0       0       0       0       0       0
       0       0       0       0       0       0       0       0       0       0
       0       0       0       0       0       0       0       0       0       0
       0       0       0       0       0       0       0       0       0       0
       0       0       0       0       0       0       0       0       0       0
       0       0       0       0       0       0       0       0       0       0
       0       0       0       0       0       0       0       0       0       0
       0       0       0       0       0       0       0       0       0       0
       0       0       0       0       0       0       0       0       0       0
       0       0       0       0       0       0       0       0       0       0
       0       0       0       0       0       0       0       0       0       0
       0       0       0       0       0       0       0       0       0       0
       0       0       0       0       0       0       0       0       0       0
       0       0       0       0       0       0       0       0       0       0
       0       0       0       0       0       0       0       0       0       0
       0       0       0       0       0       0       0       0       0       0
       0       0       0       0       0       0       0       0       0       0
       0       0       0       0       0       0       0       0       0       0
       0       0       0       0       0       0       0       0       0       0
       0       0       0       0       0       0       0       0       0       0
       0       0       0       0       0       0       0       0       0       0
       0       0       0       0       0       0       0       0       0       0
       0       0       0       0       0       0       0       0       0       0
       0       0       0       0       0       0       0       0       0       0
       0       0       0       0       0       0       0       0       0       0
       0       0       0       0       0       0       0       0       0       0
       0       0       0       0       0       0       0       0       0       0
       0       0       0       0       0       0       0       0       0       0
       0       0       0       0       0       0       0       0       0       0
       0       0       0       0       0       0       0       0       0       0
       0       0       0       0       0       0       0       0       0       0
       0       0       0       0       0       0       0       0       0       0
       0       0       0       0       0       0       0       0       0       0
       0       0       0       0       0       0       0       0       0       0
       0       0       0       0       0       0       0       0       0       0
       0       0       0       0       0       0       0       0       0       0
       0       0       0       0       0       0       0       0       0       0
       0       0       0       0       0       0       0       0       0       0
       0       0       0       0       0       0       0       0       0       0
       0       0       0       0       0       0       0       0       0       0
       0       0       0       0       0       0       0       0       0       0
       0       0       0       0       0       0       0       0       0       0
       0       0       0       0       0       0       0       0       0       0
       0       0       0       0       0       0       0       0       0       0
       0       0       0       0       0       0       0       0       0       0
       0       0       0       0       0       0       0       0       0       0
       0       0       0       0       0       0       0       0       0       0
       0       0       0       0       0       0       0       0       0       0
       0       0       0       0       0       0       0       0       0       0
       0       0       0       0       0       0       0       0       0       0
       0       0       0       0       0       0       0       0       0       0
       0       0       0       0       0       0       0       0       0       0
       0       0       0       0       0       0       0       0       0       0
       0       0       0       0       0       0       0       0       0       0
       0       0       0       0       0       0       0       0       0       0
       0       0       0       0       0       0       0       0       0       0
       0       0       0       0       0       0       0       0       0       0
       0       0       0       0       0       0       0       0       0       0
       0       0       0       0       0       0       0       0       0       0
       0       0       0       0       0       0       0       0       0       0
       0       0       0       0       0       0       0       0       0       0
       0       0       0       0       0       0       0       0       0       0
       0       0       0       0       0       0
%FLAG SOLVENT_POINTERS                                                          
%FORMAT(3I8)                                                                    
       5    1611       2
%FLAG ATOMS_PER_MOLECULE                                                        
%FORMAT(10I8)                                                                   
      46       4       4       4       4       4       4       4       4       4
       4       4       4       4       4       4       4       4       4       4
       4       4       4       4       4       4       4       4       4       4
       4       4       4       4       4       4       4       4       4       4
       4       4       4       4       4       4       4       4       4       4
       4       4       4       4       4       4       4       4       4       4
       4       4       4       4       4       4       4       4       4       4
       4       4       4       4       4       4       4       4       4       4
       4       4       4       4       4       4       4       4       4       4
       4       4       4       4       4       4       4       4       4       4
       4       4       4       4       4       4       4       4       4       4
       4       4       4       4       4       4       4       4       4       4
       4       4       4       4       4       4       4       4       4       4
       4       4       4       4       4       4       4       4       4       4
       4       4       4       4       4       4       4       4       4       4
       4       4       4       4       4       4       4       4       4       4
       4       4       4       4       4       4       4       4       4       4
       4       4       4       4       4       4       4       4       4       4
       4       4       4       4       4       4       4       4       4       4
       4       4       4       4       4       4       4       4       4       4
       4       4       4       4       4       4       4       4       4       4
       4       4       4       4       4       4       4       4       4       4
       4       4       4       4       4       4       4       4       4       4
       4       4       4       4       4       4       4       4       4       4
       4       4       4       4       4       4       4       4       4       4
       4       4       4       4       4       4       4       4       4       4
       4       4       4       4       4       4       4       4       4       4
       4       4       4       4       4       4       4       4       4       4
       4       4       4       4       4       4       4       4       4       4
       4       4       4       4       4       4       4       4       4       4
       4       4       4       4       4       4       4       4       4       4
       4       4       4       4       4       4       4       4       4       4
       4       4       4       4       4       4       4       4       4       4
       4       4       4       4       4       4       4       4       4       4
       4       4       4       4       4       4       4       4       4       4
       4       4       4       4       4       4       4       4       4       4
       4       4       4       4       4       4       4       4       4       4
       4       4       4       4       4       4       4       4       4       4
       4       4       4       4       4       4       4       4       4       4
       4       4       4       4       4       4       4       4       4       4
       4       4       4       4       4       4       4       4       4       4
       4       4       4       4       4       4       4       4       4       4
       4       4       4       4       4       4       4       4       4       4
       4       4       4       4       4       4       4       4       4       4
       4       4       4       4       4       4       4       4       4       4
       4       4       4       4       4       4       4       4       4       4
       4       4       4       4       4       4       4       4       4       4
       4       4       4       4       4       4       4       4       4       4
       4       4       4       4       4       4       4       4       4       4
       4       4       4       4       4       4       4       4       4       4
       4       4       4       4       4       4       4       4       4       4
       4       4       4       4       4       4       4       4       4       4
       4       4       4       4       4       4       4       4       4       4
       4       4       4       4       4       4       4       4       4       4
       4       4       4       4       4       4       4       4       4       4
       4       4       4       4       4       4       4       4       4       4
       4       4       4       4       4       4       4       4       4       4
       4       4       4       4       4       4       4       4       4       4
       4       4       4       4       4       4       4       4       4       4
       4       4       4       4       4       4       4       4       4       4
       4       4       4       4       4       4       4       4       4       4
       4       4       4       4       4       4       4       4       4       4
       4       4       4       4       4       4       4       4       4       4
       4       4       4       4       4       4       4       4       4       4
       4       4       4       4       4       4       4       4       4       4
       4       4       4       4       4       4       4       4       4       4
       4       4       4       4       4       4       4       4       4       4
       4       4       4       4       4       4       4       4       4       4
       4       4       4       4       4       4       4       4       4       4
       4       4       4       4       4       4       4       4       4       4
       4       4       4       4       4       4       4       4       4       4
       4       4       4       4       4       4       4       4       4       4
       4       4       4       4       4       4       4       4       4       4
       4       4       4       4       4       4       4       4       4       4
       4       4       4       4       4       4       4       4       4       4
       4       4       4       4       4       4       4       4       4       4
       4       4       4       4       4       4       4       4       4       4
       4       4       4       4       4       4       4       4       4       4
       4       4       4       4       4       4       4       4       4       4
       4       4       4       4       4       4       4       4       4       4
       4       4       4       4       4       4       4       4       4       4
       4       4       4       4       4       4       4       4       4       4
       4       4       4       4       4       4       4       4       4       4
       4       4       4       4       4       4       4       4       4       4
       4       4       4       4       4       4       4       4       4       4
       4       4       4       4       4       4       4       4       4       4
       4       4       4       4       4       4       4       4       4       4
       4       4       4       4       4       4       4       4       4       4
       4       4       4       4       4       4       4       4       4       4
       4       4       4       4       4       4       4       4       4       4
       4       4       4       4       4       4       4       4       4       4
       4       4       4       4       4       4       4       4       4       4
       4       4       4       4       4       4       4       4       4       4
       4       4       4       4       4       4       4       4       4       4
       4       4       4       4       4       4       4       4       4       4
       4       4       4       4       4       4       4       4       4       4
       4       4       4       4       4       4       4       4       4       4
       4       4       4       4       4       4       4       4       4       4
       4       4       4       4       4       4       4       4       4       4
       4       4       4       4       4       4       4       4       4       4
       4       4       4       4       4       4       4       4       4       4
       4       4       4       4       4       4       4       4       4       4
       4       4       4       4       4       4       4       4       4       4
       4       4       4       4       4       4       4       4       4       4
       4       4       4       4       4       4       4       4       4       4
       4       4       4       4       4       4       4       4       4       4
       4       4       4       4       4       4       4       4       4       4
       4       4       4       4       4       4       4       4       4       4
       4       4       4       4       4       4       4       4       4       4
       4       4       4       4       4       4       4       4       4       4
       4       4       4       4       4       4       4       4       4       4
       4       4       4       4       4       4       4       4       4       4
       4       4       4       4       4       4       4       4       4       4
       4       4       4       4       4       4       4       4       4       4
       4       4       4       4       4       4       4       4       4       4
       4       4       4       4       4       4       4       4       4       4
       4       4       4       4       4       4       4       4       4       4
       4       4       4       4       4       4       4       4       4       4
       4       4       4       4       4       4       4       4       4       4
       4       4       4       4       4       4       4       4       4       4
       4       4       4       4       4       4       4       4       4       4
       4       4       4       4       4       4       4       4       4       4
       4       4       4       4       4       4       4       4       4       4
       4       4       4       4       4       4       4       4       4       4
       4       4       4       4       4       4       4       4       4       4
       4       4       4       4       4       4       4       4       4       4
       4       4       4       4       4       4       4       4       4       4
       4       4       4       4       4       4       4       4       4       4
       4       4       4       4       4       4       4       4       4       4
       4       4       4       4       4       4       4       4       4       4
       4       4       4       4       4       4       4       4       4       4
       4       4       4       4       4       4       4       4       4       4
       4       4       4       4       4       4       4       4       4       4
       4       4       4       4       4       4       4       4       4       4
       4       4       4       4       4       4       4       4       4       4
       4       4       4       4       4       4       4       4       4       4
       4       4       4       4       4       4       4       4       4       4
       4       4       4       4       4       4       4       4       4       4
       4       4       4       4       4       4       4       4       4       4
       4       4       4       4       4       4       4       4       4       4
       4       4       4       4       4       4       4       4       4       4
       4       4       4       4       4       4       4       4       4       4
       4       4       4       4       4       4       4       4       4       4
       4       4       4       4       4       4       4       4       4       4
       4       4       4       4       4       4       4       4       4       4
       4       4       4       4       4       4       4       4       4       4
       4       4       4       4       4       4       4       4       4       4
       4       4       4       4       4       4       4       4       4       4
       4       4       4       4       4       4       4       4       4       4
       4       4       4       4       4       4       4       4       4       4
       4       4       4       4       4       4       4       4       4       4
       4       4       4       4       4       4       4       4       4       4
       4       4       4       4       4       4       4       4       4       4
       4       4       4       4       4       4       4       4       4       4
       4       4       4       4       4       4       4       4       4       4
       4       4       4       4       4       4       4       4       4       4
       4       4       4       4       4       4       4       4       4       4
       4       4       4       4       4       4       4       4       4       4
       4       4       4       4       4       4       4       4       4       4
       4       4       4       4       4       4       4       4       4       4
       4       4       4       4       4       4       4       4       4       4
       4
%FLAG BOX_DIMENSIONS                                                            
%FORMAT(5E16.8)                                                                 
  1.09471219E+02  4.19181490E+01  4.19181490E+01  4.19181490E+01
%FLAG RADIUS_SET                                                                
%FORMAT(1a80)                                                                   
modified Bondi radii (mbondi)                                                   
%FLAG RADII                                                                     
%FORMAT(5E16.8)                                                                 
  1.30000000E+00  1.70000000E+00  1.30000000E+00  1.30000000E+00  1.70000000E+00
  1.50000000E+00  1.55000000E+00  1.30000000E+00  1.70000000E+00  1.30000000E+00
  1.70000000E+00  1.30000000E+00  1.30000000E+00  1.30000000E+00  1.70000000E+00
  1.50000000E+00  1.55000000E+00  1.70000000E+00  1.30000000E+00  1.30000000E+00
  1.70000000E+00  1.30000000E+00  1.30000000E+00  1.70000000E+00  1.30000000E+00
  1.30000000E+00  1.70000000E+00  1.30000000E+00  1.70000000E+00  1.50000000E+00
  1.55000000E+00  1.30000000E+00  1.70000000E+00  1.30000000E+00  1.70000000E+00
  1.30000000E+00  1.30000000E+00  1.30000000E+00  1.70000000E+00  1.50000000E+00
  1.55000000E+00  1.30000000E+00  1.70000000E+00  1.30000000E+00  1.30000000E+00
  1.30000000E+00  1.50000000E+00  8.00000000E-01  8.00000000E-01  1.50000000E+00
  1.50000000E+00  8.00000000E-01  8.00000000E-01  1.50000000E+00  1.50000000E+00
  8.00000000E-01  8.00000000E-01  1.50000000E+00  1.50000000E+00  8.00000000E-01
  8.00000000E-01  1.50000000E+00  1.50000000E+00  8.00000000E-01  8.00000000E-01
  1.50000000E+00  1.50000000E+00  8.00000000E-01  8.00000000E-01  1.50000000E+00
  1.50000000E+00  8.00000000E-01  8.00000000E-01  1.50000000E+00  1.50000000E+00
  8.00000000E-01  8.00000000E-01  1.50000000E+00  1.50000000E+00  8.00000000E-01
  8.00000000E-01  1.50000000E+00  1.50000000E+00  8.00000000E-01  8.00000000E-01
  1.50000000E+00  1.50000000E+00  8.00000000E-01  8.00000000E-01  1.50000000E+00
  1.50000000E+00  8.00000000E-01  8.00000000E-01  1.50000000E+00  1.50000000E+00
  8.00000000E-01  8.00000000E-01  1.50000000E+00  1.50000000E+00  8.00000000E-01
  8.00000000E-01  1.50000000E+00  1.50000000E+00  8.00000000E-01  8.00000000E-01
  1.50000000E+00  1.50000000E+00  8.00000000E-01  8.00000000E-01  1.50000000E+00
  1.50000000E+00  8.00000000E-01  8.00000000E-01  1.50000000E+00  1.50000000E+00
  8.00000000E-01  8.00000000E-01  1.50000000E+00  1.50000000E+00  8.00000000E-01
  8.00000000E-01  1.50000000E+00  1.50000000E+00  8.00000000E-01  8.00000000E-01
  1.50000000E+00  1.50000000E+00  8.00000000E-01  8.00000000E-01  1.50000000E+00
  1.50000000E+00  8.00000000E-01  8.00000000E-01  1.50000000E+00  1.50000000E+00
  8.00000000E-01  8.00000000E-01  1.50000000E+00  1.50000000E+00  8.00000000E-01
  8.00000000E-01  1.50000000E+00  1.50000000E+00  8.00000000E-01  8.00000000E-01
  1.50000000E+00  1.50000000E+00  8.00000000E-01  8.00000000E-01  1.50000000E+00
  1.50000000E+00  8.00000000E-01  8.00000000E-01  1.50000000E+00  1.50000000E+00
  8.00000000E-01  8.00000000E-01  1.50000000E+00  1.50000000E+00  8.00000000E-01
  8.00000000E-01  1.50000000E+00  1.50000000E+00  8.00000000E-01  8.00000000E-01
  1.50000000E+00  1.50000000E+00  8.00000000E-01  8.00000000E-01  1.50000000E+00
  1.50000000E+00  8.00000000E-01  8.00000000E-01  1.50000000E+00  1.50000000E+00
  8.00000000E-01  8.00000000E-01  1.50000000E+00  1.50000000E+00  8.00000000E-01
  8.00000000E-01  1.50000000E+00  1.50000000E+00  8.00000000E-01  8.00000000E-01
  1.50000000E+00  1.50000000E+00  8.00000000E-01  8.00000000E-01  1.50000000E+00
  1.50000000E+00  8.00000000E-01  8.00000000E-01  1.50000000E+00  1.50000000E+00
  8.00000000E-01  8.00000000E-01  1.50000000E+00  1.50000000E+00  8.00000000E-01
  8.00000000E-01  1.50000000E+00  1.50000000E+00  8.00000000E-01  8.00000000E-01
  1.50000000E+00  1.50000000E+00  8.00000000E-01  8.00000000E-01  1.50000000E+00
  1.50000000E+00  8.00000000E-01  8.00000000E-01  1.50000000E+00  1.50000000E+00
  8.00000000E-01  8.00000000E-01  1.50000000E+00  1.50000000E+00  8.00000000E-01
  8.00000000E-01  1.50000000E+00  1.50000000E+00  8.00000000E-01  8.00000000E-01
  1.50000000E+00  1.50000000E+00  8.00000000E-01  8.00000000E-01  1.50000000E+00
  1.50000000E+00  8.00000000E-01  8.00000000E-01  1.50000000E+00  1.50000000E+00
  8.00000000E-01  8.00000000E-01  1.50000000E+00  1.50000000E+00  8.00000000E-01
  8.00000000E-01  1.50000000E+00  1.50000000E+00  8.00000000E-01  8.00000000E-01
  1.50000000E+00  1.50000000E+00  8.00000000E-01  8.00000000E-01  1.50000000E+00
  1.50000000E+00  8.00000000E-01  8.00000000E-01  1.50000000E+00  1.50000000E+00
  8.00000000E-01  8.00000000E-01  1.50000000E+00  1.50000000E+00  8.00000000E-01
  8.00000000E-01  1.50000000E+00  1.50000000E+00  8.00000000E-01  8.00000000E-01
  1.50000000E+00  1.50000000E+00  8.00000000E-01  8.00000000E-01  1.50000000E+00
  1.50000000E+00  8.00000000E-01  8.00000000E-01  1.50000000E+00  1.50000000E+00
  8.00000000E-01  8.00000000E-01  1.50000000E+00  1.50000000E+00  8.00000000E-01
  8.00000000E-01  1.50000000E+00  1.50000000E+00  8.00000000E-01  8.00000000E-01
  1.50000000E+00  1.50000000E+00  8.00000000E-01  8.00000000E-01  1.50000000E+00
  1.50000000E+00  8.00000000E-01  8.00000000E-01  1.50000000E+00  1.50000000E+00
  8.00000000E-01  8.00000000E-01  1.50000000E+00  1.50000000E+00  8.00000000E-01
  8.00000000E-01  1.50000000E+00  1.50000000E+00  8.00000000E-01  8.00000000E-01
  1.50000000E+00  1.50000000E+00  8.00000000E-01  8.00000000E-01  1.50000000E+00
  1.50000000E+00  8.00000000E-01  8.00000000E-01  1.50000000E+00  1.50000000E+00
  8.00000000E-01  8.00000000E-01  1.50000000E+00  1.50000000E+00  8.00000000E-01
  8.00000000E-01  1.50000000E+00  1.50000000E+00  8.00000000E-01  8.00000000E-01
  1.50000000E+00  1.50000000E+00  8.00000000E-01  8.00000000E-01  1.50000000E+00
  1.50000000E+00  8.00000000E-01  8.00000000E-01  1.50000000E+00  1.50000000E+00
  8.00000000E-01  8.00000000E-01  1.50000000E+00  1.50000000E+00  8.00000000E-01
  8.00000000E-01  1.50000000E+00  1.50000000E+00  8.00000000E-01  8.00000000E-01
  1.50000000E+00  1.50000000E+00  8.00000000E-01  8.00000000E-01  1.50000000E+00
  1.50000000E+00  8.00000000E-01  8.00000000E-01  1.50000000E+00  1.50000000E+00
  8.00000000E-01  8.00000000E-01  1.50000000E+00  1.50000000E+00  8.00000000E-01
  8.00000000E-01  1.50000000E+00  1.50000000E+00  8.00000000E-01  8.00000000E-01
  1.50000000E+00  1.50000000E+00  8.00000000E-01  8.00000000E-01  1.50000000E+00
  1.50000000E+00  8.00000000E-01  8.00000000E-01  1.50000000E+00  1.50000000E+00
  8.00000000E-01  8.00000000E-01  1.50000000E+00  1.50000000E+00  8.00000000E-01
  8.00000000E-01  1.50000000E+00  1.50000000E+00  8.00000000E-01  8.00000000E-01
  1.50000000E+00  1.50000000E+00  8.00000000E-01  8.00000000E-01  1.50000000E+00
  1.50000000E+00  8.00000000E-01  8.00000000E-01  1.50000000E+00  1.50000000E+00
  8.00000000E-01  8.00000000E-01  1.50000000E+00  1.50000000E+00  8.00000000E-01
  8.00000000E-01  1.50000000E+00  1.50000000E+00  8.00000000E-01  8.00000000E-01
  1.50000000E+00  1.50000000E+00  8.00000000E-01  8.00000000E-01  1.50000000E+00
  1.50000000E+00  8.00000000E-01  8.00000000E-01  1.50000000E+00  1.50000000E+00
  8.00000000E-01  8.00000000E-01  1.50000000E+00  1.50000000E+00  8.00000000E-01
  8.00000000E-01  1.50000000E+00  1.50000000E+00  8.00000000E-01  8.00000000E-01
  1.50000000E+00  1.50000000E+00  8.00000000E-01  8.00000000E-01  1.50000000E+00
  1.50000000E+00  8.00000000E-01  8.00000000E-01  1.50000000E+00  1.50000000E+00
  8.00000000E-01  8.00000000E-01  1.50000000E+00  1.50000000E+00  8.00000000E-01
  8.00000000E-01  1.50000000E+00  1.50000000E+00  8.00000000E-01  8.00000000E-01
  1.50000000E+00  1.50000000E+00  8.00000000E-01  8.00000000E-01  1.50000000E+00
  1.50000000E+00  8.00000000E-01  8.00000000E-01  1.50000000E+00  1.50000000E+00
  8.00000000E-01  8.00000000E-01  1.50000000E+00  1.50000000E+00  8.00000000E-01
  8.00000000E-01  1.50000000E+00  1.50000000E+00  8.00000000E-01  8.00000000E-01
  1.50000000E+00  1.50000000E+00  8.00000000E-01  8.00000000E-01  1.50000000E+00
  1.50000000E+00  8.00000000E-01  8.00000000E-01  1.50000000E+00  1.50000000E+00
  8.00000000E-01  8.00000000E-01  1.50000000E+00  1.50000000E+00  8.00000000E-01
  8.00000000E-01  1.50000000E+00  1.50000000E+00  8.00000000E-01  8.00000000E-01
  1.50000000E+00  1.50000000E+00  8.00000000E-01  8.00000000E-01  1.50000000E+00
  1.50000000E+00  8.00000000E-01  8.00000000E-01  1.50000000E+00  1.50000000E+00
  8.00000000E-01  8.00000000E-01  1.50000000E+00  1.50000000E+00  8.00000000E-01
  8.00000000E-01  1.50000000E+00  1.50000000E+00  8.00000000E-01  8.00000000E-01
  1.50000000E+00  1.50000000E+00  8.00000000E-01  8.00000000E-01  1.50000000E+00
  1.50000000E+00  8.00000000E-01  8.00000000E-01  1.50000000E+00  1.50000000E+00
  8.00000000E-01  8.00000000E-01  1.50000000E+00  1.50000000E+00  8.00000000E-01
  8.00000000E-01  1.50000000E+00  1.50000000E+00  8.00000000E-01  8.00000000E-01
  1.50000000E+00  1.50000000E+00  8.00000000E-01  8.00000000E-01  1.50000000E+00
  1.50000000E+00  8.00000000E-01  8.00000000E-01  1.50000000E+00  1.50000000E+00
  8.00000000E-01  8.00000000E-01  1.50000000E+00  1.50000000E+00  8.00000000E-01
  8.00000000E-01  1.50000000E+00  1.50000000E+00  8.00000000E-01  8.00000000E-01
  1.50000000E+00  1.50000000E+00  8.00000000E-01  8.00000000E-01  1.50000000E+00
  1.50000000E+00  8.00000000E-01  8.00000000E-01  1.50000000E+00  1.50000000E+00
  8.00000000E-01  8.00000000E-01  1.50000000E+00  1.50000000E+00  8.00000000E-01
  8.00000000E-01  1.50000000E+00  1.50000000E+00  8.00000000E-01  8.00000000E-01
  1.50000000E+00  1.50000000E+00  8.00000000E-01  8.00000000E-01  1.50000000E+00
  1.50000000E+00  8.00000000E-01  8.00000000E-01  1.50000000E+00  1.50000000E+00
  8.00000000E-01  8.00000000E-01  1.50000000E+00  1.50000000E+00  8.00000000E-01
  8.00000000E-01  1.50000000E+00  1.50000000E+00  8.00000000E-01  8.00000000E-01
  1.50000000E+00  1.50000000E+00  8.00000000E-01  8.00000000E-01  1.50000000E+00
  1.50000000E+00  8.00000000E-01  8.00000000E-01  1.50000000E+00  1.50000000E+00
  8.00000000E-01  8.00000000E-01  1.50000000E+00  1.50000000E+00  8.00000000E-01
  8.00000000E-01  1.50000000E+00  1.50000000E+00  8.00000000E-01  8.00000000E-01
  1.50000000E+00  1.50000000E+00  8.00000000E-01  8.00000000E-01  1.50000000E+00
  1.50000000E+00  8.00000000E-01  8.00000000E-01  1.50000000E+00  1.50000000E+00
  8.00000000E-01  8.00000000E-01  1.50000000E+00  1.50000000E+00  8.00000000E-01
  8.00000000E-01  1.50000000E+00  1.50000000E+00  8.00000000E-01  8.00000000E-01
  1.50000000E+00  1.50000000E+00  8.00000000E-01  8.00000000E-01  1.50000000E+00
  1.50000000E+00  8.00000000E-01  8.00000000E-01  1.50000000E+00  1.50000000E+00
  8.00000000E-01  8.00000000E-01  1.50000000E+00  1.50000000E+00  8.00000000E-01
  8.00000000E-01  1.50000000E+00  1.50000000E+00  8.00000000E-01  8.00000000E-01
  1.50000000E+00  1.50000000E+00  8.00000000E-01  8.00000000E-01  1.50000000E+00
  1.50000000E+00  8.00000000E-01  8.00000000E-01  1.50000000E+00  1.50000000E+00
  8.00000000E-01  8.00000000E-01  1.50000000E+00  1.50000000E+00  8.00000000E-01
  8.00000000E-01  1.50000000E+00  1.50000000E+00  8.00000000E-01  8.00000000E-01
  1.50000000E+00  1.50000000E+00  8.00000000E-01  8.00000000E-01  1.50000000E+00
  1.50000000E+00  8.00000000E-01  8.00000000E-01  1.50000000E+00  1.50000000E+00
  8.00000000E-01  8.00000000E-01  1.50000000E+00  1.50000000E+00  8.00000000E-01
  8.00000000E-01  1.50000000E+00  1.50000000E+00  8.00000000E-01  8.00000000E-01
  1.50000000E+00  1.50000000E+00  8.00000000E-01  8.00000000E-01  1.50000000E+00
  1.50000000E+00  8.00000000E-01  8.00000000E-01  1.50000000E+00  1.50000000E+00
  8.00000000E-01  8.00000000E-01  1.50000000E+00  1.50000000E+00  8.00000000E-01
  8.00000000E-01  1.50000000E+00  1.50000000E+00  8.00000000E-01  8.00000000E-01
  1.50000000E+00  1.50000000E+00  8.00000000E-01  8.00000000E-01  1.50000000E+00
  1.50000000E+00  8.00000000E-01  8.00000000E-01  1.50000000E+00  1.50000000E+00
  8.00000000E-01  8.00000000E-01  1.50000000E+00  1.50000000E+00  8.00000000E-01
  8.00000000E-01  1.50000000E+00  1.50000000E+00  8.00000000E-01  8.00000000E-01
  1.50000000E+00  1.50000000E+00  8.00000000E-01  8.00000000E-01  1.50000000E+00
  1.50000000E+00  8.00000000E-01  8.00000000E-01  1.50000000E+00  1.50000000E+00
  8.00000000E-01  8.00000000E-01  1.50000000E+00  1.50000000E+00  8.00000000E-01
  8.00000000E-01  1.50000000E+00  1.50000000E+00  8.00000000E-01  8.00000000E-01
  1.50000000E+00  1.50000000E+00  8.00000000E-01  8.00000000E-01  1.50000000E+00
  1.50000000E+00  8.00000000E-01  8.00000000E-01  1.50000000E+00  1.50000000E+00
  8.00000000E-01  8.00000000E-01  1.50000000E+00  1.50000000E+00  8.00000000E-01
  8.00000000E-01  1.50000000E+00  1.50000000E+00  8.00000000E-01  8.00000000E-01
  1.50000000E+00  1.50000000E+00  8.00000000E-01  8.00000000E-01  1.50000000E+00
  1.50000000E+00  8.00000000E-01  8.00000000E-01  1.50000000E+00  1.50000000E+00
  8.00000000E-01  8.00000000E-01  1.50000000E+00  1.50000000E+00  8.00000000E-01
  8.00000000E-01  1.50000000E+00  1.50000000E+00  8.00000000E-01  8.00000000E-01
  1.50000000E+00  1.50000000E+00  8.00000000E-01  8.00000000E-01  1.50000000E+00
  1.50000000E+00  8.00000000E-01  8.00000000E-01  1.50000000E+00  1.50000000E+00
  8.00000000E-01  8.00000000E-01  1.50000000E+00  1.50000000E+00  8.00000000E-01
  8.00000000E-01  1.50000000E+00  1.50000000E+00  8.00000000E-01  8.00000000E-01
  1.50000000E+00  1.50000000E+00  8.00000000E-01  8.00000000E-01  1.50000000E+00
  1.50000000E+00  8.00000000E-01  8.00000000E-01  1.50000000E+00  1.50000000E+00
  8.00000000E-01  8.00000000E-01  1.50000000E+00  1.50000000E+00  8.00000000E-01
  8.00000000E-01  1.50000000E+00  1.50000000E+00  8.00000000E-01  8.00000000E-01
  1.50000000E+00  1.50000000E+00  8.00000000E-01  8.00000000E-01  1.50000000E+00
  1.50000000E+00  8.00000000E-01  8.00000000E-01  1.50000000E+00  1.50000000E+00
  8.00000000E-01  8.00000000E-01  1.50000000E+00  1.50000000E+00  8.00000000E-01
  8.00000000E-01  1.50000000E+00  1.50000000E+00  8.00000000E-01  8.00000000E-01
  1.50000000E+00  1.50000000E+00  8.00000000E-01  8.00000000E-01  1.50000000E+00
  1.50000000E+00  8.00000000E-01  8.00000000E-01  1.50000000E+00  1.50000000E+00
  8.00000000E-01  8.00000000E-01  1.50000000E+00  1.50000000E+00  8.00000000E-01
  8.00000000E-01  1.50000000E+00  1.50000000E+00  8.00000000E-01  8.00000000E-01
  1.50000000E+00  1.50000000E+00  8.00000000E-01  8.00000000E-01  1.50000000E+00
  1.50000000E+00  8.00000000E-01  8.00000000E-01  1.50000000E+00  1.50000000E+00
  8.00000000E-01  8.00000000E-01  1.50000000E+00  1.50000000E+00  8.00000000E-01
  8.00000000E-01  1.50000000E+00  1.50000000E+00  8.00000000E-01  8.00000000E-01
  1.50000000E+00  1.50000000E+00  8.00000000E-01  8.00000000E-01  1.50000000E+00
  1.50000000E+00  8.00000000E-01  8.00000000E-01  1.50000000E+00  1.50000000E+00
  8.00000000E-01  8.00000000E-01  1.50000000E+00  1.50000000E+00  8.00000000E-01
  8.00000000E-01  1.50000000E+00  1.50000000E+00  8.00000000E-01  8.00000000E-01
  1.50000000E+00  1.50000000E+00  8.00000000E-01  8.00000000E-01  1.50000000E+00
  1.50000000E+00  8.00000000E-01  8.00000000E-01  1.50000000E+00  1.50000000E+00
  8.00000000E-01  8.00000000E-01  1.50000000E+00  1.50000000E+00  8.00000000E-01
  8.00000000E-01  1.50000000E+00  1.50000000E+00  8.00000000E-01  8.00000000E-01
  1.50000000E+00  1.50000000E+00  8.00000000E-01  8.00000000E-01  1.50000000E+00
  1.50000000E+00  8.00000000E-01  8.00000000E-01  1.50000000E+00  1.50000000E+00
  8.00000000E-01  8.00000000E-01  1.50000000E+00  1.50000000E+00  8.00000000E-01
  8.00000000E-01  1.50000000E+00  1.50000000E+00  8.00000000E-01  8.00000000E-01
  1.50000000E+00  1.50000000E+00  8.00000000E-01  8.00000000E-01  1.50000000E+00
  1.50000000E+00  8.00000000E-01  8.00000000E-01  1.50000000E+00  1.50000000E+00
  8.00000000E-01  8.00000000E-01  1.50000000E+00  1.50000000E+00  8.00000000E-01
  8.00000000E-01  1.50000000E+00  1.50000000E+00  8.00000000E-01  8.00000000E-01
  1.50000000E+00  1.50000000E+00  8.00000000E-01  8.00000000E-01  1.50000000E+00
  1.50000000E+00  8.00000000E-01  8.00000000E-01  1.50000000E+00  1.50000000E+00
  8.00000000E-01  8.00000000E-01  1.50000000E+00  1.50000000E+00  8.00000000E-01
  8.00000000E-01  1.50000000E+00  1.50000000E+00  8.00000000E-01  8.00000000E-01
  1.50000000E+00  1.50000000E+00  8.00000000E-01  8.00000000E-01  1.50000000E+00
  1.50000000E+00  8.00000000E-01  8.00000000E-01  1.50000000E+00  1.50000000E+00
  8.00000000E-01  8.00000000E-01  1.50000000E+00  1.50000000E+00  8.00000000E-01
  8.00000000E-01  1.50000000E+00  1.50000000E+00  8.00000000E-01  8.00000000E-01
  1.50000000E+00  1.50000000E+00  8.00000000E-01  8.00000000E-01  1.50000000E+00
  1.50000000E+00  8.00000000E-01  8.00000000E-01  1.50000000E+00  1.50000000E+00
  8.00000000E-01  8.00000000E-01  1.50000000E+00  1.50000000E+00  8.00000000E-01
  8.00000000E-01  1.50000000E+00  1.50000000E+00  8.00000000E-01  8.00000000E-01
  1.50000000E+00  1.50000000E+00  8.00000000E-01  8.00000000E-01  1.50000000E+00
  1.50000000E+00  8.00000000E-01  8.00000000E-01  1.50000000E+00  1.50000000E+00
  8.00000000E-01  8.00000000E-01  1.50000000E+00  1.50000000E+00  8.00000000E-01
  8.00000000E-01  1.50000000E+00  1.50000000E+00  8.00000000E-01  8.00000000E-01
  1.50000000E+00  1.50000000E+00  8.00000000E-01  8.00000000E-01  1.50000000E+00
  1.50000000E+00  8.00000000E-01  8.00000000E-01  1.50000000E+00  1.50000000E+00
  8.00000000E-01  8.00000000E-01  1.50000000E+00  1.50000000E+00  8.00000000E-01
  8.00000000E-01  1.50000000E+00  1.50000000E+00  8.00000000E-01  8.00000000E-01
  1.50000000E+00  1.50000000E+00  8.00000000E-01  8.00000000E-01  1.50000000E+00
  1.50000000E+00  8.00000000E-01  8.00000000E-01  1.50000000E+00  1.50000000E+00
  8.00000000E-01  8.00000000E-01  1.50000000E+00  1.50000000E+00  8.00000000E-01
  8.00000000E-01  1.50000000E+00  1.50000000E+00  8.00000000E-01  8.00000000E-01
  1.50000000E+00  1.50000000E+00  8.00000000E-01  8.00000000E-01  1.50000000E+00
  1.50000000E+00  8.00000000E-01  8.00000000E-01  1.50000000E+00  1.50000000E+00
  8.00000000E-01  8.00000000E-01  1.50000000E+00  1.50000000E+00  8.00000000E-01
  8.00000000E-01  1.50000000E+00  1.50000000E+00  8.00000000E-01  8.00000000E-01
  1.50000000E+00  1.50000000E+00  8.00000000E-01  8.00000000E-01  1.50000000E+00
  1.50000000E+00  8.00000000E-01  8.00000000E-01  1.50000000E+00  1.50000000E+00
  8.00000000E-01  8.00000000E-01  1.50000000E+00  1.50000000E+00  8.00000000E-01
  8.00000000E-01  1.50000000E+00  1.50000000E+00  8.00000000E-01  8.00000000E-01
  1.50000000E+00  1.50000000E+00  8.00000000E-01  8.00000000E-01  1.50000000E+00
  1.50000000E+00  8.00000000E-01  8.00000000E-01  1.50000000E+00  1.50000000E+00
  8.00000000E-01  8.00000000E-01  1.50000000E+00  1.50000000E+00  8.00000000E-01
  8.00000000E-01  1.50000000E+00  1.50000000E+00  8.00000000E-01  8.00000000E-01
  1.50000000E+00  1.50000000E+00  8.00000000E-01  8.00000000E-01  1.50000000E+00
  1.50000000E+00  8.00000000E-01  8.00000000E-01  1.50000000E+00  1.50000000E+00
  8.00000000E-01  8.00000000E-01  1.50000000E+00  1.50000000E+00  8.00000000E-01
  8.00000000E-01  1.50000000E+00  1.50000000E+00  8.00000000E-01  8.00000000E-01
  1.50000000E+00  1.50000000E+00  8.00000000E-01  8.00000000E-01  1.50000000E+00
  1.50000000E+00  8.00000000E-01  8.00000000E-01  1.50000000E+00  1.50000000E+00
  8.00000000E-01  8.00000000E-01  1.50000000E+00  1.50000000E+00  8.00000000E-01
  8.00000000E-01  1.50000000E+00  1.50000000E+00  8.00000000E-01  8.00000000E-01
  1.50000000E+00  1.50000000E+00  8.00000000E-01  8.00000000E-01  1.50000000E+00
  1.50000000E+00  8.00000000E-01  8.00000000E-01  1.50000000E+00  1.50000000E+00
  8.00000000E-01  8.00000000E-01  1.50000000E+00  1.50000000E+00  8.00000000E-01
  8.00000000E-01  1.50000000E+00  1.50000000E+00  8.00000000E-01  8.00000000E-01
  1.50000000E+00  1.50000000E+00  8.00000000E-01  8.00000000E-01  1.50000000E+00
  1.50000000E+00  8.00000000E-01  8.00000000E-01  1.50000000E+00  1.50000000E+00
  8.00000000E-01  8.00000000E-01  1.50000000E+00  1.50000000E+00  8.00000000E-01
  8.00000000E-01  1.50000000E+00  1.50000000E+00  8.00000000E-01  8.00000000E-01
  1.50000000E+00  1.50000000E+00  8.00000000E-01  8.00000000E-01  1.50000000E+00
  1.50000000E+00  8.00000000E-01  8.00000000E-01  1.50000000E+00  1.50000000E+00
  8.00000000E-01  8.00000000E-01  1.50000000E+00  1.50000000E+00  8.00000000E-01
  8.00000000E-01  1.50000000E+00  1.50000000E+00  8.00000000E-01  8.00000000E-01
  1.50000000E+00  1.50000000E+00  8.00000000E-01  8.00000000E-01  1.50000000E+00
  1.50000000E+00  8.00000000E-01  8.00000000E-01  1.50000000E+00  1.50000000E+00
  8.00000000E-01  8.00000000E-01  1.50000000E+00  1.50000000E+00  8.00000000E-01
  8.00000000E-01  1.50000000E+00  1.50000000E+00  8.00000000E-01  8.00000000E-01
  1.50000000E+00  1.50000000E+00  8.00000000E-01  8.00000000E-01  1.50000000E+00
  1.50000000E+00  8.00000000E-01  8.00000000E-01  1.50000000E+00  1.50000000E+00
  8.00000000E-01  8.00000000E-01  1.50000000E+00  1.50000000E+00  8.00000000E-01
  8.00000000E-01  1.50000000E+00  1.50000000E+00  8.00000000E-01  8.00000000E-01
  1.50000000E+00  1.50000000E+00  8.00000000E-01  8.00000000E-01  1.50000000E+00
  1.50000000E+00  8.00000000E-01  8.00000000E-01  1.50000000E+00  1.50000000E+00
  8.00000000E-01  8.00000000E-01  1.50000000E+00  1.50000000E+00  8.00000000E-01
  8.00000000E-01  1.50000000E+00  1.50000000E+00  8.00000000E-01  8.00000000E-01
  1.50000000E+00  1.50000000E+00  8.00000000E-01  8.00000000E-01  1.50000000E+00
  1.50000000E+00  8.00000000E-01  8.00000000E-01  1.50000000E+00  1.50000000E+00
  8.00000000E-01  8.00000000E-01  1.50000000E+00  1.50000000E+00  8.00000000E-01
  8.00000000E-01  1.50000000E+00  1.50000000E+00  8.00000000E-01  8.00000000E-01
  1.50000000E+00  1.50000000E+00  8.00000000E-01  8.00000000E-01  1.50000000E+00
  1.50000000E+00  8.00000000E-01  8.00000000E-01  1.50000000E+00  1.50000000E+00
  8.00000000E-01  8.00000000E-01  1.50000000E+00  1.50000000E+00  8.00000000E-01
  8.00000000E-01  1.50000000E+00  1.50000000E+00  8.00000000E-01  8.00000000E-01
  1.50000000E+00  1.50000000E+00  8.00000000E-01  8.00000000E-01  1.50000000E+00
  1.50000000E+00  8.00000000E-01  8.00000000E-01  1.50000000E+00  1.50000000E+00
  8.00000000E-01  8.00000000E-01  1.50000000E+00  1.50000000E+00  8.00000000E-01
  8.00000000E-01  1.50000000E+00  1.50000000E+00  8.00000000E-01  8.00000000E-01
  1.50000000E+00  1.50000000E+00  8.00000000E-01  8.00000000E-01  1.50000000E+00
  1.50000000E+00  8.00000000E-01  8.00000000E-01  1.50000000E+00  1.50000000E+00
  8.00000000E-01  8.00000000E-01  1.50000000E+00  1.50000000E+00  8.00000000E-01
  8.00000000E-01  1.50000000E+00  1.50000000E+00  8.00000000E-01  8.00000000E-01
  1.50000000E+00  1.50000000E+00  8.00000000E-01  8.00000000E-01  1.50000000E+00
  1.50000000E+00  8.00000000E-01  8.00000000E-01  1.50000000E+00  1.50000000E+00
  8.00000000E-01  8.00000000E-01  1.50000000E+00  1.50000000E+00  8.00000000E-01
  8.00000000E-01  1.50000000E+00  1.50000000E+00  8.00000000E-01  8.00000000E-01
  1.50000000E+00  1.50000000E+00  8.00000000E-01  8.00000000E-01  1.50000000E+00
  1.50000000E+00  8.00000000E-01  8.00000000E-01  1.50000000E+00  1.50000000E+00
  8.00000000E-01  8.00000000E-01  1.50000000E+00  1.50000000E+00  8.00000000E-01
  8.00000000E-01  1.50000000E+00  1.50000000E+00  8.00000000E-01  8.00000000E-01
  1.50000000E+00  1.50000000E+00  8.00000000E-01  8.00000000E-01  1.50000000E+00
  1.50000000E+00  8.00000000E-01  8.00000000E-01  1.50000000E+00  1.50000000E+00
  8.00000000E-01  8.00000000E-01  1.50000000E+00  1.50000000E+00  8.00000000E-01
  8.00000000E-01  1.50000000E+00  1.50000000E+00  8.00000000E-01  8.00000000E-01
  1.50000000E+00  1.50000000E+00  8.00000000E-01  8.00000000E-01  1.50000000E+00
  1.50000000E+00  8.00000000E-01  8.00000000E-01  1.50000000E+00  1.50000000E+00
  8.00000000E-01  8.00000000E-01  1.50000000E+00  1.50000000E+00  8.00000000E-01
  8.00000000E-01  1.50000000E+00  1.50000000E+00  8.00000000E-01  8.00000000E-01
  1.50000000E+00  1.50000000E+00  8.00000000E-01  8.00000000E-01  1.50000000E+00
  1.50000000E+00  8.00000000E-01  8.00000000E-01  1.50000000E+00  1.50000000E+00
  8.00000000E-01  8.00000000E-01  1.50000000E+00  1.50000000E+00  8.00000000E-01
  8.00000000E-01  1.50000000E+00  1.50000000E+00  8.00000000E-01  8.00000000E-01
  1.50000000E+00  1.50000000E+00  8.00000000E-01  8.00000000E-01  1.50000000E+00
  1.50000000E+00  8.00000000E-01  8.00000000E-01  1.50000000E+00  1.50000000E+00
  8.00000000E-01  8.00000000E-01  1.50000000E+00  1.50000000E+00  8.00000000E-01
  8.00000000E-01  1.50000000E+00  1.50000000E+00  8.00000000E-01  8.00000000E-01
  1.50000000E+00  1.50000000E+00  8.00000000E-01  8.00000000E-01  1.50000000E+00
  1.50000000E+00  8.00000000E-01  8.00000000E-01  1.50000000E+00  1.50000000E+00
  8.00000000E-01  8.00000000E-01  1.50000000E+00  1.50000000E+00  8.00000000E-01
  8.00000000E-01  1.50000000E+00  1.50000000E+00  8.00000000E-01  8.00000000E-01
  1.50000000E+00  1.50000000E+00  8.00000000E-01  8.00000000E-01  1.50000000E+00
  1.50000000E+00  8.00000000E-01  8.00000000E-01  1.50000000E+00  1.50000000E+00
  8.00000000E-01  8.00000000E-01  1.50000000E+00  1.50000000E+00  8.00000000E-01
  8.00000000E-01  1.50000000E+00  1.50000000E+00  8.00000000E-01  8.00000000E-01
  1.50000000E+00  1.50000000E+00  8.00000000E-01  8.00000000E-01  1.50000000E+00
  1.50000000E+00  8.00000000E-01  8.00000000E-01  1.50000000E+00  1.50000000E+00
  8.00000000E-01  8.00000000E-01  1.50000000E+00  1.50000000E+00  8.00000000E-01
  8.00000000E-01  1.50000000E+00  1.50000000E+00  8.00000000E-01  8.00000000E-01
  1.50000000E+00  1.50000000E+00  8.00000000E-01  8.00000000E-01  1.50000000E+00
  1.50000000E+00  8.00000000E-01  8.00000000E-01  1.50000000E+00  1.50000000E+00
  8.00000000E-01  8.00000000E-01  1.50000000E+00  1.50000000E+00  8.00000000E-01
  8.00000000E-01  1.50000000E+00  1.50000000E+00  8.00000000E-01  8.00000000E-01
  1.50000000E+00  1.50000000E+00  8.00000000E-01  8.00000000E-01  1.50000000E+00
  1.50000000E+00  8.00000000E-01  8.00000000E-01  1.50000000E+00  1.50000000E+00
  8.00000000E-01  8.00000000E-01  1.50000000E+00  1.50000000E+00  8.00000000E-01
  8.00000000E-01  1.50000000E+00  1.50000000E+00  8.00000000E-01  8.00000000E-01
  1.50000000E+00  1.50000000E+00  8.00000000E-01  8.00000000E-01  1.50000000E+00
  1.50000000E+00  8.00000000E-01  8.00000000E-01  1.50000000E+00  1.50000000E+00
  8.00000000E-01  8.00000000E-01  1.50000000E+00  1.50000000E+00  8.00000000E-01
  8.00000000E-01  1.50000000E+00  1.50000000E+00  8.00000000E-01  8.00000000E-01
  1.50000000E+00  1.50000000E+00  8.00000000E-01  8.00000000E-01  1.50000000E+00
  1.50000000E+00  8.00000000E-01  8.00000000E-01  1.50000000E+00  1.50000000E+00
  8.00000000E-01  8.00000000E-01  1.50000000E+00  1.50000000E+00  8.00000000E-01
  8.00000000E-01  1.50000000E+00  1.50000000E+00  8.00000000E-01  8.00000000E-01
  1.50000000E+00  1.50000000E+00  8.00000000E-01  8.00000000E-01  1.50000000E+00
  1.50000000E+00  8.00000000E-01  8.00000000E-01  1.50000000E+00  1.50000000E+00
  8.00000000E-01  8.00000000E-01  1.50000000E+00  1.50000000E+00  8.00000000E-01
  8.00000000E-01  1.50000000E+00  1.50000000E+00  8.00000000E-01  8.00000000E-01
  1.50000000E+00  1.50000000E+00  8.00000000E-01  8.00000000E-01  1.50000000E+00
  1.50000000E+00  8.00000000E-01  8.00000000E-01  1.50000000E+00  1.50000000E+00
  8.00000000E-01  8.00000000E-01  1.50000000E+00  1.50000000E+00  8.00000000E-01
  8.00000000E-01  1.50000000E+00  1.50000000E+00  8.00000000E-01  8.00000000E-01
  1.50000000E+00  1.50000000E+00  8.00000000E-01  8.00000000E-01  1.50000000E+00
  1.50000000E+00  8.00000000E-01  8.00000000E-01  1.50000000E+00  1.50000000E+00
  8.00000000E-01  8.00000000E-01  1.50000000E+00  1.50000000E+00  8.00000000E-01
  8.00000000E-01  1.50000000E+00  1.50000000E+00  8.00000000E-01  8.00000000E-01
  1.50000000E+00  1.50000000E+00  8.00000000E-01  8.00000000E-01  1.50000000E+00
  1.50000000E+00  8.00000000E-01  8.00000000E-01  1.50000000E+00  1.50000000E+00
  8.00000000E-01  8.00000000E-01  1.50000000E+00  1.50000000E+00  8.00000000E-01
  8.00000000E-01  1.50000000E+00  1.50000000E+00  8.00000000E-01  8.00000000E-01
  1.50000000E+00  1.50000000E+00  8.00000000E-01  8.00000000E-01  1.50000000E+00
  1.50000000E+00  8.00000000E-01  8.00000000E-01  1.50000000E+00  1.50000000E+00
  8.00000000E-01  8.00000000E-01  1.50000000E+00  1.50000000E+00  8.00000000E-01
  8.00000000E-01  1.50000000E+00  1.50000000E+00  8.00000000E-01  8.00000000E-01
  1.50000000E+00  1.50000000E+00  8.00000000E-01  8.00000000E-01  1.50000000E+00
  1.50000000E+00  8.00000000E-01  8.00000000E-01  1.50000000E+00  1.50000000E+00
  8.00000000E-01  8.00000000E-01  1.50000000E+00  1.50000000E+00  8.00000000E-01
  8.00000000E-01  1.50000000E+00  1.50000000E+00  8.00000000E-01  8.00000000E-01
  1.50000000E+00  1.50000000E+00  8.00000000E-01  8.00000000E-01  1.50000000E+00
  1.50000000E+00  8.00000000E-01  8.00000000E-01  1.50000000E+00  1.50000000E+00
  8.00000000E-01  8.00000000E-01  1.50000000E+00  1.50000000E+00  8.00000000E-01
  8.00000000E-01  1.50000000E+00  1.50000000E+00  8.00000000E-01  8.00000000E-01
  1.50000000E+00  1.50000000E+00  8.00000000E-01  8.00000000E-01  1.50000000E+00
  1.50000000E+00  8.00000000E-01  8.00000000E-01  1.50000000E+00  1.50000000E+00
  8.00000000E-01  8.00000000E-01  1.50000000E+00  1.50000000E+00  8.00000000E-01
  8.00000000E-01  1.50000000E+00  1.50000000E+00  8.00000000E-01  8.00000000E-01
  1.50000000E+00  1.50000000E+00  8.00000000E-01  8.00000000E-01  1.50000000E+00
  1.50000000E+00  8.00000000E-01  8.00000000E-01  1.50000000E+00  1.50000000E+00
  8.00000000E-01  8.00000000E-01  1.50000000E+00  1.50000000E+00  8.00000000E-01
  8.00000000E-01  1.50000000E+00  1.50000000E+00  8.00000000E-01  8.00000000E-01
  1.50000000E+00  1.50000000E+00  8.00000000E-01  8.00000000E-01  1.50000000E+00
  1.50000000E+00  8.00000000E-01  8.00000000E-01  1.50000000E+00  1.50000000E+00
  8.00000000E-01  8.00000000E-01  1.50000000E+00  1.50000000E+00  8.00000000E-01
  8.00000000E-01  1.50000000E+00  1.50000000E+00  8.00000000E-01  8.00000000E-01
  1.50000000E+00  1.50000000E+00  8.00000000E-01  8.00000000E-01  1.50000000E+00
  1.50000000E+00  8.00000000E-01  8.00000000E-01  1.50000000E+00  1.50000000E+00
  8.00000000E-01  8.00000000E-01  1.50000000E+00  1.50000000E+00  8.00000000E-01
  8.00000000E-01  1.50000000E+00  1.50000000E+00  8.00000000E-01  8.00000000E-01
  1.50000000E+00  1.50000000E+00  8.00000000E-01  8.00000000E-01  1.50000000E+00
  1.50000000E+00  8.00000000E-01  8.00000000E-01  1.50000000E+00  1.50000000E+00
  8.00000000E-01  8.00000000E-01  1.50000000E+00  1.50000000E+00  8.00000000E-01
  8.00000000E-01  1.50000000E+00  1.50000000E+00  8.00000000E-01  8.00000000E-01
  1.50000000E+00  1.50000000E+00  8.00000000E-01  8.00000000E-01  1.50000000E+00
  1.50000000E+00  8.00000000E-01  8.00000000E-01  1.50000000E+00  1.50000000E+00
  8.00000000E-01  8.00000000E-01  1.50000000E+00  1.50000000E+00  8.00000000E-01
  8.00000000E-01  1.50000000E+00  1.50000000E+00  8.00000000E-01  8.00000000E-01
  1.50000000E+00  1.50000000E+00  8.00000000E-01  8.00000000E-01  1.50000000E+00
  1.50000000E+00  8.00000000E-01  8.00000000E-01  1.50000000E+00  1.50000000E+00
  8.00000000E-01  8.00000000E-01  1.50000000E+00  1.50000000E+00  8.00000000E-01
  8.00000000E-01  1.50000000E+00  1.50000000E+00  8.00000000E-01  8.00000000E-01
  1.50000000E+00  1.50000000E+00  8.00000000E-01  8.00000000E-01  1.50000000E+00
  1.50000000E+00  8.00000000E-01  8.00000000E-01  1.50000000E+00  1.50000000E+00
  8.00000000E-01  8.00000000E-01  1.50000000E+00  1.50000000E+00  8.00000000E-01
  8.00000000E-01  1.50000000E+00  1.50000000E+00  8.00000000E-01  8.00000000E-01
  1.50000000E+00  1.50000000E+00  8.00000000E-01  8.00000000E-01  1.50000000E+00
  1.50000000E+00  8.00000000E-01  8.00000000E-01  1.50000000E+00  1.50000000E+00
  8.00000000E-01  8.00000000E-01  1.50000000E+00  1.50000000E+00  8.00000000E-01
  8.00000000E-01  1.50000000E+00  1.50000000E+00  8.00000000E-01  8.00000000E-01
  1.50000000E+00  1.50000000E+00  8.00000000E-01  8.00000000E-01  1.50000000E+00
  1.50000000E+00  8.00000000E-01  8.00000000E-01  1.50000000E+00  1.50000000E+00
  8.00000000E-01  8.00000000E-01  1.50000000E+00  1.50000000E+00  8.00000000E-01
  8.00000000E-01  1.50000000E+00  1.50000000E+00  8.00000000E-01  8.00000000E-01
  1.50000000E+00  1.50000000E+00  8.00000000E-01  8.00000000E-01  1.50000000E+00
  1.50000000E+00  8.00000000E-01  8.00000000E-01  1.50000000E+00  1.50000000E+00
  8.00000000E-01  8.00000000E-01  1.50000000E+00  1.50000000E+00  8.00000000E-01
  8.00000000E-01  1.50000000E+00  1.50000000E+00  8.00000000E-01  8.00000000E-01
  1.50000000E+00  1.50000000E+00  8.00000000E-01  8.00000000E-01  1.50000000E+00
  1.50000000E+00  8.00000000E-01  8.00000000E-01  1.50000000E+00  1.50000000E+00
  8.00000000E-01  8.00000000E-01  1.50000000E+00  1.50000000E+00  8.00000000E-01
  8.00000000E-01  1.50000000E+00  1.50000000E+00  8.00000000E-01  8.00000000E-01
  1.50000000E+00  1.50000000E+00  8.00000000E-01  8.00000000E-01  1.50000000E+00
  1.50000000E+00  8.00000000E-01  8.00000000E-01  1.50000000E+00  1.50000000E+00
  8.00000000E-01  8.00000000E-01  1.50000000E+00  1.50000000E+00  8.00000000E-01
  8.00000000E-01  1.50000000E+00  1.50000000E+00  8.00000000E-01  8.00000000E-01
  1.50000000E+00  1.50000000E+00  8.00000000E-01  8.00000000E-01  1.50000000E+00
  1.50000000E+00  8.00000000E-01  8.00000000E-01  1.50000000E+00  1.50000000E+00
  8.00000000E-01  8.00000000E-01  1.50000000E+00  1.50000000E+00  8.00000000E-01
  8.00000000E-01  1.50000000E+00  1.50000000E+00  8.00000000E-01  8.00000000E-01
  1.50000000E+00  1.50000000E+00  8.00000000E-01  8.00000000E-01  1.50000000E+00
  1.50000000E+00  8.00000000E-01  8.00000000E-01  1.50000000E+00  1.50000000E+00
  8.00000000E-01  8.00000000E-01  1.50000000E+00  1.50000000E+00  8.00000000E-01
  8.00000000E-01  1.50000000E+00  1.50000000E+00  8.00000000E-01  8.00000000E-01
  1.50000000E+00  1.50000000E+00  8.00000000E-01  8.00000000E-01  1.50000000E+00
  1.50000000E+00  8.00000000E-01  8.00000000E-01  1.50000000E+00  1.50000000E+00
  8.00000000E-01  8.00000000E-01  1.50000000E+00  1.50000000E+00  8.00000000E-01
  8.00000000E-01  1.50000000E+00  1.50000000E+00  8.00000000E-01  8.00000000E-01
  1.50000000E+00  1.50000000E+00  8.00000000E-01  8.00000000E-01  1.50000000E+00
  1.50000000E+00  8.00000000E-01  8.00000000E-01  1.50000000E+00  1.50000000E+00
  8.00000000E-01  8.00000000E-01  1.50000000E+00  1.50000000E+00  8.00000000E-01
  8.00000000E-01  1.50000000E+00  1.50000000E+00  8.00000000E-01  8.00000000E-01
  1.50000000E+00  1.50000000E+00  8.00000000E-01  8.00000000E-01  1.50000000E+00
  1.50000000E+00  8.00000000E-01  8.00000000E-01  1.50000000E+00  1.50000000E+00
  8.00000000E-01  8.00000000E-01  1.50000000E+00  1.50000000E+00  8.00000000E-01
  8.00000000E-01  1.50000000E+00  1.50000000E+00  8.00000000E-01  8.00000000E-01
  1.50000000E+00  1.50000000E+00  8.00000000E-01  8.00000000E-01  1.50000000E+00
  1.50000000E+00  8.00000000E-01  8.00000000E-01  1.50000000E+00  1.50000000E+00
  8.00000000E-01  8.00000000E-01  1.50000000E+00  1.50000000E+00  8.00000000E-01
  8.00000000E-01  1.50000000E+00  1.50000000E+00  8.00000000E-01  8.00000000E-01
  1.50000000E+00  1.50000000E+00  8.00000000E-01  8.00000000E-01  1.50000000E+00
  1.50000000E+00  8.00000000E-01  8.00000000E-01  1.50000000E+00  1.50000000E+00
  8.00000000E-01  8.00000000E-01  1.50000000E+00  1.50000000E+00  8.00000000E-01
  8.00000000E-01  1.50000000E+00  1.50000000E+00  8.00000000E-01  8.00000000E-01
  1.50000000E+00  1.50000000E+00  8.00000000E-01  8.00000000E-01  1.50000000E+00
  1.50000000E+00  8.00000000E-01  8.00000000E-01  1.50000000E+00  1.50000000E+00
  8.00000000E-01  8.00000000E-01  1.50000000E+00  1.50000000E+00  8.00000000E-01
  8.00000000E-01  1.50000000E+00  1.50000000E+00  8.00000000E-01  8.00000000E-01
  1.50000000E+00  1.50000000E+00  8.00000000E-01  8.00000000E-01  1.50000000E+00
  1.50000000E+00  8.00000000E-01  8.00000000E-01  1.50000000E+00  1.50000000E+00
  8.00000000E-01  8.00000000E-01  1.50000000E+00  1.50000000E+00  8.00000000E-01
  8.00000000E-01  1.50000000E+00  1.50000000E+00  8.00000000E-01  8.00000000E-01
  1.50000000E+00  1.50000000E+00  8.00000000E-01  8.00000000E-01  1.50000000E+00
  1.50000000E+00  8.00000000E-01  8.00000000E-01  1.50000000E+00  1.50000000E+00
  8.00000000E-01  8.00000000E-01  1.50000000E+00  1.50000000E+00  8.00000000E-01
  8.00000000E-01  1.50000000E+00  1.50000000E+00  8.00000000E-01  8.00000000E-01
  1.50000000E+00  1.50000000E+00  8.00000000E-01  8.00000000E-01  1.50000000E+00
  1.50000000E+00  8.00000000E-01  8.00000000E-01  1.50000000E+00  1.50000000E+00
  8.00000000E-01  8.00000000E-01  1.50000000E+00  1.50000000E+00  8.00000000E-01
  8.00000000E-01  1.50000000E+00  1.50000000E+00  8.00000000E-01  8.00000000E-01
  1.50000000E+00  1.50000000E+00  8.00000000E-01  8.00000000E-01  1.50000000E+00
  1.50000000E+00  8.00000000E-01  8.00000000E-01  1.50000000E+00  1.50000000E+00
  8.00000000E-01  8.00000000E-01  1.50000000E+00  1.50000000E+00  8.00000000E-01
  8.00000000E-01  1.50000000E+00  1.50000000E+00  8.00000000E-01  8.00000000E-01
  1.50000000E+00  1.50000000E+00  8.00000000E-01  8.00000000E-01  1.50000000E+00
  1.50000000E+00  8.00000000E-01  8.00000000E-01  1.50000000E+00  1.50000000E+00
  8.00000000E-01  8.00000000E-01  1.50000000E+00  1.50000000E+00  8.00000000E-01
  8.00000000E-01  1.50000000E+00  1.50000000E+00  8.00000000E-01  8.00000000E-01
  1.50000000E+00  1.50000000E+00  8.00000000E-01  8.00000000E-01  1.50000000E+00
  1.50000000E+00  8.00000000E-01  8.00000000E-01  1.50000000E+00  1.50000000E+00
  8.00000000E-01  8.00000000E-01  1.50000000E+00  1.50000000E+00  8.00000000E-01
  8.00000000E-01  1.50000000E+00  1.50000000E+00  8.00000000E-01  8.00000000E-01
  1.50000000E+00  1.50000000E+00  8.00000000E-01  8.00000000E-01  1.50000000E+00
  1.50000000E+00  8.00000000E-01  8.00000000E-01  1.50000000E+00  1.50000000E+00
  8.00000000E-01  8.00000000E-01  1.50000000E+00  1.50000000E+00  8.00000000E-01
  8.00000000E-01  1.50000000E+00  1.50000000E+00  8.00000000E-01  8.00000000E-01
  1.50000000E+00  1.50000000E+00  8.00000000E-01  8.00000000E-01  1.50000000E+00
  1.50000000E+00  8.00000000E-01  8.00000000E-01  1.50000000E+00  1.50000000E+00
  8.00000000E-01  8.00000000E-01  1.50000000E+00  1.50000000E+00  8.00000000E-01
  8.00000000E-01  1.50000000E+00  1.50000000E+00  8.00000000E-01  8.00000000E-01
  1.50000000E+00  1.50000000E+00  8.00000000E-01  8.00000000E-01  1.50000000E+00
  1.50000000E+00  8.00000000E-01  8.00000000E-01  1.50000000E+00  1.50000000E+00
  8.00000000E-01  8.00000000E-01  1.50000000E+00  1.50000000E+00  8.00000000E-01
  8.00000000E-01  1.50000000E+00  1.50000000E+00  8.00000000E-01  8.00000000E-01
  1.50000000E+00  1.50000000E+00  8.00000000E-01  8.00000000E-01  1.50000000E+00
  1.50000000E+00  8.00000000E-01  8.00000000E-01  1.50000000E+00  1.50000000E+00
  8.00000000E-01  8.00000000E-01  1.50000000E+00  1.50000000E+00  8.00000000E-01
  8.00000000E-01  1.50000000E+00  1.50000000E+00  8.00000000E-01  8.00000000E-01
  1.50000000E+00  1.50000000E+00  8.00000000E-01  8.00000000E-01  1.50000000E+00
  1.50000000E+00  8.00000000E-01  8.00000000E-01  1.50000000E+00  1.50000000E+00
  8.00000000E-01  8.00000000E-01  1.50000000E+00  1.50000000E+00  8.00000000E-01
  8.00000000E-01  1.50000000E+00  1.50000000E+00  8.00000000E-01  8.00000000E-01
  1.50000000E+00  1.50000000E+00  8.00000000E-01  8.00000000E-01  1.50000000E+00
  1.50000000E+00  8.00000000E-01  8.00000000E-01  1.50000000E+00  1.50000000E+00
  8.00000000E-01  8.00000000E-01  1.50000000E+00  1.50000000E+00  8.00000000E-01
  8.00000000E-01  1.50000000E+00  1.50000000E+00  8.00000000E-01  8.00000000E-01
  1.50000000E+00  1.50000000E+00  8.00000000E-01  8.00000000E-01  1.50000000E+00
  1.50000000E+00  8.00000000E-01  8.00000000E-01  1.50000000E+00  1.50000000E+00
  8.00000000E-01  8.00000000E-01  1.50000000E+00  1.50000000E+00  8.00000000E-01
  8.00000000E-01  1.50000000E+00  1.50000000E+00  8.00000000E-01  8.00000000E-01
  1.50000000E+00  1.50000000E+00  8.00000000E-01  8.00000000E-01  1.50000000E+00
  1.50000000E+00  8.00000000E-01  8.00000000E-01  1.50000000E+00  1.50000000E+00
  8.00000000E-01  8.00000000E-01  1.50000000E+00  1.50000000E+00  8.00000000E-01
  8.00000000E-01  1.50000000E+00  1.50000000E+00  8.00000000E-01  8.00000000E-01
  1.50000000E+00  1.50000000E+00  8.00000000E-01  8.00000000E-01  1.50000000E+00
  1.50000000E+00  8.00000000E-01  8.00000000E-01  1.50000000E+00  1.50000000E+00
  8.00000000E-01  8.00000000E-01  1.50000000E+00  1.50000000E+00  8.00000000E-01
  8.00000000E-01  1.50000000E+00  1.50000000E+00  8.00000000E-01  8.00000000E-01
  1.50000000E+00  1.50000000E+00  8.00000000E-01  8.00000000E-01  1.50000000E+00
  1.50000000E+00  8.00000000E-01  8.00000000E-01  1.50000000E+00  1.50000000E+00
  8.00000000E-01  8.00000000E-01  1.50000000E+00  1.50000000E+00  8.00000000E-01
  8.00000000E-01  1.50000000E+00  1.50000000E+00  8.00000000E-01  8.00000000E-01
  1.50000000E+00  1.50000000E+00  8.00000000E-01  8.00000000E-01  1.50000000E+00
  1.50000000E+00  8.00000000E-01  8.00000000E-01  1.50000000E+00  1.50000000E+00
  8.00000000E-01  8.00000000E-01  1.50000000E+00  1.50000000E+00  8.00000000E-01
  8.00000000E-01  1.50000000E+00  1.50000000E+00  8.00000000E-01  8.00000000E-01
  1.50000000E+00  1.50000000E+00  8.00000000E-01  8.00000000E-01  1.50000000E+00
  1.50000000E+00  8.00000000E-01  8.00000000E-01  1.50000000E+00  1.50000000E+00
  8.00000000E-01  8.00000000E-01  1.50000000E+00  1.50000000E+00  8.00000000E-01
  8.00000000E-01  1.50000000E+00  1.50000000E+00  8.00000000E-01  8.00000000E-01
  1.50000000E+00  1.50000000E+00  8.00000000E-01  8.00000000E-01  1.50000000E+00
  1.50000000E+00  8.00000000E-01  8.00000000E-01  1.50000000E+00  1.50000000E+00
  8.00000000E-01  8.00000000E-01  1.50000000E+00  1.50000000E+00  8.00000000E-01
  8.00000000E-01  1.50000000E+00  1.50000000E+00  8.00000000E-01  8.00000000E-01
  1.50000000E+00  1.50000000E+00  8.00000000E-01  8.00000000E-01  1.50000000E+00
  1.50000000E+00  8.00000000E-01  8.00000000E-01  1.50000000E+00  1.50000000E+00
  8.00000000E-01  8.00000000E-01  1.50000000E+00  1.50000000E+00  8.00000000E-01
  8.00000000E-01  1.50000000E+00  1.50000000E+00  8.00000000E-01  8.00000000E-01
  1.50000000E+00  1.50000000E+00  8.00000000E-01  8.00000000E-01  1.50000000E+00
  1.50000000E+00  8.00000000E-01  8.00000000E-01  1.50000000E+00  1.50000000E+00
  8.00000000E-01  8.00000000E-01  1.50000000E+00  1.50000000E+00  8.00000000E-01
  8.00000000E-01  1.50000000E+00  1.50000000E+00  8.00000000E-01  8.00000000E-01
  1.50000000E+00  1.50000000E+00  8.00000000E-01  8.00000000E-01  1.50000000E+00
  1.50000000E+00  8.00000000E-01  8.00000000E-01  1.50000000E+00  1.50000000E+00
  8.00000000E-01  8.00000000E-01  1.50000000E+00  1.50000000E+00  8.00000000E-01
  8.00000000E-01  1.50000000E+00  1.50000000E+00  8.00000000E-01  8.00000000E-01
  1.50000000E+00  1.50000000E+00  8.00000000E-01  8.00000000E-01  1.50000000E+00
  1.50000000E+00  8.00000000E-01  8.00000000E-01  1.50000000E+00  1.50000000E+00
  8.00000000E-01  8.00000000E-01  1.50000000E+00  1.50000000E+00  8.00000000E-01
  8.00000000E-01  1.50000000E+00  1.50000000E+00  8.00000000E-01  8.00000000E-01
  1.50000000E+00  1.50000000E+00  8.00000000E-01  8.00000000E-01  1.50000000E+00
  1.50000000E+00  8.00000000E-01  8.00000000E-01  1.50000000E+00  1.50000000E+00
  8.00000000E-01  8.00000000E-01  1.50000000E+00  1.50000000E+00  8.00000000E-01
  8.00000000E-01  1.50000000E+00  1.50000000E+00  8.00000000E-01  8.00000000E-01
  1.50000000E+00  1.50000000E+00  8.00000000E-01  8.00000000E-01  1.50000000E+00
  1.50000000E+00  8.00000000E-01  8.00000000E-01  1.50000000E+00  1.50000000E+00
  8.00000000E-01  8.00000000E-01  1.50000000E+00  1.50000000E+00  8.00000000E-01
  8.00000000E-01  1.50000000E+00  1.50000000E+00  8.00000000E-01  8.00000000E-01
  1.50000000E+00  1.50000000E+00  8.00000000E-01  8.00000000E-01  1.50000000E+00
  1.50000000E+00  8.00000000E-01  8.00000000E-01  1.50000000E+00  1.50000000E+00
  8.00000000E-01  8.00000000E-01  1.50000000E+00  1.50000000E+00  8.00000000E-01
  8.00000000E-01  1.50000000E+00  1.50000000E+00  8.00000000E-01  8.00000000E-01
  1.50000000E+00  1.50000000E+00  8.00000000E-01  8.00000000E-01  1.50000000E+00
  1.50000000E+00  8.00000000E-01  8.00000000E-01  1.50000000E+00  1.50000000E+00
  8.00000000E-01  8.00000000E-01  1.50000000E+00  1.50000000E+00  8.00000000E-01
  8.00000000E-01  1.50000000E+00  1.50000000E+00  8.00000000E-01  8.00000000E-01
  1.50000000E+00  1.50000000E+00  8.00000000E-01  8.00000000E-01  1.50000000E+00
  1.50000000E+00  8.00000000E-01  8.00000000E-01  1.50000000E+00  1.50000000E+00
  8.00000000E-01  8.00000000E-01  1.50000000E+00  1.50000000E+00  8.00000000E-01
  8.00000000E-01  1.50000000E+00  1.50000000E+00  8.00000000E-01  8.00000000E-01
  1.50000000E+00  1.50000000E+00  8.00000000E-01  8.00000000E-01  1.50000000E+00
  1.50000000E+00  8.00000000E-01  8.00000000E-01  1.50000000E+00  1.50000000E+00
  8.00000000E-01  8.00000000E-01  1.50000000E+00  1.50000000E+00  8.00000000E-01
  8.00000000E-01  1.50000000E+00  1.50000000E+00  8.00000000E-01  8.00000000E-01
  1.50000000E+00  1.50000000E+00  8.00000000E-01  8.00000000E-01  1.50000000E+00
  1.50000000E+00  8.00000000E-01  8.00000000E-01  1.50000000E+00  1.50000000E+00
  8.00000000E-01  8.00000000E-01  1.50000000E+00  1.50000000E+00  8.00000000E-01
  8.00000000E-01  1.50000000E+00  1.50000000E+00  8.00000000E-01  8.00000000E-01
  1.50000000E+00  1.50000000E+00  8.00000000E-01  8.00000000E-01  1.50000000E+00
  1.50000000E+00  8.00000000E-01  8.00000000E-01  1.50000000E+00  1.50000000E+00
  8.00000000E-01  8.00000000E-01  1.50000000E+00  1.50000000E+00  8.00000000E-01
  8.00000000E-01  1.50000000E+00  1.50000000E+00  8.00000000E-01  8.00000000E-01
  1.50000000E+00  1.50000000E+00  8.00000000E-01  8.00000000E-01  1.50000000E+00
  1.50000000E+00  8.00000000E-01  8.00000000E-01  1.50000000E+00  1.50000000E+00
  8.00000000E-01  8.00000000E-01  1.50000000E+00  1.50000000E+00  8.00000000E-01
  8.00000000E-01  1.50000000E+00  1.50000000E+00  8.00000000E-01  8.00000000E-01
  1.50000000E+00  1.50000000E+00  8.00000000E-01  8.00000000E-01  1.50000000E+00
  1.50000000E+00  8.00000000E-01  8.00000000E-01  1.50000000E+00  1.50000000E+00
  8.00000000E-01  8.00000000E-01  1.50000000E+00  1.50000000E+00  8.00000000E-01
  8.00000000E-01  1.50000000E+00  1.50000000E+00  8.00000000E-01  8.00000000E-01
  1.50000000E+00  1.50000000E+00  8.00000000E-01  8.00000000E-01  1.50000000E+00
  1.50000000E+00  8.00000000E-01  8.00000000E-01  1.50000000E+00  1.50000000E+00
  8.00000000E-01  8.00000000E-01  1.50000000E+00  1.50000000E+00  8.00000000E-01
  8.00000000E-01  1.50000000E+00  1.50000000E+00  8.00000000E-01  8.00000000E-01
  1.50000000E+00  1.50000000E+00  8.00000000E-01  8.00000000E-01  1.50000000E+00
  1.50000000E+00  8.00000000E-01  8.00000000E-01  1.50000000E+00  1.50000000E+00
  8.00000000E-01  8.00000000E-01  1.50000000E+00  1.50000000E+00  8.00000000E-01
  8.00000000E-01  1.50000000E+00  1.50000000E+00  8.00000000E-01  8.00000000E-01
  1.50000000E+00  1.50000000E+00  8.00000000E-01  8.00000000E-01  1.50000000E+00
  1.50000000E+00  8.00000000E-01  8.00000000E-01  1.50000000E+00  1.50000000E+00
  8.00000000E-01  8.00000000E-01  1.50000000E+00  1.50000000E+00  8.00000000E-01
  8.00000000E-01  1.50000000E+00  1.50000000E+00  8.00000000E-01  8.00000000E-01
  1.50000000E+00  1.50000000E+00  8.00000000E-01  8.00000000E-01  1.50000000E+00
  1.50000000E+00  8.00000000E-01  8.00000000E-01  1.50000000E+00  1.50000000E+00
  8.00000000E-01  8.00000000E-01  1.50000000E+00  1.50000000E+00  8.00000000E-01
  8.00000000E-01  1.50000000E+00  1.50000000E+00  8.00000000E-01  8.00000000E-01
  1.50000000E+00  1.50000000E+00  8.00000000E-01  8.00000000E-01  1.50000000E+00
  1.50000000E+00  8.00000000E-01  8.00000000E-01  1.50000000E+00  1.50000000E+00
  8.00000000E-01  8.00000000E-01  1.50000000E+00  1.50000000E+00  8.00000000E-01
  8.00000000E-01  1.50000000E+00  1.50000000E+00  8.00000000E-01  8.00000000E-01
  1.50000000E+00  1.50000000E+00  8.00000000E-01  8.00000000E-01  1.50000000E+00
  1.50000000E+00  8.00000000E-01  8.00000000E-01  1.50000000E+00  1.50000000E+00
  8.00000000E-01  8.00000000E-01  1.50000000E+00  1.50000000E+00  8.00000000E-01
  8.00000000E-01  1.50000000E+00  1.50000000E+00  8.00000000E-01  8.00000000E-01
  1.50000000E+00  1.50000000E+00  8.00000000E-01  8.00000000E-01  1.50000000E+00
  1.50000000E+00  8.00000000E-01  8.00000000E-01  1.50000000E+00  1.50000000E+00
  8.00000000E-01  8.00000000E-01  1.50000000E+00  1.50000000E+00  8.00000000E-01
  8.00000000E-01  1.50000000E+00  1.50000000E+00  8.00000000E-01  8.00000000E-01
  1.50000000E+00  1.50000000E+00  8.00000000E-01  8.00000000E-01  1.50000000E+00
  1.50000000E+00  8.00000000E-01  8.00000000E-01  1.50000000E+00  1.50000000E+00
  8.00000000E-01  8.00000000E-01  1.50000000E+00  1.50000000E+00  8.00000000E-01
  8.00000000E-01  1.50000000E+00  1.50000000E+00  8.00000000E-01  8.00000000E-01
  1.50000000E+00  1.50000000E+00  8.00000000E-01  8.00000000E-01  1.50000000E+00
  1.50000000E+00  8.00000000E-01  8.00000000E-01  1.50000000E+00  1.50000000E+00
  8.00000000E-01  8.00000000E-01  1.50000000E+00  1.50000000E+00  8.00000000E-01
  8.00000000E-01  1.50000000E+00  1.50000000E+00  8.00000000E-01  8.00000000E-01
  1.50000000E+00  1.50000000E+00  8.00000000E-01  8.00000000E-01  1.50000000E+00
  1.50000000E+00  8.00000000E-01  8.00000000E-01  1.50000000E+00  1.50000000E+00
  8.00000000E-01  8.00000000E-01  1.50000000E+00  1.50000000E+00  8.00000000E-01
  8.00000000E-01  1.50000000E+00  1.50000000E+00  8.00000000E-01  8.00000000E-01
  1.50000000E+00  1.50000000E+00  8.00000000E-01  8.00000000E-01  1.50000000E+00
  1.50000000E+00  8.00000000E-01  8.00000000E-01  1.50000000E+00  1.50000000E+00
  8.00000000E-01  8.00000000E-01  1.50000000E+00  1.50000000E+00  8.00000000E-01
  8.00000000E-01  1.50000000E+00  1.50000000E+00  8.00000000E-01  8.00000000E-01
  1.50000000E+00  1.50000000E+00  8.00000000E-01  8.00000000E-01  1.50000000E+00
  1.50000000E+00  8.00000000E-01  8.00000000E-01  1.50000000E+00  1.50000000E+00
  8.00000000E-01  8.00000000E-01  1.50000000E+00  1.50000000E+00  8.00000000E-01
  8.00000000E-01  1.50000000E+00  1.50000000E+00  8.00000000E-01  8.00000000E-01
  1.50000000E+00  1.50000000E+00  8.00000000E-01  8.00000000E-01  1.50000000E+00
  1.50000000E+00  8.00000000E-01  8.00000000E-01  1.50000000E+00  1.50000000E+00
  8.00000000E-01  8.00000000E-01  1.50000000E+00  1.50000000E+00  8.00000000E-01
  8.00000000E-01  1.50000000E+00  1.50000000E+00  8.00000000E-01  8.00000000E-01
  1.50000000E+00  1.50000000E+00  8.00000000E-01  8.00000000E-01  1.50000000E+00
  1.50000000E+00  8.00000000E-01  8.00000000E-01  1.50000000E+00  1.50000000E+00
  8.00000000E-01  8.00000000E-01  1.50000000E+00  1.50000000E+00  8.00000000E-01
  8.00000000E-01  1.50000000E+00  1.50000000E+00  8.00000000E-01  8.00000000E-01
  1.50000000E+00  1.50000000E+00  8.00000000E-01  8.00000000E-01  1.50000000E+00
  1.50000000E+00  8.00000000E-01  8.00000000E-01  1.50000000E+00  1.50000000E+00
  8.00000000E-01  8.00000000E-01  1.50000000E+00  1.50000000E+00  8.00000000E-01
  8.00000000E-01  1.50000000E+00  1.50000000E+00  8.00000000E-01  8.00000000E-01
  1.50000000E+00  1.50000000E+00  8.00000000E-01  8.00000000E-01  1.50000000E+00
  1.50000000E+00  8.00000000E-01  8.00000000E-01  1.50000000E+00  1.50000000E+00
  8.00000000E-01  8.00000000E-01  1.50000000E+00  1.50000000E+00  8.00000000E-01
  8.00000000E-01  1.50000000E+00  1.50000000E+00  8.00000000E-01  8.00000000E-01
  1.50000000E+00  1.50000000E+00  8.00000000E-01  8.00000000E-01  1.50000000E+00
  1.50000000E+00  8.00000000E-01  8.00000000E-01  1.50000000E+00  1.50000000E+00
  8.00000000E-01  8.00000000E-01  1.50000000E+00  1.50000000E+00  8.00000000E-01
  8.00000000E-01  1.50000000E+00  1.50000000E+00  8.00000000E-01  8.00000000E-01
  1.50000000E+00  1.50000000E+00  8.00000000E-01  8.00000000E-01  1.50000000E+00
  1.50000000E+00  8.00000000E-01  8.00000000E-01  1.50000000E+00  1.50000000E+00
  8.00000000E-01  8.00000000E-01  1.50000000E+00  1.50000000E+00  8.00000000E-01
  8.00000000E-01  1.50000000E+00  1.50000000E+00  8.00000000E-01  8.00000000E-01
  1.50000000E+00  1.50000000E+00  8.00000000E-01  8.00000000E-01  1.50000000E+00
  1.50000000E+00  8.00000000E-01  8.00000000E-01  1.50000000E+00  1.50000000E+00
  8.00000000E-01  8.00000000E-01  1.50000000E+00  1.50000000E+00  8.00000000E-01
  8.00000000E-01  1.50000000E+00  1.50000000E+00  8.00000000E-01  8.00000000E-01
  1.50000000E+00  1.50000000E+00  8.00000000E-01  8.00000000E-01  1.50000000E+00
  1.50000000E+00  8.00000000E-01  8.00000000E-01  1.50000000E+00  1.50000000E+00
  8.00000000E-01  8.00000000E-01  1.50000000E+00  1.50000000E+00  8.00000000E-01
  8.00000000E-01  1.50000000E+00  1.50000000E+00  8.00000000E-01  8.00000000E-01
  1.50000000E+00  1.50000000E+00  8.00000000E-01  8.00000000E-01  1.50000000E+00
  1.50000000E+00  8.00000000E-01  8.00000000E-01  1.50000000E+00  1.50000000E+00
  8.00000000E-01  8.00000000E-01  1.50000000E+00  1.50000000E+00  8.00000000E-01
  8.00000000E-01  1.50000000E+00  1.50000000E+00  8.00000000E-01  8.00000000E-01
  1.50000000E+00  1.50000000E+00  8.00000000E-01  8.00000000E-01  1.50000000E+00
  1.50000000E+00  8.00000000E-01  8.00000000E-01  1.50000000E+00  1.50000000E+00
  8.00000000E-01  8.00000000E-01  1.50000000E+00  1.50000000E+00  8.00000000E-01
  8.00000000E-01  1.50000000E+00  1.50000000E+00  8.00000000E-01  8.00000000E-01
  1.50000000E+00  1.50000000E+00  8.00000000E-01  8.00000000E-01  1.50000000E+00
  1.50000000E+00  8.00000000E-01  8.00000000E-01  1.50000000E+00  1.50000000E+00
  8.00000000E-01  8.00000000E-01  1.50000000E+00  1.50000000E+00  8.00000000E-01
  8.00000000E-01  1.50000000E+00  1.50000000E+00  8.00000000E-01  8.00000000E-01
  1.50000000E+00  1.50000000E+00  8.00000000E-01  8.00000000E-01  1.50000000E+00
  1.50000000E+00  8.00000000E-01  8.00000000E-01  1.50000000E+00  1.50000000E+00
  8.00000000E-01  8.00000000E-01  1.50000000E+00  1.50000000E+00  8.00000000E-01
  8.00000000E-01  1.50000000E+00  1.50000000E+00  8.00000000E-01  8.00000000E-01
  1.50000000E+00  1.50000000E+00  8.00000000E-01  8.00000000E-01  1.50000000E+00
  1.50000000E+00  8.00000000E-01  8.00000000E-01  1.50000000E+00  1.50000000E+00
  8.00000000E-01  8.00000000E-01  1.50000000E+00  1.50000000E+00  8.00000000E-01
  8.00000000E-01  1.50000000E+00  1.50000000E+00  8.00000000E-01  8.00000000E-01
  1.50000000E+00  1.50000000E+00  8.00000000E-01  8.00000000E-01  1.50000000E+00
  1.50000000E+00  8.00000000E-01  8.00000000E-01  1.50000000E+00  1.50000000E+00
  8.00000000E-01  8.00000000E-01  1.50000000E+00  1.50000000E+00  8.00000000E-01
  8.00000000E-01  1.50000000E+00  1.50000000E+00  8.00000000E-01  8.00000000E-01
  1.50000000E+00  1.50000000E+00  8.00000000E-01  8.00000000E-01  1.50000000E+00
  1.50000000E+00  8.00000000E-01  8.00000000E-01  1.50000000E+00  1.50000000E+00
  8.00000000E-01  8.00000000E-01  1.50000000E+00  1.50000000E+00  8.00000000E-01
  8.00000000E-01  1.50000000E+00  1.50000000E+00  8.00000000E-01  8.00000000E-01
  1.50000000E+00  1.50000000E+00  8.00000000E-01  8.00000000E-01  1.50000000E+00
  1.50000000E+00  8.00000000E-01  8.00000000E-01  1.50000000E+00  1.50000000E+00
  8.00000000E-01  8.00000000E-01  1.50000000E+00  1.50000000E+00  8.00000000E-01
  8.00000000E-01  1.50000000E+00  1.50000000E+00  8.00000000E-01  8.00000000E-01
  1.50000000E+00  1.50000000E+00  8.00000000E-01  8.00000000E-01  1.50000000E+00
  1.50000000E+00  8.00000000E-01  8.00000000E-01  1.50000000E+00  1.50000000E+00
  8.00000000E-01  8.00000000E-01  1.50000000E+00  1.50000000E+00  8.00000000E-01
  8.00000000E-01  1.50000000E+00  1.50000000E+00  8.00000000E-01  8.00000000E-01
  1.50000000E+00  1.50000000E+00  8.00000000E-01  8.00000000E-01  1.50000000E+00
  1.50000000E+00  8.00000000E-01  8.00000000E-01  1.50000000E+00  1.50000000E+00
  8.00000000E-01  8.00000000E-01  1.50000000E+00  1.50000000E+00  8.00000000E-01
  8.00000000E-01  1.50000000E+00  1.50000000E+00  8.00000000E-01  8.00000000E-01
  1.50000000E+00  1.50000000E+00  8.00000000E-01  8.00000000E-01  1.50000000E+00
  1.50000000E+00  8.00000000E-01  8.00000000E-01  1.50000000E+00  1.50000000E+00
  8.00000000E-01  8.00000000E-01  1.50000000E+00  1.50000000E+00  8.00000000E-01
  8.00000000E-01  1.50000000E+00  1.50000000E+00  8.00000000E-01  8.00000000E-01
  1.50000000E+00  1.50000000E+00  8.00000000E-01  8.00000000E-01  1.50000000E+00
  1.50000000E+00  8.00000000E-01  8.00000000E-01  1.50000000E+00  1.50000000E+00
  8.00000000E-01  8.00000000E-01  1.50000000E+00  1.50000000E+00  8.00000000E-01
  8.00000000E-01  1.50000000E+00  1.50000000E+00  8.00000000E-01  8.00000000E-01
  1.50000000E+00  1.50000000E+00  8.00000000E-01  8.00000000E-01  1.50000000E+00
  1.50000000E+00  8.00000000E-01  8.00000000E-01  1.50000000E+00  1.50000000E+00
  8.00000000E-01  8.00000000E-01  1.50000000E+00  1.50000000E+00  8.00000000E-01
  8.00000000E-01  1.50000000E+00  1.50000000E+00  8.00000000E-01  8.00000000E-01
  1.50000000E+00  1.50000000E+00  8.00000000E-01  8.00000000E-01  1.50000000E+00
  1.50000000E+00  8.00000000E-01  8.00000000E-01  1.50000000E+00  1.50000000E+00
  8.00000000E-01  8.00000000E-01  1.50000000E+00  1.50000000E+00  8.00000000E-01
  8.00000000E-01  1.50000000E+00  1.50000000E+00  8.00000000E-01  8.00000000E-01
  1.50000000E+00  1.50000000E+00  8.00000000E-01  8.00000000E-01  1.50000000E+00
  1.50000000E+00  8.00000000E-01  8.00000000E-01  1.50000000E+00  1.50000000E+00
  8.00000000E-01  8.00000000E-01  1.50000000E+00  1.50000000E+00  8.00000000E-01
  8.00000000E-01  1.50000000E+00  1.50000000E+00  8.00000000E-01  8.00000000E-01
  1.50000000E+00  1.50000000E+00  8.00000000E-01  8.00000000E-01  1.50000000E+00
  1.50000000E+00  8.00000000E-01  8.00000000E-01  1.50000000E+00  1.50000000E+00
  8.00000000E-01  8.00000000E-01  1.50000000E+00  1.50000000E+00  8.00000000E-01
  8.00000000E-01  1.50000000E+00  1.50000000E+00  8.00000000E-01  8.00000000E-01
  1.50000000E+00  1.50000000E+00  8.00000000E-01  8.00000000E-01  1.50000000E+00
  1.50000000E+00  8.00000000E-01  8.00000000E-01  1.50000000E+00  1.50000000E+00
  8.00000000E-01  8.00000000E-01  1.50000000E+00  1.50000000E+00  8.00000000E-01
  8.00000000E-01  1.50000000E+00  1.50000000E+00  8.00000000E-01  8.00000000E-01
  1.50000000E+00  1.50000000E+00  8.00000000E-01  8.00000000E-01  1.50000000E+00
  1.50000000E+00  8.00000000E-01  8.00000000E-01  1.50000000E+00  1.50000000E+00
  8.00000000E-01  8.00000000E-01  1.50000000E+00  1.50000000E+00  8.00000000E-01
  8.00000000E-01  1.50000000E+00  1.50000000E+00  8.00000000E-01  8.00000000E-01
  1.50000000E+00  1.50000000E+00  8.00000000E-01  8.00000000E-01  1.50000000E+00
  1.50000000E+00  8.00000000E-01  8.00000000E-01  1.50000000E+00  1.50000000E+00
  8.00000000E-01  8.00000000E-01  1.50000000E+00  1.50000000E+00  8.00000000E-01
  8.00000000E-01  1.50000000E+00  1.50000000E+00  8.00000000E-01  8.00000000E-01
  1.50000000E+00  1.50000000E+00  8.00000000E-01  8.00000000E-01  1.50000000E+00
  1.50000000E+00  8.00000000E-01  8.00000000E-01  1.50000000E+00  1.50000000E+00
  8.00000000E-01  8.00000000E-01  1.50000000E+00  1.50000000E+00  8.00000000E-01
  8.00000000E-01  1.50000000E+00  1.50000000E+00  8.00000000E-01  8.00000000E-01
  1.50000000E+00  1.50000000E+00  8.00000000E-01  8.00000000E-01  1.50000000E+00
  1.50000000E+00  8.00000000E-01  8.00000000E-01  1.50000000E+00  1.50000000E+00
  8.00000000E-01  8.00000000E-01  1.50000000E+00  1.50000000E+00  8.00000000E-01
  8.00000000E-01  1.50000000E+00  1.50000000E+00  8.00000000E-01  8.00000000E-01
  1.50000000E+00  1.50000000E+00  8.00000000E-01  8.00000000E-01  1.50000000E+00
  1.50000000E+00  8.00000000E-01  8.00000000E-01  1.50000000E+00  1.50000000E+00
  8.00000000E-01  8.00000000E-01  1.50000000E+00  1.50000000E+00  8.00000000E-01
  8.00000000E-01  1.50000000E+00  1.50000000E+00  8.00000000E-01  8.00000000E-01
  1.50000000E+00  1.50000000E+00  8.00000000E-01  8.00000000E-01  1.50000000E+00
  1.50000000E+00  8.00000000E-01  8.00000000E-01  1.50000000E+00  1.50000000E+00
  8.00000000E-01  8.00000000E-01  1.50000000E+00  1.50000000E+00  8.00000000E-01
  8.00000000E-01  1.50000000E+00  1.50000000E+00  8.00000000E-01  8.00000000E-01
  1.50000000E+00  1.50000000E+00  8.00000000E-01  8.00000000E-01  1.50000000E+00
  1.50000000E+00  8.00000000E-01  8.00000000E-01  1.50000000E+00  1.50000000E+00
  8.00000000E-01  8.00000000E-01  1.50000000E+00  1.50000000E+00  8.00000000E-01
  8.00000000E-01  1.50000000E+00  1.50000000E+00  8.00000000E-01  8.00000000E-01
  1.50000000E+00  1.50000000E+00  8.00000000E-01  8.00000000E-01  1.50000000E+00
  1.50000000E+00  8.00000000E-01  8.00000000E-01  1.50000000E+00  1.50000000E+00
  8.00000000E-01  8.00000000E-01  1.50000000E+00  1.50000000E+00  8.00000000E-01
  8.00000000E-01  1.50000000E+00  1.50000000E+00  8.00000000E-01  8.00000000E-01
  1.50000000E+00  1.50000000E+00  8.00000000E-01  8.00000000E-01  1.50000000E+00
  1.50000000E+00  8.00000000E-01  8.00000000E-01  1.50000000E+00  1.50000000E+00
  8.00000000E-01  8.00000000E-01  1.50000000E+00  1.50000000E+00  8.00000000E-01
  8.00000000E-01  1.50000000E+00  1.50000000E+00  8.00000000E-01  8.00000000E-01
  1.50000000E+00  1.50000000E+00  8.00000000E-01  8.00000000E-01  1.50000000E+00
  1.50000000E+00  8.00000000E-01  8.00000000E-01  1.50000000E+00  1.50000000E+00
  8.00000000E-01  8.00000000E-01  1.50000000E+00  1.50000000E+00  8.00000000E-01
  8.00000000E-01  1.50000000E+00  1.50000000E+00  8.00000000E-01  8.00000000E-01
  1.50000000E+00  1.50000000E+00  8.00000000E-01  8.00000000E-01  1.50000000E+00
  1.50000000E+00  8.00000000E-01  8.00000000E-01  1.50000000E+00  1.50000000E+00
  8.00000000E-01  8.00000000E-01  1.50000000E+00  1.50000000E+00  8.00000000E-01
  8.00000000E-01  1.50000000E+00  1.50000000E+00  8.00000000E-01  8.00000000E-01
  1.50000000E+00  1.50000000E+00  8.00000000E-01  8.00000000E-01  1.50000000E+00
  1.50000000E+00  8.00000000E-01  8.00000000E-01  1.50000000E+00  1.50000000E+00
  8.00000000E-01  8.00000000E-01  1.50000000E+00  1.50000000E+00  8.00000000E-01
  8.00000000E-01  1.50000000E+00  1.50000000E+00  8.00000000E-01  8.00000000E-01
  1.50000000E+00  1.50000000E+00  8.00000000E-01  8.00000000E-01  1.50000000E+00
  1.50000000E+00  8.00000000E-01  8.00000000E-01  1.50000000E+00  1.50000000E+00
  8.00000000E-01  8.00000000E-01  1.50000000E+00  1.50000000E+00  8.00000000E-01
  8.00000000E-01  1.50000000E+00  1.50000000E+00  8.00000000E-01  8.00000000E-01
  1.50000000E+00  1.50000000E+00  8.00000000E-01  8.00000000E-01  1.50000000E+00
  1.50000000E+00  8.00000000E-01  8.00000000E-01  1.50000000E+00  1.50000000E+00
  8.00000000E-01  8.00000000E-01  1.50000000E+00  1.50000000E+00  8.00000000E-01
  8.00000000E-01  1.50000000E+00  1.50000000E+00  8.00000000E-01  8.00000000E-01
  1.50000000E+00  1.50000000E+00  8.00000000E-01  8.00000000E-01  1.50000000E+00
  1.50000000E+00  8.00000000E-01  8.00000000E-01  1.50000000E+00  1.50000000E+00
  8.00000000E-01  8.00000000E-01  1.50000000E+00  1.50000000E+00  8.00000000E-01
  8.00000000E-01  1.50000000E+00  1.50000000E+00  8.00000000E-01  8.00000000E-01
  1.50000000E+00  1.50000000E+00  8.00000000E-01  8.00000000E-01  1.50000000E+00
  1.50000000E+00  8.00000000E-01  8.00000000E-01  1.50000000E+00  1.50000000E+00
  8.00000000E-01  8.00000000E-01  1.50000000E+00  1.50000000E+00  8.00000000E-01
  8.00000000E-01  1.50000000E+00  1.50000000E+00  8.00000000E-01  8.00000000E-01
  1.50000000E+00  1.50000000E+00  8.00000000E-01  8.00000000E-01  1.50000000E+00
  1.50000000E+00  8.00000000E-01  8.00000000E-01  1.50000000E+00  1.50000000E+00
  8.00000000E-01  8.00000000E-01  1.50000000E+00  1.50000000E+00  8.00000000E-01
  8.00000000E-01  1.50000000E+00  1.50000000E+00  8.00000000E-01  8.00000000E-01
  1.50000000E+00  1.50000000E+00  8.00000000E-01  8.00000000E-01  1.50000000E+00
  1.50000000E+00  8.00000000E-01  8.00000000E-01  1.50000000E+00  1.50000000E+00
  8.00000000E-01  8.00000000E-01  1.50000000E+00  1.50000000E+00  8.00000000E-01
  8.00000000E-01  1.50000000E+00  1.50000000E+00  8.00000000E-01  8.00000000E-01
  1.50000000E+00  1.50000000E+00  8.00000000E-01  8.00000000E-01  1.50000000E+00
  1.50000000E+00  8.00000000E-01  8.00000000E-01  1.50000000E+00  1.50000000E+00
  8.00000000E-01  8.00000000E-01  1.50000000E+00  1.50000000E+00  8.00000000E-01
  8.00000000E-01  1.50000000E+00  1.50000000E+00  8.00000000E-01  8.00000000E-01
  1.50000000E+00  1.50000000E+00  8.00000000E-01  8.00000000E-01  1.50000000E+00
  1.50000000E+00  8.00000000E-01  8.00000000E-01  1.50000000E+00  1.50000000E+00
  8.00000000E-01  8.00000000E-01  1.50000000E+00  1.50000000E+00  8.00000000E-01
  8.00000000E-01  1.50000000E+00  1.50000000E+00  8.00000000E-01  8.00000000E-01
  1.50000000E+00  1.50000000E+00  8.00000000E-01  8.00000000E-01  1.50000000E+00
  1.50000000E+00  8.00000000E-01  8.00000000E-01  1.50000000E+00  1.50000000E+00
  8.00000000E-01  8.00000000E-01  1.50000000E+00  1.50000000E+00  8.00000000E-01
  8.00000000E-01  1.50000000E+00  1.50000000E+00  8.00000000E-01  8.00000000E-01
  1.50000000E+00  1.50000000E+00  8.00000000E-01  8.00000000E-01  1.50000000E+00
  1.50000000E+00  8.00000000E-01  8.00000000E-01  1.50000000E+00  1.50000000E+00
  8.00000000E-01  8.00000000E-01  1.50000000E+00  1.50000000E+00  8.00000000E-01
  8.00000000E-01  1.50000000E+00  1.50000000E+00  8.00000000E-01  8.00000000E-01
  1.50000000E+00  1.50000000E+00  8.00000000E-01  8.00000000E-01  1.50000000E+00
  1.50000000E+00  8.00000000E-01  8.00000000E-01  1.50000000E+00  1.50000000E+00
  8.00000000E-01  8.00000000E-01  1.50000000E+00  1.50000000E+00  8.00000000E-01
  8.00000000E-01  1.50000000E+00  1.50000000E+00  8.00000000E-01  8.00000000E-01
  1.50000000E+00  1.50000000E+00  8.00000000E-01  8.00000000E-01  1.50000000E+00
  1.50000000E+00  8.00000000E-01  8.00000000E-01  1.50000000E+00  1.50000000E+00
  8.00000000E-01  8.00000000E-01  1.50000000E+00  1.50000000E+00  8.00000000E-01
  8.00000000E-01  1.50000000E+00  1.50000000E+00  8.00000000E-01  8.00000000E-01
  1.50000000E+00  1.50000000E+00  8.00000000E-01  8.00000000E-01  1.50000000E+00
  1.50000000E+00  8.00000000E-01  8.00000000E-01  1.50000000E+00  1.50000000E+00
  8.00000000E-01  8.00000000E-01  1.50000000E+00  1.50000000E+00  8.00000000E-01
  8.00000000E-01  1.50000000E+00  1.50000000E+00  8.00000000E-01  8.00000000E-01
  1.50000000E+00  1.50000000E+00  8.00000000E-01  8.00000000E-01  1.50000000E+00
  1.50000000E+00  8.00000000E-01  8.00000000E-01  1.50000000E+00  1.50000000E+00
  8.00000000E-01  8.00000000E-01  1.50000000E+00  1.50000000E+00  8.00000000E-01
  8.00000000E-01  1.50000000E+00  1.50000000E+00  8.00000000E-01  8.00000000E-01
  1.50000000E+00  1.50000000E+00  8.00000000E-01  8.00000000E-01  1.50000000E+00
  1.50000000E+00  8.00000000E-01  8.00000000E-01  1.50000000E+00  1.50000000E+00
  8.00000000E-01  8.00000000E-01  1.50000000E+00  1.50000000E+00  8.00000000E-01
  8.00000000E-01  1.50000000E+00  1.50000000E+00  8.00000000E-01  8.00000000E-01
  1.50000000E+00  1.50000000E+00  8.00000000E-01  8.00000000E-01  1.50000000E+00
  1.50000000E+00  8.00000000E-01  8.00000000E-01  1.50000000E+00  1.50000000E+00
  8.00000000E-01  8.00000000E-01  1.50000000E+00  1.50000000E+00  8.00000000E-01
  8.00000000E-01  1.50000000E+00  1.50000000E+00  8.00000000E-01  8.00000000E-01
  1.50000000E+00  1.50000000E+00  8.00000000E-01  8.00000000E-01  1.50000000E+00
  1.50000000E+00  8.00000000E-01  8.00000000E-01  1.50000000E+00  1.50000000E+00
  8.00000000E-01  8.00000000E-01  1.50000000E+00  1.50000000E+00  8.00000000E-01
  8.00000000E-01  1.50000000E+00  1.50000000E+00  8.00000000E-01  8.00000000E-01
  1.50000000E+00  1.50000000E+00  8.00000000E-01  8.00000000E-01  1.50000000E+00
  1.50000000E+00  8.00000000E-01  8.00000000E-01  1.50000000E+00  1.50000000E+00
  8.00000000E-01  8.00000000E-01  1.50000000E+00  1.50000000E+00  8.00000000E-01
  8.00000000E-01  1.50000000E+00  1.50000000E+00  8.00000000E-01  8.00000000E-01
  1.50000000E+00  1.50000000E+00  8.00000000E-01  8.00000000E-01  1.50000000E+00
  1.50000000E+00  8.00000000E-01  8.00000000E-01  1.50000000E+00  1.50000000E+00
  8.00000000E-01  8.00000000E-01  1.50000000E+00  1.50000000E+00  8.00000000E-01
  8.00000000E-01  1.50000000E+00  1.50000000E+00  8.00000000E-01  8.00000000E-01
  1.50000000E+00  1.50000000E+00  8.00000000E-01  8.00000000E-01  1.50000000E+00
  1.50000000E+00  8.00000000E-01  8.00000000E-01  1.50000000E+00  1.50000000E+00
  8.00000000E-01  8.00000000E-01  1.50000000E+00  1.50000000E+00  8.00000000E-01
  8.00000000E-01  1.50000000E+00  1.50000000E+00  8.00000000E-01  8.00000000E-01
  1.50000000E+00  1.50000000E+00  8.00000000E-01  8.00000000E-01  1.50000000E+00
  1.50000000E+00  8.00000000E-01  8.00000000E-01  1.50000000E+00  1.50000000E+00
  8.00000000E-01  8.00000000E-01  1.50000000E+00  1.50000000E+00  8.00000000E-01
  8.00000000E-01  1.50000000E+00  1.50000000E+00  8.00000000E-01  8.00000000E-01
  1.50000000E+00  1.50000000E+00  8.00000000E-01  8.00000000E-01  1.50000000E+00
  1.50000000E+00  8.00000000E-01  8.00000000E-01  1.50000000E+00  1.50000000E+00
  8.00000000E-01  8.00000000E-01  1.50000000E+00  1.50000000E+00  8.00000000E-01
  8.00000000E-01  1.50000000E+00  1.50000000E+00  8.00000000E-01  8.00000000E-01
  1.50000000E+00  1.50000000E+00  8.00000000E-01  8.00000000E-01  1.50000000E+00
  1.50000000E+00  8.00000000E-01  8.00000000E-01  1.50000000E+00  1.50000000E+00
  8.00000000E-01  8.00000000E-01  1.50000000E+00  1.50000000E+00  8.00000000E-01
  8.00000000E-01  1.50000000E+00  1.50000000E+00  8.00000000E-01  8.00000000E-01
  1.50000000E+00  1.50000000E+00  8.00000000E-01  8.00000000E-01  1.50000000E+00
  1.50000000E+00  8.00000000E-01  8.00000000E-01  1.50000000E+00  1.50000000E+00
  8.00000000E-01  8.00000000E-01  1.50000000E+00  1.50000000E+00  8.00000000E-01
  8.00000000E-01  1.50000000E+00  1.50000000E+00  8.00000000E-01  8.00000000E-01
  1.50000000E+00  1.50000000E+00  8.00000000E-01  8.00000000E-01  1.50000000E+00
  1.50000000E+00  8.00000000E-01  8.00000000E-01  1.50000000E+00  1.50000000E+00
  8.00000000E-01  8.00000000E-01  1.50000000E+00  1.50000000E+00  8.00000000E-01
  8.00000000E-01  1.50000000E+00  1.50000000E+00  8.00000000E-01  8.00000000E-01
  1.50000000E+00  1.50000000E+00  8.00000000E-01  8.00000000E-01  1.50000000E+00
  1.50000000E+00  8.00000000E-01  8.00000000E-01  1.50000000E+00  1.50000000E+00
  8.00000000E-01  8.00000000E-01  1.50000000E+00  1.50000000E+00  8.00000000E-01
  8.00000000E-01  1.50000000E+00  1.50000000E+00  8.00000000E-01  8.00000000E-01
  1.50000000E+00  1.50000000E+00  8.00000000E-01  8.00000000E-01  1.50000000E+00
  1.50000000E+00  8.00000000E-01  8.00000000E-01  1.50000000E+00  1.50000000E+00
  8.00000000E-01  8.00000000E-01  1.50000000E+00  1.50000000E+00  8.00000000E-01
  8.00000000E-01  1.50000000E+00  1.50000000E+00  8.00000000E-01  8.00000000E-01
  1.50000000E+00  1.50000000E+00  8.00000000E-01  8.00000000E-01  1.50000000E+00
  1.50000000E+00  8.00000000E-01  8.00000000E-01  1.50000000E+00  1.50000000E+00
  8.00000000E-01  8.00000000E-01  1.50000000E+00  1.50000000E+00  8.00000000E-01
  8.00000000E-01  1.50000000E+00  1.50000000E+00  8.00000000E-01  8.00000000E-01
  1.50000000E+00  1.50000000E+00  8.00000000E-01  8.00000000E-01  1.50000000E+00
  1.50000000E+00  8.00000000E-01  8.00000000E-01  1.50000000E+00  1.50000000E+00
  8.00000000E-01  8.00000000E-01  1.50000000E+00  1.50000000E+00  8.00000000E-01
  8.00000000E-01  1.50000000E+00  1.50000000E+00  8.00000000E-01  8.00000000E-01
  1.50000000E+00  1.50000000E+00  8.00000000E-01  8.00000000E-01  1.50000000E+00
  1.50000000E+00  8.00000000E-01  8.00000000E-01  1.50000000E+00  1.50000000E+00
  8.00000000E-01  8.00000000E-01  1.50000000E+00  1.50000000E+00  8.00000000E-01
  8.00000000E-01  1.50000000E+00  1.50000000E+00  8.00000000E-01  8.00000000E-01
  1.50000000E+00  1.50000000E+00  8.00000000E-01  8.00000000E-01  1.50000000E+00
  1.50000000E+00  8.00000000E-01  8.00000000E-01  1.50000000E+00  1.50000000E+00
  8.00000000E-01  8.00000000E-01  1.50000000E+00  1.50000000E+00  8.00000000E-01
  8.00000000E-01  1.50000000E+00  1.50000000E+00  8.00000000E-01  8.00000000E-01
  1.50000000E+00  1.50000000E+00  8.00000000E-01  8.00000000E-01  1.50000000E+00
  1.50000000E+00  8.00000000E-01  8.00000000E-01  1.50000000E+00  1.50000000E+00
  8.00000000E-01  8.00000000E-01  1.50000000E+00  1.50000000E+00  8.00000000E-01
  8.00000000E-01  1.50000000E+00  1.50000000E+00  8.00000000E-01  8.00000000E-01
  1.50000000E+00  1.50000000E+00  8.00000000E-01  8.00000000E-01  1.50000000E+00
  1.50000000E+00  8.00000000E-01  8.00000000E-01  1.50000000E+00  1.50000000E+00
  8.00000000E-01  8.00000000E-01  1.50000000E+00  1.50000000E+00  8.00000000E-01
  8.00000000E-01  1.50000000E+00  1.50000000E+00  8.00000000E-01  8.00000000E-01
  1.50000000E+00  1.50000000E+00  8.00000000E-01  8.00000000E-01  1.50000000E+00
  1.50000000E+00  8.00000000E-01  8.00000000E-01  1.50000000E+00  1.50000000E+00
  8.00000000E-01  8.00000000E-01  1.50000000E+00  1.50000000E+00  8.00000000E-01
  8.00000000E-01  1.50000000E+00  1.50000000E+00  8.00000000E-01  8.00000000E-01
  1.50000000E+00  1.50000000E+00  8.00000000E-01  8.00000000E-01  1.50000000E+00
  1.50000000E+00  8.00000000E-01  8.00000000E-01  1.50000000E+00  1.50000000E+00
  8.00000000E-01  8.00000000E-01  1.50000000E+00  1.50000000E+00  8.00000000E-01
  8.00000000E-01  1.50000000E+00  1.50000000E+00  8.00000000E-01  8.00000000E-01
  1.50000000E+00  1.50000000E+00  8.00000000E-01  8.00000000E-01  1.50000000E+00
  1.50000000E+00  8.00000000E-01  8.00000000E-01  1.50000000E+00  1.50000000E+00
  8.00000000E-01  8.00000000E-01  1.50000000E+00  1.50000000E+00  8.00000000E-01
  8.00000000E-01  1.50000000E+00  1.50000000E+00  8.00000000E-01  8.00000000E-01
  1.50000000E+00  1.50000000E+00  8.00000000E-01  8.00000000E-01  1.50000000E+00
  1.50000000E+00  8.00000000E-01  8.00000000E-01  1.50000000E+00  1.50000000E+00
  8.00000000E-01  8.00000000E-01  1.50000000E+00  1.50000000E+00  8.00000000E-01
  8.00000000E-01  1.50000000E+00  1.50000000E+00  8.00000000E-01  8.00000000E-01
  1.50000000E+00  1.50000000E+00  8.00000000E-01  8.00000000E-01  1.50000000E+00
  1.50000000E+00  8.00000000E-01  8.00000000E-01  1.50000000E+00  1.50000000E+00
  8.00000000E-01  8.00000000E-01  1.50000000E+00  1.50000000E+00  8.00000000E-01
  8.00000000E-01  1.50000000E+00  1.50000000E+00  8.00000000E-01  8.00000000E-01
  1.50000000E+00  1.50000000E+00  8.00000000E-01  8.00000000E-01  1.50000000E+00
  1.50000000E+00  8.00000000E-01  8.00000000E-01  1.50000000E+00  1.50000000E+00
  8.00000000E-01  8.00000000E-01  1.50000000E+00  1.50000000E+00  8.00000000E-01
  8.00000000E-01  1.50000000E+00  1.50000000E+00  8.00000000E-01  8.00000000E-01
  1.50000000E+00  1.50000000E+00  8.00000000E-01  8.00000000E-01  1.50000000E+00
  1.50000000E+00  8.00000000E-01  8.00000000E-01  1.50000000E+00  1.50000000E+00
  8.00000000E-01  8.00000000E-01  1.50000000E+00  1.50000000E+00  8.00000000E-01
  8.00000000E-01  1.50000000E+00  1.50000000E+00  8.00000000E-01  8.00000000E-01
  1.50000000E+00  1.50000000E+00  8.00000000E-01  8.00000000E-01  1.50000000E+00
  1.50000000E+00  8.00000000E-01  8.00000000E-01  1.50000000E+00  1.50000000E+00
  8.00000000E-01  8.00000000E-01  1.50000000E+00  1.50000000E+00  8.00000000E-01
  8.00000000E-01  1.50000000E+00  1.50000000E+00  8.00000000E-01  8.00000000E-01
  1.50000000E+00  1.50000000E+00  8.00000000E-01  8.00000000E-01  1.50000000E+00
  1.50000000E+00  8.00000000E-01  8.00000000E-01  1.50000000E+00  1.50000000E+00
  8.00000000E-01  8.00000000E-01  1.50000000E+00  1.50000000E+00  8.00000000E-01
  8.00000000E-01  1.50000000E+00  1.50000000E+00  8.00000000E-01  8.00000000E-01
  1.50000000E+00  1.50000000E+00  8.00000000E-01  8.00000000E-01  1.50000000E+00
  1.50000000E+00  8.00000000E-01  8.00000000E-01  1.50000000E+00  1.50000000E+00
  8.00000000E-01  8.00000000E-01  1.50000000E+00  1.50000000E+00  8.00000000E-01
  8.00000000E-01  1.50000000E+00  1.50000000E+00  8.00000000E-01  8.00000000E-01
  1.50000000E+00  1.50000000E+00  8.00000000E-01  8.00000000E-01  1.50000000E+00
  1.50000000E+00  8.00000000E-01  8.00000000E-01  1.50000000E+00  1.50000000E+00
  8.00000000E-01  8.00000000E-01  1.50000000E+00  1.50000000E+00  8.00000000E-01
  8.00000000E-01  1.50000000E+00  1.50000000E+00  8.00000000E-01  8.00000000E-01
  1.50000000E+00  1.50000000E+00  8.00000000E-01  8.00000000E-01  1.50000000E+00
  1.50000000E+00  8.00000000E-01  8.00000000E-01  1.50000000E+00  1.50000000E+00
  8.00000000E-01  8.00000000E-01  1.50000000E+00  1.50000000E+00  8.00000000E-01
  8.00000000E-01  1.50000000E+00  1.50000000E+00  8.00000000E-01  8.00000000E-01
  1.50000000E+00  1.50000000E+00  8.00000000E-01  8.00000000E-01  1.50000000E+00
  1.50000000E+00  8.00000000E-01  8.00000000E-01  1.50000000E+00  1.50000000E+00
  8.00000000E-01  8.00000000E-01  1.50000000E+00  1.50000000E+00  8.00000000E-01
  8.00000000E-01  1.50000000E+00  1.50000000E+00  8.00000000E-01  8.00000000E-01
  1.50000000E+00  1.50000000E+00  8.00000000E-01  8.00000000E-01  1.50000000E+00
  1.50000000E+00  8.00000000E-01  8.00000000E-01  1.50000000E+00  1.50000000E+00
  8.00000000E-01  8.00000000E-01  1.50000000E+00  1.50000000E+00  8.00000000E-01
  8.00000000E-01  1.50000000E+00  1.50000000E+00  8.00000000E-01  8.00000000E-01
  1.50000000E+00  1.50000000E+00  8.00000000E-01  8.00000000E-01  1.50000000E+00
  1.50000000E+00  8.00000000E-01  8.00000000E-01  1.50000000E+00  1.50000000E+00
  8.00000000E-01  8.00000000E-01  1.50000000E+00  1.50000000E+00  8.00000000E-01
  8.00000000E-01  1.50000000E+00  1.50000000E+00  8.00000000E-01  8.00000000E-01
  1.50000000E+00  1.50000000E+00  8.00000000E-01  8.00000000E-01  1.50000000E+00
  1.50000000E+00  8.00000000E-01  8.00000000E-01  1.50000000E+00  1.50000000E+00
  8.00000000E-01  8.00000000E-01  1.50000000E+00  1.50000000E+00  8.00000000E-01
  8.00000000E-01  1.50000000E+00  1.50000000E+00  8.00000000E-01  8.00000000E-01
  1.50000000E+00  1.50000000E+00  8.00000000E-01  8.00000000E-01  1.50000000E+00
  1.50000000E+00  8.00000000E-01  8.00000000E-01  1.50000000E+00  1.50000000E+00
  8.00000000E-01  8.00000000E-01  1.50000000E+00  1.50000000E+00  8.00000000E-01
  8.00000000E-01  1.50000000E+00  1.50000000E+00  8.00000000E-01  8.00000000E-01
  1.50000000E+00  1.50000000E+00  8.00000000E-01  8.00000000E-01  1.50000000E+00
  1.50000000E+00  8.00000000E-01  8.00000000E-01  1.50000000E+00  1.50000000E+00
  8.00000000E-01  8.00000000E-01  1.50000000E+00  1.50000000E+00  8.00000000E-01
  8.00000000E-01  1.50000000E+00  1.50000000E+00  8.00000000E-01  8.00000000E-01
  1.50000000E+00  1.50000000E+00  8.00000000E-01  8.00000000E-01  1.50000000E+00
  1.50000000E+00  8.00000000E-01  8.00000000E-01  1.50000000E+00  1.50000000E+00
  8.00000000E-01  8.00000000E-01  1.50000000E+00  1.50000000E+00  8.00000000E-01
  8.00000000E-01  1.50000000E+00  1.50000000E+00  8.00000000E-01  8.00000000E-01
  1.50000000E+00  1.50000000E+00  8.00000000E-01  8.00000000E-01  1.50000000E+00
  1.50000000E+00  8.00000000E-01  8.00000000E-01  1.50000000E+00  1.50000000E+00
  8.00000000E-01  8.00000000E-01  1.50000000E+00  1.50000000E+00  8.00000000E-01
  8.00000000E-01  1.50000000E+00  1.50000000E+00  8.00000000E-01  8.00000000E-01
  1.50000000E+00  1.50000000E+00  8.00000000E-01  8.00000000E-01  1.50000000E+00
  1.50000000E+00  8.00000000E-01  8.00000000E-01  1.50000000E+00  1.50000000E+00
  8.00000000E-01  8.00000000E-01  1.50000000E+00  1.50000000E+00  8.00000000E-01
  8.00000000E-01  1.50000000E+00  1.50000000E+00  8.00000000E-01  8.00000000E-01
  1.50000000E+00  1.50000000E+00  8.00000000E-01  8.00000000E-01  1.50000000E+00
  1.50000000E+00  8.00000000E-01  8.00000000E-01  1.50000000E+00  1.50000000E+00
  8.00000000E-01  8.00000000E-01  1.50000000E+00  1.50000000E+00  8.00000000E-01
  8.00000000E-01  1.50000000E+00  1.50000000E+00  8.00000000E-01  8.00000000E-01
  1.50000000E+00  1.50000000E+00  8.00000000E-01  8.00000000E-01  1.50000000E+00
  1.50000000E+00  8.00000000E-01  8.00000000E-01  1.50000000E+00  1.50000000E+00
  8.00000000E-01  8.00000000E-01  1.50000000E+00  1.50000000E+00  8.00000000E-01
  8.00000000E-01  1.50000000E+00  1.50000000E+00  8.00000000E-01  8.00000000E-01
  1.50000000E+00  1.50000000E+00  8.00000000E-01  8.00000000E-01  1.50000000E+00
  1.50000000E+00  8.00000000E-01  8.00000000E-01  1.50000000E+00  1.50000000E+00
  8.00000000E-01  8.00000000E-01  1.50000000E+00  1.50000000E+00  8.00000000E-01
  8.00000000E-01  1.50000000E+00  1.50000000E+00  8.00000000E-01  8.00000000E-01
  1.50000000E+00  1.50000000E+00  8.00000000E-01  8.00000000E-01  1.50000000E+00
  1.50000000E+00  8.00000000E-01  8.00000000E-01  1.50000000E+00  1.50000000E+00
  8.00000000E-01  8.00000000E-01  1.50000000E+00  1.50000000E+00  8.00000000E-01
  8.00000000E-01  1.50000000E+00  1.50000000E+00  8.00000000E-01  8.00000000E-01
  1.50000000E+00  1.50000000E+00  8.00000000E-01  8.00000000E-01  1.50000000E+00
  1.50000000E+00  8.00000000E-01  8.00000000E-01  1.50000000E+00  1.50000000E+00
  8.00000000E-01  8.00000000E-01  1.50000000E+00  1.50000000E+00  8.00000000E-01
  8.00000000E-01  1.50000000E+00  1.50000000E+00  8.00000000E-01  8.00000000E-01
  1.50000000E+00  1.50000000E+00  8.00000000E-01  8.00000000E-01  1.50000000E+00
  1.50000000E+00  8.00000000E-01  8.00000000E-01  1.50000000E+00  1.50000000E+00
  8.00000000E-01  8.00000000E-01  1.50000000E+00  1.50000000E+00  8.00000000E-01
  8.00000000E-01  1.50000000E+00  1.50000000E+00  8.00000000E-01  8.00000000E-01
  1.50000000E+00  1.50000000E+00  8.00000000E-01  8.00000000E-01  1.50000000E+00
  1.50000000E+00  8.00000000E-01  8.00000000E-01  1.50000000E+00  1.50000000E+00
  8.00000000E-01  8.00000000E-01  1.50000000E+00  1.50000000E+00  8.00000000E-01
  8.00000000E-01  1.50000000E+00  1.50000000E+00  8.00000000E-01  8.00000000E-01
  1.50000000E+00  1.50000000E+00  8.00000000E-01  8.00000000E-01  1.50000000E+00
  1.50000000E+00  8.00000000E-01  8.00000000E-01  1.50000000E+00  1.50000000E+00
  8.00000000E-01  8.00000000E-01  1.50000000E+00  1.50000000E+00  8.00000000E-01
  8.00000000E-01  1.50000000E+00  1.50000000E+00  8.00000000E-01  8.00000000E-01
  1.50000000E+00  1.50000000E+00  8.00000000E-01  8.00000000E-01  1.50000000E+00
  1.50000000E+00  8.00000000E-01  8.00000000E-01  1.50000000E+00  1.50000000E+00
  8.00000000E-01  8.00000000E-01  1.50000000E+00  1.50000000E+00  8.00000000E-01
  8.00000000E-01  1.50000000E+00  1.50000000E+00  8.00000000E-01  8.00000000E-01
  1.50000000E+00  1.50000000E+00  8.00000000E-01  8.00000000E-01  1.50000000E+00
  1.50000000E+00  8.00000000E-01  8.00000000E-01  1.50000000E+00  1.50000000E+00
  8.00000000E-01  8.00000000E-01  1.50000000E+00  1.50000000E+00  8.00000000E-01
  8.00000000E-01  1.50000000E+00  1.50000000E+00  8.00000000E-01  8.00000000E-01
  1.50000000E+00  1.50000000E+00  8.00000000E-01  8.00000000E-01  1.50000000E+00
  1.50000000E+00  8.00000000E-01  8.00000000E-01  1.50000000E+00  1.50000000E+00
  8.00000000E-01  8.00000000E-01  1.50000000E+00  1.50000000E+00  8.00000000E-01
  8.00000000E-01  1.50000000E+00  1.50000000E+00  8.00000000E-01  8.00000000E-01
  1.50000000E+00  1.50000000E+00  8.00000000E-01  8.00000000E-01  1.50000000E+00
  1.50000000E+00  8.00000000E-01  8.00000000E-01  1.50000000E+00  1.50000000E+00
  8.00000000E-01  8.00000000E-01  1.50000000E+00  1.50000000E+00  8.00000000E-01
  8.00000000E-01  1.50000000E+00  1.50000000E+00  8.00000000E-01  8.00000000E-01
  1.50000000E+00  1.50000000E+00  8.00000000E-01  8.00000000E-01  1.50000000E+00
  1.50000000E+00  8.00000000E-01  8.00000000E-01  1.50000000E+00  1.50000000E+00
  8.00000000E-01  8.00000000E-01  1.50000000E+00  1.50000000E+00  8.00000000E-01
  8.00000000E-01  1.50000000E+00  1.50000000E+00  8.00000000E-01  8.00000000E-01
  1.50000000E+00  1.50000000E+00  8.00000000E-01  8.00000000E-01  1.50000000E+00
  1.50000000E+00  8.00000000E-01  8.00000000E-01  1.50000000E+00  1.50000000E+00
  8.00000000E-01  8.00000000E-01  1.50000000E+00  1.50000000E+00  8.00000000E-01
  8.00000000E-01  1.50000000E+00  1.50000000E+00  8.00000000E-01  8.00000000E-01
  1.50000000E+00  1.50000000E+00  8.00000000E-01  8.00000000E-01  1.50000000E+00
  1.50000000E+00  8.00000000E-01  8.00000000E-01  1.50000000E+00  1.50000000E+00
  8.00000000E-01  8.00000000E-01  1.50000000E+00  1.50000000E+00  8.00000000E-01
  8.00000000E-01  1.50000000E+00  1.50000000E+00  8.00000000E-01  8.00000000E-01
  1.50000000E+00  1.50000000E+00  8.00000000E-01  8.00000000E-01  1.50000000E+00
  1.50000000E+00  8.00000000E-01  8.00000000E-01  1.50000000E+00  1.50000000E+00
  8.00000000E-01  8.00000000E-01  1.50000000E+00  1.50000000E+00  8.00000000E-01
  8.00000000E-01  1.50000000E+00  1.50000000E+00  8.00000000E-01  8.00000000E-01
  1.50000000E+00  1.50000000E+00  8.00000000E-01  8.00000000E-01  1.50000000E+00
  1.50000000E+00  8.00000000E-01  8.00000000E-01  1.50000000E+00  1.50000000E+00
  8.00000000E-01  8.00000000E-01  1.50000000E+00  1.50000000E+00  8.00000000E-01
  8.00000000E-01  1.50000000E+00  1.50000000E+00  8.00000000E-01  8.00000000E-01
  1.50000000E+00  1.50000000E+00  8.00000000E-01  8.00000000E-01  1.50000000E+00
  1.50000000E+00  8.00000000E-01  8.00000000E-01  1.50000000E+00  1.50000000E+00
  8.00000000E-01  8.00000000E-01  1.50000000E+00  1.50000000E+00  8.00000000E-01
  8.00000000E-01  1.50000000E+00  1.50000000E+00  8.00000000E-01  8.00000000E-01
  1.50000000E+00  1.50000000E+00  8.00000000E-01  8.00000000E-01  1.50000000E+00
  1.50000000E+00  8.00000000E-01  8.00000000E-01  1.50000000E+00  1.50000000E+00
  8.00000000E-01  8.00000000E-01  1.50000000E+00  1.50000000E+00  8.00000000E-01
  8.00000000E-01  1.50000000E+00  1.50000000E+00  8.00000000E-01  8.00000000E-01
  1.50000000E+00  1.50000000E+00  8.00000000E-01  8.00000000E-01  1.50000000E+00
  1.50000000E+00  8.00000000E-01  8.00000000E-01  1.50000000E+00  1.50000000E+00
  8.00000000E-01  8.00000000E-01  1.50000000E+00  1.50000000E+00  8.00000000E-01
  8.00000000E-01  1.50000000E+00  1.50000000E+00  8.00000000E-01  8.00000000E-01
  1.50000000E+00  1.50000000E+00  8.00000000E-01  8.00000000E-01  1.50000000E+00
  1.50000000E+00  8.00000000E-01  8.00000000E-01  1.50000000E+00  1.50000000E+00
  8.00000000E-01  8.00000000E-01  1.50000000E+00  1.50000000E+00  8.00000000E-01
  8.00000000E-01  1.50000000E+00  1.50000000E+00  8.00000000E-01  8.00000000E-01
  1.50000000E+00  1.50000000E+00  8.00000000E-01  8.00000000E-01  1.50000000E+00
  1.50000000E+00  8.00000000E-01  8.00000000E-01  1.50000000E+00  1.50000000E+00
  8.00000000E-01  8.00000000E-01  1.50000000E+00  1.50000000E+00  8.00000000E-01
  8.00000000E-01  1.50000000E+00  1.50000000E+00  8.00000000E-01  8.00000000E-01
  1.50000000E+00  1.50000000E+00  8.00000000E-01  8.00000000E-01  1.50000000E+00
  1.50000000E+00  8.00000000E-01  8.00000000E-01  1.50000000E+00  1.50000000E+00
  8.00000000E-01  8.00000000E-01  1.50000000E+00  1.50000000E+00  8.00000000E-01
  8.00000000E-01  1.50000000E+00  1.50000000E+00  8.00000000E-01  8.00000000E-01
  1.50000000E+00  1.50000000E+00  8.00000000E-01  8.00000000E-01  1.50000000E+00
  1.50000000E+00  8.00000000E-01  8.00000000E-01  1.50000000E+00  1.50000000E+00
  8.00000000E-01  8.00000000E-01  1.50000000E+00  1.50000000E+00  8.00000000E-01
  8.00000000E-01  1.50000000E+00  1.50000000E+00  8.00000000E-01  8.00000000E-01
  1.50000000E+00  1.50000000E+00  8.00000000E-01  8.00000000E-01  1.50000000E+00
  1.50000000E+00  8.00000000E-01  8.00000000E-01  1.50000000E+00  1.50000000E+00
  8.00000000E-01  8.00000000E-01  1.50000000E+00  1.50000000E+00  8.00000000E-01
  8.00000000E-01  1.50000000E+00  1.50000000E+00  8.00000000E-01  8.00000000E-01
  1.50000000E+00  1.50000000E+00  8.00000000E-01  8.00000000E-01  1.50000000E+00
  1.50000000E+00  8.00000000E-01  8.00000000E-01  1.50000000E+00  1.50000000E+00
  8.00000000E-01  8.00000000E-01  1.50000000E+00  1.50000000E+00  8.00000000E-01
  8.00000000E-01  1.50000000E+00  1.50000000E+00  8.00000000E-01  8.00000000E-01
  1.50000000E+00  1.50000000E+00  8.00000000E-01  8.00000000E-01  1.50000000E+00
  1.50000000E+00  8.00000000E-01  8.00000000E-01  1.50000000E+00  1.50000000E+00
  8.00000000E-01  8.00000000E-01  1.50000000E+00  1.50000000E+00  8.00000000E-01
  8.00000000E-01  1.50000000E+00  1.50000000E+00  8.00000000E-01  8.00000000E-01
  1.50000000E+00  1.50000000E+00  8.00000000E-01  8.00000000E-01  1.50000000E+00
  1.50000000E+00  8.00000000E-01  8.00000000E-01  1.50000000E+00  1.50000000E+00
  8.00000000E-01  8.00000000E-01  1.50000000E+00  1.50000000E+00  8.00000000E-01
  8.00000000E-01  1.50000000E+00  1.50000000E+00  8.00000000E-01  8.00000000E-01
  1.50000000E+00  1.50000000E+00  8.00000000E-01  8.00000000E-01  1.50000000E+00
  1.50000000E+00  8.00000000E-01  8.00000000E-01  1.50000000E+00  1.50000000E+00
  8.00000000E-01  8.00000000E-01  1.50000000E+00  1.50000000E+00  8.00000000E-01
  8.00000000E-01  1.50000000E+00  1.50000000E+00  8.00000000E-01  8.00000000E-01
  1.50000000E+00  1.50000000E+00  8.00000000E-01  8.00000000E-01  1.50000000E+00
  1.50000000E+00  8.00000000E-01  8.00000000E-01  1.50000000E+00  1.50000000E+00
  8.00000000E-01  8.00000000E-01  1.50000000E+00  1.50000000E+00  8.00000000E-01
  8.00000000E-01  1.50000000E+00  1.50000000E+00  8.00000000E-01  8.00000000E-01
  1.50000000E+00  1.50000000E+00  8.00000000E-01  8.00000000E-01  1.50000000E+00
  1.50000000E+00  8.00000000E-01  8.00000000E-01  1.50000000E+00  1.50000000E+00
  8.00000000E-01  8.00000000E-01  1.50000000E+00  1.50000000E+00  8.00000000E-01
  8.00000000E-01  1.50000000E+00  1.50000000E+00  8.00000000E-01  8.00000000E-01
  1.50000000E+00  1.50000000E+00  8.00000000E-01  8.00000000E-01  1.50000000E+00
  1.50000000E+00  8.00000000E-01  8.00000000E-01  1.50000000E+00  1.50000000E+00
  8.00000000E-01  8.00000000E-01  1.50000000E+00  1.50000000E+00  8.00000000E-01
  8.00000000E-01  1.50000000E+00  1.50000000E+00  8.00000000E-01  8.00000000E-01
  1.50000000E+00  1.50000000E+00  8.00000000E-01  8.00000000E-01  1.50000000E+00
  1.50000000E+00  8.00000000E-01  8.00000000E-01  1.50000000E+00  1.50000000E+00
  8.00000000E-01  8.00000000E-01  1.50000000E+00  1.50000000E+00  8.00000000E-01
  8.00000000E-01  1.50000000E+00  1.50000000E+00  8.00000000E-01  8.00000000E-01
  1.50000000E+00  1.50000000E+00  8.00000000E-01  8.00000000E-01  1.50000000E+00
  1.50000000E+00  8.00000000E-01  8.00000000E-01  1.50000000E+00  1.50000000E+00
  8.00000000E-01  8.00000000E-01  1.50000000E+00  1.50000000E+00  8.00000000E-01
  8.00000000E-01  1.50000000E+00  1.50000000E+00  8.00000000E-01  8.00000000E-01
  1.50000000E+00  1.50000000E+00  8.00000000E-01  8.00000000E-01  1.50000000E+00
  1.50000000E+00  8.00000000E-01  8.00000000E-01  1.50000000E+00  1.50000000E+00
  8.00000000E-01  8.00000000E-01  1.50000000E+00  1.50000000E+00  8.00000000E-01
  8.00000000E-01  1.50000000E+00  1.50000000E+00  8.00000000E-01  8.00000000E-01
  1.50000000E+00  1.50000000E+00  8.00000000E-01  8.00000000E-01  1.50000000E+00
  1.50000000E+00  8.00000000E-01  8.00000000E-01  1.50000000E+00  1.50000000E+00
  8.00000000E-01  8.00000000E-01  1.50000000E+00  1.50000000E+00  8.00000000E-01
  8.00000000E-01  1.50000000E+00  1.50000000E+00  8.00000000E-01  8.00000000E-01
  1.50000000E+00  1.50000000E+00  8.00000000E-01  8.00000000E-01  1.50000000E+00
  1.50000000E+00  8.00000000E-01  8.00000000E-01  1.50000000E+00  1.50000000E+00
  8.00000000E-01  8.00000000E-01  1.50000000E+00  1.50000000E+00  8.00000000E-01
  8.00000000E-01  1.50000000E+00  1.50000000E+00  8.00000000E-01  8.00000000E-01
  1.50000000E+00  1.50000000E+00  8.00000000E-01  8.00000000E-01  1.50000000E+00
  1.50000000E+00  8.00000000E-01  8.00000000E-01  1.50000000E+00  1.50000000E+00
  8.00000000E-01  8.00000000E-01  1.50000000E+00  1.50000000E+00  8.00000000E-01
  8.00000000E-01  1.50000000E+00  1.50000000E+00  8.00000000E-01  8.00000000E-01
  1.50000000E+00  1.50000000E+00  8.00000000E-01  8.00000000E-01  1.50000000E+00
  1.50000000E+00  8.00000000E-01  8.00000000E-01  1.50000000E+00  1.50000000E+00
  8.00000000E-01  8.00000000E-01  1.50000000E+00  1.50000000E+00  8.00000000E-01
  8.00000000E-01  1.50000000E+00  1.50000000E+00  8.00000000E-01  8.00000000E-01
  1.50000000E+00  1.50000000E+00  8.00000000E-01  8.00000000E-01  1.50000000E+00
  1.50000000E+00  8.00000000E-01  8.00000000E-01  1.50000000E+00  1.50000000E+00
  8.00000000E-01  8.00000000E-01  1.50000000E+00  1.50000000E+00  8.00000000E-01
  8.00000000E-01  1.50000000E+00  1.50000000E+00  8.00000000E-01  8.00000000E-01
  1.50000000E+00  1.50000000E+00  8.00000000E-01  8.00000000E-01  1.50000000E+00
  1.50000000E+00  8.00000000E-01  8.00000000E-01  1.50000000E+00  1.50000000E+00
  8.00000000E-01  8.00000000E-01  1.50000000E+00  1.50000000E+00  8.00000000E-01
  8.00000000E-01  1.50000000E+00  1.50000000E+00  8.00000000E-01  8.00000000E-01
  1.50000000E+00  1.50000000E+00  8.00000000E-01  8.00000000E-01  1.50000000E+00
  1.50000000E+00  8.00000000E-01  8.00000000E-01  1.50000000E+00  1.50000000E+00
  8.00000000E-01  8.00000000E-01  1.50000000E+00  1.50000000E+00  8.00000000E-01
  8.00000000E-01  1.50000000E+00  1.50000000E+00  8.00000000E-01  8.00000000E-01
  1.50000000E+00  1.50000000E+00  8.00000000E-01  8.00000000E-01  1.50000000E+00
  1.50000000E+00  8.00000000E-01  8.00000000E-01  1.50000000E+00  1.50000000E+00
  8.00000000E-01  8.00000000E-01  1.50000000E+00  1.50000000E+00  8.00000000E-01
  8.00000000E-01  1.50000000E+00  1.50000000E+00  8.00000000E-01  8.00000000E-01
  1.50000000E+00  1.50000000E+00  8.00000000E-01  8.00000000E-01  1.50000000E+00
  1.50000000E+00  8.00000000E-01  8.00000000E-01  1.50000000E+00  1.50000000E+00
  8.00000000E-01  8.00000000E-01  1.50000000E+00  1.50000000E+00  8.00000000E-01
  8.00000000E-01  1.50000000E+00  1.50000000E+00  8.00000000E-01  8.00000000E-01
  1.50000000E+00  1.50000000E+00  8.00000000E-01  8.00000000E-01  1.50000000E+00
  1.50000000E+00  8.00000000E-01  8.00000000E-01  1.50000000E+00  1.50000000E+00
  8.00000000E-01  8.00000000E-01  1.50000000E+00  1.50000000E+00  8.00000000E-01
  8.00000000E-01  1.50000000E+00  1.50000000E+00  8.00000000E-01  8.00000000E-01
  1.50000000E+00  1.50000000E+00  8.00000000E-01  8.00000000E-01  1.50000000E+00
  1.50000000E+00  8.00000000E-01  8.00000000E-01  1.50000000E+00  1.50000000E+00
  8.00000000E-01  8.00000000E-01  1.50000000E+00  1.50000000E+00  8.00000000E-01
  8.00000000E-01  1.50000000E+00  1.50000000E+00  8.00000000E-01  8.00000000E-01
  1.50000000E+00  1.50000000E+00  8.00000000E-01  8.00000000E-01  1.50000000E+00
  1.50000000E+00  8.00000000E-01  8.00000000E-01  1.50000000E+00  1.50000000E+00
  8.00000000E-01  8.00000000E-01  1.50000000E+00  1.50000000E+00  8.00000000E-01
  8.00000000E-01  1.50000000E+00  1.50000000E+00  8.00000000E-01  8.00000000E-01
  1.50000000E+00  1.50000000E+00  8.00000000E-01  8.00000000E-01  1.50000000E+00
  1.50000000E+00  8.00000000E-01  8.00000000E-01  1.50000000E+00  1.50000000E+00
  8.00000000E-01  8.00000000E-01  1.50000000E+00  1.50000000E+00  8.00000000E-01
  8.00000000E-01  1.50000000E+00  1.50000000E+00  8.00000000E-01  8.00000000E-01
  1.50000000E+00  1.50000000E+00  8.00000000E-01  8.00000000E-01  1.50000000E+00
  1.50000000E+00  8.00000000E-01  8.00000000E-01  1.50000000E+00  1.50000000E+00
  8.00000000E-01  8.00000000E-01  1.50000000E+00  1.50000000E+00  8.00000000E-01
  8.00000000E-01  1.50000000E+00  1.50000000E+00  8.00000000E-01  8.00000000E-01
  1.50000000E+00  1.50000000E+00  8.00000000E-01  8.00000000E-01  1.50000000E+00
  1.50000000E+00  8.00000000E-01  8.00000000E-01  1.50000000E+00  1.50000000E+00
  8.00000000E-01  8.00000000E-01  1.50000000E+00  1.50000000E+00  8.00000000E-01
  8.00000000E-01  1.50000000E+00  1.50000000E+00  8.00000000E-01  8.00000000E-01
  1.50000000E+00  1.50000000E+00  8.00000000E-01  8.00000000E-01  1.50000000E+00
  1.50000000E+00  8.00000000E-01  8.00000000E-01  1.50000000E+00  1.50000000E+00
  8.00000000E-01  8.00000000E-01  1.50000000E+00  1.50000000E+00  8.00000000E-01
  8.00000000E-01  1.50000000E+00  1.50000000E+00  8.00000000E-01  8.00000000E-01
  1.50000000E+00  1.50000000E+00  8.00000000E-01  8.00000000E-01  1.50000000E+00
  1.50000000E+00  8.00000000E-01  8.00000000E-01  1.50000000E+00  1.50000000E+00
  8.00000000E-01  8.00000000E-01  1.50000000E+00  1.50000000E+00  8.00000000E-01
  8.00000000E-01  1.50000000E+00  1.50000000E+00  8.00000000E-01  8.00000000E-01
  1.50000000E+00  1.50000000E+00  8.00000000E-01  8.00000000E-01  1.50000000E+00
  1.50000000E+00  8.00000000E-01  8.00000000E-01  1.50000000E+00  1.50000000E+00
  8.00000000E-01  8.00000000E-01  1.50000000E+00  1.50000000E+00  8.00000000E-01
  8.00000000E-01  1.50000000E+00  1.50000000E+00  8.00000000E-01  8.00000000E-01
  1.50000000E+00  1.50000000E+00  8.00000000E-01  8.00000000E-01  1.50000000E+00
  1.50000000E+00  8.00000000E-01  8.00000000E-01  1.50000000E+00  1.50000000E+00
  8.00000000E-01  8.00000000E-01  1.50000000E+00  1.50000000E+00  8.00000000E-01
  8.00000000E-01  1.50000000E+00  1.50000000E+00  8.00000000E-01  8.00000000E-01
  1.50000000E+00  1.50000000E+00  8.00000000E-01  8.00000000E-01  1.50000000E+00
  1.50000000E+00  8.00000000E-01  8.00000000E-01  1.50000000E+00  1.50000000E+00
  8.00000000E-01  8.00000000E-01  1.50000000E+00  1.50000000E+00  8.00000000E-01
  8.00000000E-01  1.50000000E+00  1.50000000E+00  8.00000000E-01  8.00000000E-01
  1.50000000E+00  1.50000000E+00  8.00000000E-01  8.00000000E-01  1.50000000E+00
  1.50000000E+00  8.00000000E-01  8.00000000E-01  1.50000000E+00  1.50000000E+00
  8.00000000E-01  8.00000000E-01  1.50000000E+00  1.50000000E+00  8.00000000E-01
  8.00000000E-01  1.50000000E+00  1.50000000E+00  8.00000000E-01  8.00000000E-01
  1.50000000E+00  1.50000000E+00  8.00000000E-01  8.00000000E-01  1.50000000E+00
  1.50000000E+00  8.00000000E-01  8.00000000E-01  1.50000000E+00  1.50000000E+00
  8.00000000E-01  8.00000000E-01  1.50000000E+00  1.50000000E+00  8.00000000E-01
  8.00000000E-01  1.50000000E+00  1.50000000E+00  8.00000000E-01  8.00000000E-01
  1.50000000E+00  1.50000000E+00  8.00000000E-01  8.00000000E-01  1.50000000E+00
  1.50000000E+00  8.00000000E-01  8.00000000E-01  1.50000000E+00  1.50000000E+00
  8.00000000E-01  8.00000000E-01  1.50000000E+00  1.50000000E+00  8.00000000E-01
  8.00000000E-01  1.50000000E+00  1.50000000E+00  8.00000000E-01  8.00000000E-01
  1.50000000E+00  1.50000000E+00  8.00000000E-01  8.00000000E-01  1.50000000E+00
  1.50000000E+00  8.00000000E-01  8.00000000E-01  1.50000000E+00  1.50000000E+00
  8.00000000E-01  8.00000000E-01  1.50000000E+00  1.50000000E+00  8.00000000E-01
  8.00000000E-01  1.50000000E+00  1.50000000E+00  8.00000000E-01  8.00000000E-01
  1.50000000E+00  1.50000000E+00  8.00000000E-01  8.00000000E-01  1.50000000E+00
  1.50000000E+00  8.00000000E-01  8.00000000E-01  1.50000000E+00  1.50000000E+00
  8.00000000E-01  8.00000000E-01  1.50000000E+00  1.50000000E+00  8.00000000E-01
  8.00000000E-01  1.50000000E+00  1.50000000E+00  8.00000000E-01  8.00000000E-01
  1.50000000E+00  1.50000000E+00  8.00000000E-01  8.00000000E-01  1.50000000E+00
  1.50000000E+00  8.00000000E-01  8.00000000E-01  1.50000000E+00  1.50000000E+00
  8.00000000E-01  8.00000000E-01  1.50000000E+00  1.50000000E+00  8.00000000E-01
  8.00000000E-01  1.50000000E+00  1.50000000E+00  8.00000000E-01  8.00000000E-01
  1.50000000E+00  1.50000000E+00  8.00000000E-01  8.00000000E-01  1.50000000E+00
  1.50000000E+00  8.00000000E-01  8.00000000E-01  1.50000000E+00  1.50000000E+00
  8.00000000E-01  8.00000000E-01  1.50000000E+00  1.50000000E+00  8.00000000E-01
  8.00000000E-01  1.50000000E+00  1.50000000E+00  8.00000000E-01  8.00000000E-01
  1.50000000E+00  1.50000000E+00  8.00000000E-01  8.00000000E-01  1.50000000E+00
  1.50000000E+00  8.00000000E-01  8.00000000E-01  1.50000000E+00  1.50000000E+00
  8.00000000E-01  8.00000000E-01  1.50000000E+00  1.50000000E+00  8.00000000E-01
  8.00000000E-01  1.50000000E+00  1.50000000E+00  8.00000000E-01  8.00000000E-01
  1.50000000E+00  1.50000000E+00  8.00000000E-01  8.00000000E-01  1.50000000E+00
  1.50000000E+00  8.00000000E-01  8.00000000E-01  1.50000000E+00  1.50000000E+00
  8.00000000E-01  8.00000000E-01  1.50000000E+00  1.50000000E+00  8.00000000E-01
  8.00000000E-01  1.50000000E+00  1.50000000E+00  8.00000000E-01  8.00000000E-01
  1.50000000E+00  1.50000000E+00  8.00000000E-01  8.00000000E-01  1.50000000E+00
  1.50000000E+00  8.00000000E-01  8.00000000E-01  1.50000000E+00  1.50000000E+00
  8.00000000E-01  8.00000000E-01  1.50000000E+00  1.50000000E+00  8.00000000E-01
  8.00000000E-01  1.50000000E+00  1.50000000E+00  8.00000000E-01  8.00000000E-01
  1.50000000E+00  1.50000000E+00  8.00000000E-01  8.00000000E-01  1.50000000E+00
  1.50000000E+00  8.00000000E-01  8.00000000E-01  1.50000000E+00  1.50000000E+00
  8.00000000E-01  8.00000000E-01  1.50000000E+00  1.50000000E+00  8.00000000E-01
  8.00000000E-01  1.50000000E+00  1.50000000E+00  8.00000000E-01  8.00000000E-01
  1.50000000E+00  1.50000000E+00  8.00000000E-01  8.00000000E-01  1.50000000E+00
  1.50000000E+00  8.00000000E-01  8.00000000E-01  1.50000000E+00  1.50000000E+00
  8.00000000E-01  8.00000000E-01  1.50000000E+00  1.50000000E+00  8.00000000E-01
  8.00000000E-01  1.50000000E+00  1.50000000E+00  8.00000000E-01  8.00000000E-01
  1.50000000E+00  1.50000000E+00  8.00000000E-01  8.00000000E-01  1.50000000E+00
  1.50000000E+00  8.00000000E-01  8.00000000E-01  1.50000000E+00  1.50000000E+00
  8.00000000E-01  8.00000000E-01  1.50000000E+00  1.50000000E+00  8.00000000E-01
  8.00000000E-01  1.50000000E+00  1.50000000E+00  8.00000000E-01  8.00000000E-01
  1.50000000E+00  1.50000000E+00  8.00000000E-01  8.00000000E-01  1.50000000E+00
  1.50000000E+00  8.00000000E-01  8.00000000E-01  1.50000000E+00  1.50000000E+00
  8.00000000E-01  8.00000000E-01  1.50000000E+00  1.50000000E+00  8.00000000E-01
  8.00000000E-01  1.50000000E+00  1.50000000E+00  8.00000000E-01  8.00000000E-01
  1.50000000E+00  1.50000000E+00  8.00000000E-01  8.00000000E-01  1.50000000E+00
  1.50000000E+00  8.00000000E-01  8.00000000E-01  1.50000000E+00  1.50000000E+00
  8.00000000E-01  8.00000000E-01  1.50000000E+00  1.50000000E+00  8.00000000E-01
  8.00000000E-01  1.50000000E+00  1.50000000E+00  8.00000000E-01  8.00000000E-01
  1.50000000E+00  1.50000000E+00  8.00000000E-01  8.00000000E-01  1.50000000E+00
  1.50000000E+00  8.00000000E-01  8.00000000E-01  1.50000000E+00  1.50000000E+00
  8.00000000E-01  8.00000000E-01  1.50000000E+00  1.50000000E+00  8.00000000E-01
  8.00000000E-01  1.50000000E+00  1.50000000E+00  8.00000000E-01  8.00000000E-01
  1.50000000E+00  1.50000000E+00  8.00000000E-01  8.00000000E-01  1.50000000E+00
  1.50000000E+00  8.00000000E-01  8.00000000E-01  1.50000000E+00  1.50000000E+00
  8.00000000E-01  8.00000000E-01  1.50000000E+00  1.50000000E+00  8.00000000E-01
  8.00000000E-01  1.50000000E+00  1.50000000E+00  8.00000000E-01  8.00000000E-01
  1.50000000E+00  1.50000000E+00  8.00000000E-01  8.00000000E-01  1.50000000E+00
  1.50000000E+00  8.00000000E-01  8.00000000E-01  1.50000000E+00  1.50000000E+00
  8.00000000E-01  8.00000000E-01  1.50000000E+00  1.50000000E+00  8.00000000E-01
  8.00000000E-01  1.50000000E+00  1.50000000E+00  8.00000000E-01  8.00000000E-01
  1.50000000E+00  1.50000000E+00  8.00000000E-01  8.00000000E-01  1.50000000E+00
  1.50000000E+00  8.00000000E-01  8.00000000E-01  1.50000000E+00  1.50000000E+00
  8.00000000E-01  8.00000000E-01  1.50000000E+00  1.50000000E+00  8.00000000E-01
  8.00000000E-01  1.50000000E+00  1.50000000E+00  8.00000000E-01  8.00000000E-01
  1.50000000E+00  1.50000000E+00  8.00000000E-01  8.00000000E-01  1.50000000E+00
  1.50000000E+00  8.00000000E-01  8.00000000E-01  1.50000000E+00  1.50000000E+00
  8.00000000E-01  8.00000000E-01  1.50000000E+00  1.50000000E+00  8.00000000E-01
  8.00000000E-01  1.50000000E+00  1.50000000E+00  8.00000000E-01  8.00000000E-01
  1.50000000E+00  1.50000000E+00  8.00000000E-01  8.00000000E-01  1.50000000E+00
  1.50000000E+00  8.00000000E-01  8.00000000E-01  1.50000000E+00  1.50000000E+00
  8.00000000E-01  8.00000000E-01  1.50000000E+00  1.50000000E+00  8.00000000E-01
  8.00000000E-01  1.50000000E+00  1.50000000E+00  8.00000000E-01  8.00000000E-01
  1.50000000E+00  1.50000000E+00  8.00000000E-01  8.00000000E-01  1.50000000E+00
  1.50000000E+00  8.00000000E-01  8.00000000E-01  1.50000000E+00  1.50000000E+00
  8.00000000E-01  8.00000000E-01  1.50000000E+00  1.50000000E+00  8.00000000E-01
  8.00000000E-01  1.50000000E+00  1.50000000E+00  8.00000000E-01  8.00000000E-01
  1.50000000E+00  1.50000000E+00  8.00000000E-01  8.00000000E-01  1.50000000E+00
  1.50000000E+00  8.00000000E-01  8.00000000E-01  1.50000000E+00  1.50000000E+00
  8.00000000E-01  8.00000000E-01  1.50000000E+00  1.50000000E+00  8.00000000E-01
  8.00000000E-01  1.50000000E+00  1.50000000E+00  8.00000000E-01  8.00000000E-01
  1.50000000E+00
%FLAG SCREEN                                                                    
%FORMAT(5E16.8)                                                                 
  8.50000000E-01  7.20000000E-01  8.50000000E-01  8.50000000E-01  7.20000000E-01
  8.50000000E-01  7.90000000E-01  8.50000000E-01  7.20000000E-01  8.50000000E-01
  7.20000000E-01  8.50000000E-01  8.50000000E-01  8.50000000E-01  7.20000000E-01
  8.50000000E-01  7.90000000E-01  7.20000000E-01  8.50000000E-01  8.50000000E-01
  7.20000000E-01  8.50000000E-01  8.50000000E-01  7.20000000E-01  8.50000000E-01
  8.50000000E-01  7.20000000E-01  8.50000000E-01  7.20000000E-01  8.50000000E-01
  7.90000000E-01  8.50000000E-01  7.20000000E-01  8.50000000E-01  7.20000000E-01
  8.50000000E-01  8.50000000E-01  8.50000000E-01  7.20000000E-01  8.50000000E-01
  7.90000000E-01  8.50000000E-01  7.20000000E-01  8.50000000E-01  8.50000000E-01
  8.50000000E-01  8.50000000E-01  8.50000000E-01  8.50000000E-01  8.00000000E-01
  8.50000000E-01  8.50000000E-01  8.50000000E-01  8.00000000E-01  8.50000000E-01
  8.50000000E-01  8.50000000E-01  8.00000000E-01  8.50000000E-01  8.50000000E-01
  8.50000000E-01  8.00000000E-01  8.50000000E-01  8.50000000E-01  8.50000000E-01
  8.00000000E-01  8.50000000E-01  8.50000000E-01  8.50000000E-01  8.00000000E-01
  8.50000000E-01  8.50000000E-01  8.50000000E-01  8.00000000E-01  8.50000000E-01
  8.50000000E-01  8.50000000E-01  8.00000000E-01  8.50000000E-01  8.50000000E-01
  8.50000000E-01  8.00000000E-01  8.50000000E-01  8.50000000E-01  8.50000000E-01
  8.00000000E-01  8.50000000E-01  8.50000000E-01  8.50000000E-01  8.00000000E-01
  8.50000000E-01  8.50000000E-01  8.50000000E-01  8.00000000E-01  8.50000000E-01
  8.50000000E-01  8.50000000E-01  8.00000000E-01  8.50000000E-01  8.50000000E-01
  8.50000000E-01  8.00000000E-01  8.50000000E-01  8.50000000E-01  8.50000000E-01
  8.00000000E-01  8.50000000E-01  8.50000000E-01  8.50000000E-01  8.00000000E-01
  8.50000000E-01  8.50000000E-01  8.50000000E-01  8.00000000E-01  8.50000000E-01
  8.50000000E-01  8.50000000E-01  8.00000000E-01  8.50000000E-01  8.50000000E-01
  8.50000000E-01  8.00000000E-01  8.50000000E-01  8.50000000E-01  8.50000000E-01
  8.00000000E-01  8.50000000E-01  8.50000000E-01  8.50000000E-01  8.00000000E-01
  8.50000000E-01  8.50000000E-01  8.50000000E-01  8.00000000E-01  8.50000000E-01
  8.50000000E-01  8.50000000E-01  8.00000000E-01  8.50000000E-01  8.50000000E-01
  8.50000000E-01  8.00000000E-01  8.50000000E-01  8.50000000E-01  8.50000000E-01
  8.00000000E-01  8.50000000E-01  8.50000000E-01  8.50000000E-01  8.00000000E-01
  8.50000000E-01  8.50000000E-01  8.50000000E-01  8.00000000E-01  8.50000000E-01
  8.50000000E-01  8.50000000E-01  8.00000000E-01  8.50000000E-01  8.50000000E-01
  8.50000000E-01  8.00000000E-01  8.50000000E-01  8.50000000E-01  8.50000000E-01
  8.00000000E-01  8.50000000E-01  8.50000000E-01  8.50000000E-01  8.00000000E-01
  8.50000000E-01  8.50000000E-01  8.50000000E-01  8.00000000E-01  8.50000000E-01
  8.50000000E-01  8.50000000E-01  8.00000000E-01  8.50000000E-01  8.50000000E-01
  8.50000000E-01  8.00000000E-01  8.50000000E-01  8.50000000E-01  8.50000000E-01
  8.00000000E-01  8.50000000E-01  8.50000000E-01  8.50000000E-01  8.00000000E-01
  8.50000000E-01  8.50000000E-01  8.50000000E-01  8.00000000E-01  8.50000000E-01
  8.50000000E-01  8.50000000E-01  8.00000000E-01  8.50000000E-01  8.50000000E-01
  8.50000000E-01  8.00000000E-01  8.50000000E-01  8.50000000E-01  8.50000000E-01
  8.00000000E-01  8.50000000E-01  8.50000000E-01  8.50000000E-01  8.00000000E-01
  8.50000000E-01  8.50000000E-01  8.50000000E-01  8.00000000E-01  8.50000000E-01
  8.50000000E-01  8.50000000E-01  8.00000000E-01  8.50000000E-01  8.50000000E-01
  8.50000000E-01  8.00000000E-01  8.50000000E-01  8.50000000E-01  8.50000000E-01
  8.00000000E-01  8.50000000E-01  8.50000000E-01  8.50000000E-01  8.00000000E-01
  8.50000000E-01  8.50000000E-01  8.50000000E-01  8.00000000E-01  8.50000000E-01
  8.50000000E-01  8.50000000E-01  8.00000000E-01  8.50000000E-01  8.50000000E-01
  8.50000000E-01  8.00000000E-01  8.50000000E-01  8.50000000E-01  8.50000000E-01
  8.00000000E-01  8.50000000E-01  8.50000000E-01  8.50000000E-01  8.00000000E-01
  8.50000000E-01  8.50000000E-01  8.50000000E-01  8.00000000E-01  8.50000000E-01
  8.50000000E-01  8.50000000E-01  8.00000000E-01  8.50000000E-01  8.50000000E-01
  8.50000000E-01  8.00000000E-01  8.50000000E-01  8.50000000E-01  8.50000000E-01
  8.00000000E-01  8.50000000E-01  8.50000000E-01  8.50000000E-01  8.00000000E-01
  8.50000000E-01  8.50000000E-01  8.50000000E-01  8.00000000E-01  8.50000000E-01
  8.50000000E-01  8.50000000E-01  8.00000000E-01  8.50000000E-01  8.50000000E-01
  8.50000000E-01  8.00000000E-01  8.50000000E-01  8.50000000E-01  8.50000000E-01
  8.00000000E-01  8.50000000E-01  8.50000000E-01  8.50000000E-01  8.00000000E-01
  8.50000000E-01  8.50000000E-01  8.50000000E-01  8.00000000E-01  8.50000000E-01
  8.50000000E-01  8.50000000E-01  8.00000000E-01  8.50000000E-01  8.50000000E-01
  8.50000000E-01  8.00000000E-01  8.50000000E-01  8.50000000E-01  8.50000000E-01
  8.00000000E-01  8.50000000E-01  8.50000000E-01  8.50000000E-01  8.00000000E-01
  8.50000000E-01  8.50000000E-01  8.50000000E-01  8.00000000E-01  8.50000000E-01
  8.50000000E-01  8.50000000E-01  8.00000000E-01  8.50000000E-01  8.50000000E-01
  8.50000000E-01  8.00000000E-01  8.50000000E-01  8.50000000E-01  8.50000000E-01
  8.00000000E-01  8.50000000E-01  8.50000000E-01  8.50000000E-01  8.00000000E-01
  8.50000000E-01  8.50000000E-01  8.50000000E-01  8.00000000E-01  8.50000000E-01
  8.50000000E-01  8.50000000E-01  8.00000000E-01  8.50000000E-01  8.50000000E-01
  8.50000000E-01  8.00000000E-01  8.50000000E-01  8.50000000E-01  8.50000000E-01
  8.00000000E-01  8.50000000E-01  8.50000000E-01  8.50000000E-01  8.00000000E-01
  8.50000000E-01  8.50000000E-01  8.50000000E-01  8.00000000E-01  8.50000000E-01
  8.50000000E-01  8.50000000E-01  8.00000000E-01  8.50000000E-01  8.50000000E-01
  8.50000000E-01  8.00000000E-01  8.50000000E-01  8.50000000E-01  8.50000000E-01
  8.00000000E-01  8.50000000E-01  8.50000000E-01  8.50000000E-01  8.00000000E-01
  8.50000000E-01  8.50000000E-01  8.50000000E-01  8.00000000E-01  8.50000000E-01
  8.50000000E-01  8.50000000E-01  8.00000000E-01  8.50000000E-01  8.50000000E-01
  8.50000000E-01  8.00000000E-01  8.50000000E-01  8.50000000E-01  8.50000000E-01
  8.00000000E-01  8.50000000E-01  8.50000000E-01  8.50000000E-01  8.00000000E-01
  8.50000000E-01  8.50000000E-01  8.50000000E-01  8.00000000E-01  8.50000000E-01
  8.50000000E-01  8.50000000E-01  8.00000000E-01  8.50000000E-01  8.50000000E-01
  8.50000000E-01  8.00000000E-01  8.50000000E-01  8.50000000E-01  8.50000000E-01
  8.00000000E-01  8.50000000E-01  8.50000000E-01  8.50000000E-01  8.00000000E-01
  8.50000000E-01  8.50000000E-01  8.50000000E-01  8.00000000E-01  8.50000000E-01
  8.50000000E-01  8.50000000E-01  8.00000000E-01  8.50000000E-01  8.50000000E-01
  8.50000000E-01  8.00000000E-01  8.50000000E-01  8.50000000E-01  8.50000000E-01
  8.00000000E-01  8.50000000E-01  8.50000000E-01  8.50000000E-01  8.00000000E-01
  8.50000000E-01  8.50000000E-01  8.50000000E-01  8.00000000E-01  8.50000000E-01
  8.50000000E-01  8.50000000E-01  8.00000000E-01  8.50000000E-01  8.50000000E-01
  8.50000000E-01  8.00000000E-01  8.50000000E-01  8.50000000E-01  8.50000000E-01
  8.00000000E-01  8.50000000E-01  8.50000000E-01  8.50000000E-01  8.00000000E-01
  8.50000000E-01  8.50000000E-01  8.50000000E-01  8.00000000E-01  8.50000000E-01
  8.50000000E-01  8.50000000E-01  8.00000000E-01  8.50000000E-01  8.50000000E-01
  8.50000000E-01  8.00000000E-01  8.50000000E-01  8.50000000E-01  8.50000000E-01
  8.00000000E-01  8.50000000E-01  8.50000000E-01  8.50000000E-01  8.00000000E-01
  8.50000000E-01  8.50000000E-01  8.50000000E-01  8.00000000E-01  8.50000000E-01
  8.50000000E-01  8.50000000E-01  8.00000000E-01  8.50000000E-01  8.50000000E-01
  8.50000000E-01  8.00000000E-01  8.50000000E-01  8.50000000E-01  8.50000000E-01
  8.00000000E-01  8.50000000E-01  8.50000000E-01  8.50000000E-01  8.00000000E-01
  8.50000000E-01  8.50000000E-01  8.50000000E-01  8.00000000E-01  8.50000000E-01
  8.50000000E-01  8.50000000E-01  8.00000000E-01  8.50000000E-01  8.50000000E-01
  8.50000000E-01  8.00000000E-01  8.50000000E-01  8.50000000E-01  8.50000000E-01
  8.00000000E-01  8.50000000E-01  8.50000000E-01  8.50000000E-01  8.00000000E-01
  8.50000000E-01  8.50000000E-01  8.50000000E-01  8.00000000E-01  8.50000000E-01
  8.50000000E-01  8.50000000E-01  8.00000000E-01  8.50000000E-01  8.50000000E-01
  8.50000000E-01  8.00000000E-01  8.50000000E-01  8.50000000E-01  8.50000000E-01
  8.00000000E-01  8.50000000E-01  8.50000000E-01  8.50000000E-01  8.00000000E-01
  8.50000000E-01  8.50000000E-01  8.50000000E-01  8.00000000E-01  8.50000000E-01
  8.50000000E-01  8.50000000E-01  8.00000000E-01  8.50000000E-01  8.50000000E-01
  8.50000000E-01  8.00000000E-01  8.50000000E-01  8.50000000E-01  8.50000000E-01
  8.00000000E-01  8.50000000E-01  8.50000000E-01  8.50000000E-01  8.00000000E-01
  8.50000000E-01  8.50000000E-01  8.50000000E-01  8.00000000E-01  8.50000000E-01
  8.50000000E-01  8.50000000E-01  8.00000000E-01  8.50000000E-01  8.50000000E-01
  8.50000000E-01  8.00000000E-01  8.50000000E-01  8.50000000E-01  8.50000000E-01
  8.00000000E-01  8.50000000E-01  8.50000000E-01  8.50000000E-01  8.00000000E-01
  8.50000000E-01  8.50000000E-01  8.50000000E-01  8.00000000E-01  8.50000000E-01
  8.50000000E-01  8.50000000E-01  8.00000000E-01  8.50000000E-01  8.50000000E-01
  8.50000000E-01  8.00000000E-01  8.50000000E-01  8.50000000E-01  8.50000000E-01
  8.00000000E-01  8.50000000E-01  8.50000000E-01  8.50000000E-01  8.00000000E-01
  8.50000000E-01  8.50000000E-01  8.50000000E-01  8.00000000E-01  8.50000000E-01
  8.50000000E-01  8.50000000E-01  8.00000000E-01  8.50000000E-01  8.50000000E-01
  8.50000000E-01  8.00000000E-01  8.50000000E-01  8.50000000E-01  8.50000000E-01
  8.00000000E-01  8.50000000E-01  8.50000000E-01  8.50000000E-01  8.00000000E-01
  8.50000000E-01  8.50000000E-01  8.50000000E-01  8.00000000E-01  8.50000000E-01
  8.50000000E-01  8.50000000E-01  8.00000000E-01  8.50000000E-01  8.50000000E-01
  8.50000000E-01  8.00000000E-01  8.50000000E-01  8.50000000E-01  8.50000000E-01
  8.00000000E-01  8.50000000E-01  8.50000000E-01  8.50000000E-01  8.00000000E-01
  8.50000000E-01  8.50000000E-01  8.50000000E-01  8.00000000E-01  8.50000000E-01
  8.50000000E-01  8.50000000E-01  8.00000000E-01  8.50000000E-01  8.50000000E-01
  8.50000000E-01  8.00000000E-01  8.50000000E-01  8.50000000E-01  8.50000000E-01
  8.00000000E-01  8.50000000E-01  8.50000000E-01  8.50000000E-01  8.00000000E-01
  8.50000000E-01  8.50000000E-01  8.50000000E-01  8.00000000E-01  8.50000000E-01
  8.50000000E-01  8.50000000E-01  8.00000000E-01  8.50000000E-01  8.50000000E-01
  8.50000000E-01  8.00000000E-01  8.50000000E-01  8.50000000E-01  8.50000000E-01
  8.00000000E-01  8.50000000E-01  8.50000000E-01  8.50000000E-01  8.00000000E-01
  8.50000000E-01  8.50000000E-01  8.50000000E-01  8.00000000E-01  8.50000000E-01
  8.50000000E-01  8.50000000E-01  8.00000000E-01  8.50000000E-01  8.50000000E-01
  8.50000000E-01  8.00000000E-01  8.50000000E-01  8.50000000E-01  8.50000000E-01
  8.00000000E-01  8.50000000E-01  8.50000000E-01  8.50000000E-01  8.00000000E-01
  8.50000000E-01  8.50000000E-01  8.50000000E-01  8.00000000E-01  8.50000000E-01
  8.50000000E-01  8.50000000E-01  8.00000000E-01  8.50000000E-01  8.50000000E-01
  8.50000000E-01  8.00000000E-01  8.50000000E-01  8.50000000E-01  8.50000000E-01
  8.00000000E-01  8.50000000E-01  8.50000000E-01  8.50000000E-01  8.00000000E-01
  8.50000000E-01  8.50000000E-01  8.50000000E-01  8.00000000E-01  8.50000000E-01
  8.50000000E-01  8.50000000E-01  8.00000000E-01  8.50000000E-01  8.50000000E-01
  8.50000000E-01  8.00000000E-01  8.50000000E-01  8.50000000E-01  8.50000000E-01
  8.00000000E-01  8.50000000E-01  8.50000000E-01  8.50000000E-01  8.00000000E-01
  8.50000000E-01  8.50000000E-01  8.50000000E-01  8.00000000E-01  8.50000000E-01
  8.50000000E-01  8.50000000E-01  8.00000000E-01  8.50000000E-01  8.50000000E-01
  8.50000000E-01  8.00000000E-01  8.50000000E-01  8.50000000E-01  8.50000000E-01
  8.00000000E-01  8.50000000E-01  8.50000000E-01  8.50000000E-01  8.00000000E-01
  8.50000000E-01  8.50000000E-01  8.50000000E-01  8.00000000E-01  8.50000000E-01
  8.50000000E-01  8.50000000E-01  8.00000000E-01  8.50000000E-01  8.50000000E-01
  8.50000000E-01  8.00000000E-01  8.50000000E-01  8.50000000E-01  8.50000000E-01
  8.00000000E-01  8.50000000E-01  8.50000000E-01  8.50000000E-01  8.00000000E-01
  8.50000000E-01  8.50000000E-01  8.50000000E-01  8.00000000E-01  8.50000000E-01
  8.50000000E-01  8.50000000E-01  8.00000000E-01  8.50000000E-01  8.50000000E-01
  8.50000000E-01  8.00000000E-01  8.50000000E-01  8.50000000E-01  8.50000000E-01
  8.00000000E-01  8.50000000E-01  8.50000000E-01  8.50000000E-01  8.00000000E-01
  8.50000000E-01  8.50000000E-01  8.50000000E-01  8.00000000E-01  8.50000000E-01
  8.50000000E-01  8.50000000E-01  8.00000000E-01  8.50000000E-01  8.50000000E-01
  8.50000000E-01  8.00000000E-01  8.50000000E-01  8.50000000E-01  8.50000000E-01
  8.00000000E-01  8.50000000E-01  8.50000000E-01  8.50000000E-01  8.00000000E-01
  8.50000000E-01  8.50000000E-01  8.50000000E-01  8.00000000E-01  8.50000000E-01
  8.50000000E-01  8.50000000E-01  8.00000000E-01  8.50000000E-01  8.50000000E-01
  8.50000000E-01  8.00000000E-01  8.50000000E-01  8.50000000E-01  8.50000000E-01
  8.00000000E-01  8.50000000E-01  8.50000000E-01  8.50000000E-01  8.00000000E-01
  8.50000000E-01  8.50000000E-01  8.50000000E-01  8.00000000E-01  8.50000000E-01
  8.50000000E-01  8.50000000E-01  8.00000000E-01  8.50000000E-01  8.50000000E-01
  8.50000000E-01  8.00000000E-01  8.50000000E-01  8.50000000E-01  8.50000000E-01
  8.00000000E-01  8.50000000E-01  8.50000000E-01  8.50000000E-01  8.00000000E-01
  8.50000000E-01  8.50000000E-01  8.50000000E-01  8.00000000E-01  8.50000000E-01
  8.50000000E-01  8.50000000E-01  8.00000000E-01  8.50000000E-01  8.50000000E-01
  8.50000000E-01  8.00000000E-01  8.50000000E-01  8.50000000E-01  8.50000000E-01
  8.00000000E-01  8.50000000E-01  8.50000000E-01  8.50000000E-01  8.00000000E-01
  8.50000000E-01  8.50000000E-01  8.50000000E-01  8.00000000E-01  8.50000000E-01
  8.50000000E-01  8.50000000E-01  8.00000000E-01  8.50000000E-01  8.50000000E-01
  8.50000000E-01  8.00000000E-01  8.50000000E-01  8.50000000E-01  8.50000000E-01
  8.00000000E-01  8.50000000E-01  8.50000000E-01  8.50000000E-01  8.00000000E-01
  8.50000000E-01  8.50000000E-01  8.50000000E-01  8.00000000E-01  8.50000000E-01
  8.50000000E-01  8.50000000E-01  8.00000000E-01  8.50000000E-01  8.50000000E-01
  8.50000000E-01  8.00000000E-01  8.50000000E-01  8.50000000E-01  8.50000000E-01
  8.00000000E-01  8.50000000E-01  8.50000000E-01  8.50000000E-01  8.00000000E-01
  8.50000000E-01  8.50000000E-01  8.50000000E-01  8.00000000E-01  8.50000000E-01
  8.50000000E-01  8.50000000E-01  8.00000000E-01  8.50000000E-01  8.50000000E-01
  8.50000000E-01  8.00000000E-01  8.50000000E-01  8.50000000E-01  8.50000000E-01
  8.00000000E-01  8.50000000E-01  8.50000000E-01  8.50000000E-01  8.00000000E-01
  8.50000000E-01  8.50000000E-01  8.50000000E-01  8.00000000E-01  8.50000000E-01
  8.50000000E-01  8.50000000E-01  8.00000000E-01  8.50000000E-01  8.50000000E-01
  8.50000000E-01  8.00000000E-01  8.50000000E-01  8.50000000E-01  8.50000000E-01
  8.00000000E-01  8.50000000E-01  8.50000000E-01  8.50000000E-01  8.00000000E-01
  8.50000000E-01  8.50000000E-01  8.50000000E-01  8.00000000E-01  8.50000000E-01
  8.50000000E-01  8.50000000E-01  8.00000000E-01  8.50000000E-01  8.50000000E-01
  8.50000000E-01  8.00000000E-01  8.50000000E-01  8.50000000E-01  8.50000000E-01
  8.00000000E-01  8.50000000E-01  8.50000000E-01  8.50000000E-01  8.00000000E-01
  8.50000000E-01  8.50000000E-01  8.50000000E-01  8.00000000E-01  8.50000000E-01
  8.50000000E-01  8.50000000E-01  8.00000000E-01  8.50000000E-01  8.50000000E-01
  8.50000000E-01  8.00000000E-01  8.50000000E-01  8.50000000E-01  8.50000000E-01
  8.00000000E-01  8.50000000E-01  8.50000000E-01  8.50000000E-01  8.00000000E-01
  8.50000000E-01  8.50000000E-01  8.50000000E-01  8.00000000E-01  8.50000000E-01
  8.50000000E-01  8.50000000E-01  8.00000000E-01  8.50000000E-01  8.50000000E-01
  8.50000000E-01  8.00000000E-01  8.50000000E-01  8.50000000E-01  8.50000000E-01
  8.00000000E-01  8.50000000E-01  8.50000000E-01  8.50000000E-01  8.00000000E-01
  8.50000000E-01  8.50000000E-01  8.50000000E-01  8.00000000E-01  8.50000000E-01
  8.50000000E-01  8.50000000E-01  8.00000000E-01  8.50000000E-01  8.50000000E-01
  8.50000000E-01  8.00000000E-01  8.50000000E-01  8.50000000E-01  8.50000000E-01
  8.00000000E-01  8.50000000E-01  8.50000000E-01  8.50000000E-01  8.00000000E-01
  8.50000000E-01  8.50000000E-01  8.50000000E-01  8.00000000E-01  8.50000000E-01
  8.50000000E-01  8.50000000E-01  8.00000000E-01  8.50000000E-01  8.50000000E-01
  8.50000000E-01  8.00000000E-01  8.50000000E-01  8.50000000E-01  8.50000000E-01
  8.00000000E-01  8.50000000E-01  8.50000000E-01  8.50000000E-01  8.00000000E-01
  8.50000000E-01  8.50000000E-01  8.50000000E-01  8.00000000E-01  8.50000000E-01
  8.50000000E-01  8.50000000E-01  8.00000000E-01  8.50000000E-01  8.50000000E-01
  8.50000000E-01  8.00000000E-01  8.50000000E-01  8.50000000E-01  8.50000000E-01
  8.00000000E-01  8.50000000E-01  8.50000000E-01  8.50000000E-01  8.00000000E-01
  8.50000000E-01  8.50000000E-01  8.50000000E-01  8.00000000E-01  8.50000000E-01
  8.50000000E-01  8.50000000E-01  8.00000000E-01  8.50000000E-01  8.50000000E-01
  8.50000000E-01  8.00000000E-01  8.50000000E-01  8.50000000E-01  8.50000000E-01
  8.00000000E-01  8.50000000E-01  8.50000000E-01  8.50000000E-01  8.00000000E-01
  8.50000000E-01  8.50000000E-01  8.50000000E-01  8.00000000E-01  8.50000000E-01
  8.50000000E-01  8.50000000E-01  8.00000000E-01  8.50000000E-01  8.50000000E-01
  8.50000000E-01  8.00000000E-01  8.50000000E-01  8.50000000E-01  8.50000000E-01
  8.00000000E-01  8.50000000E-01  8.50000000E-01  8.50000000E-01  8.00000000E-01
  8.50000000E-01  8.50000000E-01  8.50000000E-01  8.00000000E-01  8.50000000E-01
  8.50000000E-01  8.50000000E-01  8.00000000E-01  8.50000000E-01  8.50000000E-01
  8.50000000E-01  8.00000000E-01  8.50000000E-01  8.50000000E-01  8.50000000E-01
  8.00000000E-01  8.50000000E-01  8.50000000E-01  8.50000000E-01  8.00000000E-01
  8.50000000E-01  8.50000000E-01  8.50000000E-01  8.00000000E-01  8.50000000E-01
  8.50000000E-01  8.50000000E-01  8.00000000E-01  8.50000000E-01  8.50000000E-01
  8.50000000E-01  8.00000000E-01  8.50000000E-01  8.50000000E-01  8.50000000E-01
  8.00000000E-01  8.50000000E-01  8.50000000E-01  8.50000000E-01  8.00000000E-01
  8.50000000E-01  8.50000000E-01  8.50000000E-01  8.00000000E-01  8.50000000E-01
  8.50000000E-01  8.50000000E-01  8.00000000E-01  8.50000000E-01  8.50000000E-01
  8.50000000E-01  8.00000000E-01  8.50000000E-01  8.50000000E-01  8.50000000E-01
  8.00000000E-01  8.50000000E-01  8.50000000E-01  8.50000000E-01  8.00000000E-01
  8.50000000E-01  8.50000000E-01  8.50000000E-01  8.00000000E-01  8.50000000E-01
  8.50000000E-01  8.50000000E-01  8.00000000E-01  8.50000000E-01  8.50000000E-01
  8.50000000E-01  8.00000000E-01  8.50000000E-01  8.50000000E-01  8.50000000E-01
  8.00000000E-01  8.50000000E-01  8.50000000E-01  8.50000000E-01  8.00000000E-01
  8.50000000E-01  8.50000000E-01  8.50000000E-01  8.00000000E-01  8.50000000E-01
  8.50000000E-01  8.50000000E-01  8.00000000E-01  8.50000000E-01  8.50000000E-01
  8.50000000E-01  8.00000000E-01  8.50000000E-01  8.50000000E-01  8.50000000E-01
  8.00000000E-01  8.50000000E-01  8.50000000E-01  8.50000000E-01  8.00000000E-01
  8.50000000E-01  8.50000000E-01  8.50000000E-01  8.00000000E-01  8.50000000E-01
  8.50000000E-01  8.50000000E-01  8.00000000E-01  8.50000000E-01  8.50000000E-01
  8.50000000E-01  8.00000000E-01  8.50000000E-01  8.50000000E-01  8.50000000E-01
  8.00000000E-01  8.50000000E-01  8.50000000E-01  8.50000000E-01  8.00000000E-01
  8.50000000E-01  8.50000000E-01  8.50000000E-01  8.00000000E-01  8.50000000E-01
  8.50000000E-01  8.50000000E-01  8.00000000E-01  8.50000000E-01  8.50000000E-01
  8.50000000E-01  8.00000000E-01  8.50000000E-01  8.50000000E-01  8.50000000E-01
  8.00000000E-01  8.50000000E-01  8.50000000E-01  8.50000000E-01  8.00000000E-01
  8.50000000E-01  8.50000000E-01  8.50000000E-01  8.00000000E-01  8.50000000E-01
  8.50000000E-01  8.50000000E-01  8.00000000E-01  8.50000000E-01  8.50000000E-01
  8.50000000E-01  8.00000000E-01  8.50000000E-01  8.50000000E-01  8.50000000E-01
  8.00000000E-01  8.50000000E-01  8.50000000E-01  8.50000000E-01  8.00000000E-01
  8.50000000E-01  8.50000000E-01  8.50000000E-01  8.00000000E-01  8.50000000E-01
  8.50000000E-01  8.50000000E-01  8.00000000E-01  8.50000000E-01  8.50000000E-01
  8.50000000E-01  8.00000000E-01  8.50000000E-01  8.50000000E-01  8.50000000E-01
  8.00000000E-01  8.50000000E-01  8.50000000E-01  8.50000000E-01  8.00000000E-01
  8.50000000E-01  8.50000000E-01  8.50000000E-01  8.00000000E-01  8.50000000E-01
  8.50000000E-01  8.50000000E-01  8.00000000E-01  8.50000000E-01  8.50000000E-01
  8.50000000E-01  8.00000000E-01  8.50000000E-01  8.50000000E-01  8.50000000E-01
  8.00000000E-01  8.50000000E-01  8.50000000E-01  8.50000000E-01  8.00000000E-01
  8.50000000E-01  8.50000000E-01  8.50000000E-01  8.00000000E-01  8.50000000E-01
  8.50000000E-01  8.50000000E-01  8.00000000E-01  8.50000000E-01  8.50000000E-01
  8.50000000E-01  8.00000000E-01  8.50000000E-01  8.50000000E-01  8.50000000E-01
  8.00000000E-01  8.50000000E-01  8.50000000E-01  8.50000000E-01  8.00000000E-01
  8.50000000E-01  8.50000000E-01  8.50000000E-01  8.00000000E-01  8.50000000E-01
  8.50000000E-01  8.50000000E-01  8.00000000E-01  8.50000000E-01  8.50000000E-01
  8.50000000E-01  8.00000000E-01  8.50000000E-01  8.50000000E-01  8.50000000E-01
  8.00000000E-01  8.50000000E-01  8.50000000E-01  8.50000000E-01  8.00000000E-01
  8.50000000E-01  8.50000000E-01  8.50000000E-01  8.00000000E-01  8.50000000E-01
  8.50000000E-01  8.50000000E-01  8.00000000E-01  8.50000000E-01  8.50000000E-01
  8.50000000E-01  8.00000000E-01  8.50000000E-01  8.50000000E-01  8.50000000E-01
  8.00000000E-01  8.50000000E-01  8.50000000E-01  8.50000000E-01  8.00000000E-01
  8.50000000E-01  8.50000000E-01  8.50000000E-01  8.00000000E-01  8.50000000E-01
  8.50000000E-01  8.50000000E-01  8.00000000E-01  8.50000000E-01  8.50000000E-01
  8.50000000E-01  8.00000000E-01  8.50000000E-01  8.50000000E-01  8.50000000E-01
  8.00000000E-01  8.50000000E-01  8.50000000E-01  8.50000000E-01  8.00000000E-01
  8.50000000E-01  8.50000000E-01  8.50000000E-01  8.00000000E-01  8.50000000E-01
  8.50000000E-01  8.50000000E-01  8.00000000E-01  8.50000000E-01  8.50000000E-01
  8.50000000E-01  8.00000000E-01  8.50000000E-01  8.50000000E-01  8.50000000E-01
  8.00000000E-01  8.50000000E-01  8.50000000E-01  8.50000000E-01  8.00000000E-01
  8.50000000E-01  8.50000000E-01  8.50000000E-01  8.00000000E-01  8.50000000E-01
  8.50000000E-01  8.50000000E-01  8.00000000E-01  8.50000000E-01  8.50000000E-01
  8.50000000E-01  8.00000000E-01  8.50000000E-01  8.50000000E-01  8.50000000E-01
  8.00000000E-01  8.50000000E-01  8.50000000E-01  8.50000000E-01  8.00000000E-01
  8.50000000E-01  8.50000000E-01  8.50000000E-01  8.00000000E-01  8.50000000E-01
  8.50000000E-01  8.50000000E-01  8.00000000E-01  8.50000000E-01  8.50000000E-01
  8.50000000E-01  8.00000000E-01  8.50000000E-01  8.50000000E-01  8.50000000E-01
  8.00000000E-01  8.50000000E-01  8.50000000E-01  8.50000000E-01  8.00000000E-01
  8.50000000E-01  8.50000000E-01  8.50000000E-01  8.00000000E-01  8.50000000E-01
  8.50000000E-01  8.50000000E-01  8.00000000E-01  8.50000000E-01  8.50000000E-01
  8.50000000E-01  8.00000000E-01  8.50000000E-01  8.50000000E-01  8.50000000E-01
  8.00000000E-01  8.50000000E-01  8.50000000E-01  8.50000000E-01  8.00000000E-01
  8.50000000E-01  8.50000000E-01  8.50000000E-01  8.00000000E-01  8.50000000E-01
  8.50000000E-01  8.50000000E-01  8.00000000E-01  8.50000000E-01  8.50000000E-01
  8.50000000E-01  8.00000000E-01  8.50000000E-01  8.50000000E-01  8.50000000E-01
  8.00000000E-01  8.50000000E-01  8.50000000E-01  8.50000000E-01  8.00000000E-01
  8.50000000E-01  8.50000000E-01  8.50000000E-01  8.00000000E-01  8.50000000E-01
  8.50000000E-01  8.50000000E-01  8.00000000E-01  8.50000000E-01  8.50000000E-01
  8.50000000E-01  8.00000000E-01  8.50000000E-01  8.50000000E-01  8.50000000E-01
  8.00000000E-01  8.50000000E-01  8.50000000E-01  8.50000000E-01  8.00000000E-01
  8.50000000E-01  8.50000000E-01  8.50000000E-01  8.00000000E-01  8.50000000E-01
  8.50000000E-01  8.50000000E-01  8.00000000E-01  8.50000000E-01  8.50000000E-01
  8.50000000E-01  8.00000000E-01  8.50000000E-01  8.50000000E-01  8.50000000E-01
  8.00000000E-01  8.50000000E-01  8.50000000E-01  8.50000000E-01  8.00000000E-01
  8.50000000E-01  8.50000000E-01  8.50000000E-01  8.00000000E-01  8.50000000E-01
  8.50000000E-01  8.50000000E-01  8.00000000E-01  8.50000000E-01  8.50000000E-01
  8.50000000E-01  8.00000000E-01  8.50000000E-01  8.50000000E-01  8.50000000E-01
  8.00000000E-01  8.50000000E-01  8.50000000E-01  8.50000000E-01  8.00000000E-01
  8.50000000E-01  8.50000000E-01  8.50000000E-01  8.00000000E-01  8.50000000E-01
  8.50000000E-01  8.50000000E-01  8.00000000E-01  8.50000000E-01  8.50000000E-01
  8.50000000E-01  8.00000000E-01  8.50000000E-01  8.50000000E-01  8.50000000E-01
  8.00000000E-01  8.50000000E-01  8.50000000E-01  8.50000000E-01  8.00000000E-01
  8.50000000E-01  8.50000000E-01  8.50000000E-01  8.00000000E-01  8.50000000E-01
  8.50000000E-01  8.50000000E-01  8.00000000E-01  8.50000000E-01  8.50000000E-01
  8.50000000E-01  8.00000000E-01  8.50000000E-01  8.50000000E-01  8.50000000E-01
  8.00000000E-01  8.50000000E-01  8.50000000E-01  8.50000000E-01  8.00000000E-01
  8.50000000E-01  8.50000000E-01  8.50000000E-01  8.00000000E-01  8.50000000E-01
  8.50000000E-01  8.50000000E-01  8.00000000E-01  8.50000000E-01  8.50000000E-01
  8.50000000E-01  8.00000000E-01  8.50000000E-01  8.50000000E-01  8.50000000E-01
  8.00000000E-01  8.50000000E-01  8.50000000E-01  8.50000000E-01  8.00000000E-01
  8.50000000E-01  8.50000000E-01  8.50000000E-01  8.00000000E-01  8.50000000E-01
  8.50000000E-01  8.50000000E-01  8.00000000E-01  8.50000000E-01  8.50000000E-01
  8.50000000E-01  8.00000000E-01  8.50000000E-01  8.50000000E-01  8.50000000E-01
  8.00000000E-01  8.50000000E-01  8.50000000E-01  8.50000000E-01  8.00000000E-01
  8.50000000E-01  8.50000000E-01  8.50000000E-01  8.00000000E-01  8.50000000E-01
  8.50000000E-01  8.50000000E-01  8.00000000E-01  8.50000000E-01  8.50000000E-01
  8.50000000E-01  8.00000000E-01  8.50000000E-01  8.50000000E-01  8.50000000E-01
  8.00000000E-01  8.50000000E-01  8.50000000E-01  8.50000000E-01  8.00000000E-01
  8.50000000E-01  8.50000000E-01  8.50000000E-01  8.00000000E-01  8.50000000E-01
  8.50000000E-01  8.50000000E-01  8.00000000E-01  8.50000000E-01  8.50000000E-01
  8.50000000E-01  8.00000000E-01  8.50000000E-01  8.50000000E-01  8.50000000E-01
  8.00000000E-01  8.50000000E-01  8.50000000E-01  8.50000000E-01  8.00000000E-01
  8.50000000E-01  8.50000000E-01  8.50000000E-01  8.00000000E-01  8.50000000E-01
  8.50000000E-01  8.50000000E-01  8.00000000E-01  8.50000000E-01  8.50000000E-01
  8.50000000E-01  8.00000000E-01  8.50000000E-01  8.50000000E-01  8.50000000E-01
  8.00000000E-01  8.50000000E-01  8.50000000E-01  8.50000000E-01  8.00000000E-01
  8.50000000E-01  8.50000000E-01  8.50000000E-01  8.00000000E-01  8.50000000E-01
  8.50000000E-01  8.50000000E-01  8.00000000E-01  8.50000000E-01  8.50000000E-01
  8.50000000E-01  8.00000000E-01  8.50000000E-01  8.50000000E-01  8.50000000E-01
  8.00000000E-01  8.50000000E-01  8.50000000E-01  8.50000000E-01  8.00000000E-01
  8.50000000E-01  8.50000000E-01  8.50000000E-01  8.00000000E-01  8.50000000E-01
  8.50000000E-01  8.50000000E-01  8.00000000E-01  8.50000000E-01  8.50000000E-01
  8.50000000E-01  8.00000000E-01  8.50000000E-01  8.50000000E-01  8.50000000E-01
  8.00000000E-01  8.50000000E-01  8.50000000E-01  8.50000000E-01  8.00000000E-01
  8.50000000E-01  8.50000000E-01  8.50000000E-01  8.00000000E-01  8.50000000E-01
  8.50000000E-01  8.50000000E-01  8.00000000E-01  8.50000000E-01  8.50000000E-01
  8.50000000E-01  8.00000000E-01  8.50000000E-01  8.50000000E-01  8.50000000E-01
  8.00000000E-01  8.50000000E-01  8.50000000E-01  8.50000000E-01  8.00000000E-01
  8.50000000E-01  8.50000000E-01  8.50000000E-01  8.00000000E-01  8.50000000E-01
  8.50000000E-01  8.50000000E-01  8.00000000E-01  8.50000000E-01  8.50000000E-01
  8.50000000E-01  8.00000000E-01  8.50000000E-01  8.50000000E-01  8.50000000E-01
  8.00000000E-01  8.50000000E-01  8.50000000E-01  8.50000000E-01  8.00000000E-01
  8.50000000E-01  8.50000000E-01  8.50000000E-01  8.00000000E-01  8.50000000E-01
  8.50000000E-01  8.50000000E-01  8.00000000E-01  8.50000000E-01  8.50000000E-01
  8.50000000E-01  8.00000000E-01  8.50000000E-01  8.50000000E-01  8.50000000E-01
  8.00000000E-01  8.50000000E-01  8.50000000E-01  8.50000000E-01  8.00000000E-01
  8.50000000E-01  8.50000000E-01  8.50000000E-01  8.00000000E-01  8.50000000E-01
  8.50000000E-01  8.50000000E-01  8.00000000E-01  8.50000000E-01  8.50000000E-01
  8.50000000E-01  8.00000000E-01  8.50000000E-01  8.50000000E-01  8.50000000E-01
  8.00000000E-01  8.50000000E-01  8.50000000E-01  8.50000000E-01  8.00000000E-01
  8.50000000E-01  8.50000000E-01  8.50000000E-01  8.00000000E-01  8.50000000E-01
  8.50000000E-01  8.50000000E-01  8.00000000E-01  8.50000000E-01  8.50000000E-01
  8.50000000E-01  8.00000000E-01  8.50000000E-01  8.50000000E-01  8.50000000E-01
  8.00000000E-01  8.50000000E-01  8.50000000E-01  8.50000000E-01  8.00000000E-01
  8.50000000E-01  8.50000000E-01  8.50000000E-01  8.00000000E-01  8.50000000E-01
  8.50000000E-01  8.50000000E-01  8.00000000E-01  8.50000000E-01  8.50000000E-01
  8.50000000E-01  8.00000000E-01  8.50000000E-01  8.50000000E-01  8.50000000E-01
  8.00000000E-01  8.50000000E-01  8.50000000E-01  8.50000000E-01  8.00000000E-01
  8.50000000E-01  8.50000000E-01  8.50000000E-01  8.00000000E-01  8.50000000E-01
  8.50000000E-01  8.50000000E-01  8.00000000E-01  8.50000000E-01  8.50000000E-01
  8.50000000E-01  8.00000000E-01  8.50000000E-01  8.50000000E-01  8.50000000E-01
  8.00000000E-01  8.50000000E-01  8.50000000E-01  8.50000000E-01  8.00000000E-01
  8.50000000E-01  8.50000000E-01  8.50000000E-01  8.00000000E-01  8.50000000E-01
  8.50000000E-01  8.50000000E-01  8.00000000E-01  8.50000000E-01  8.50000000E-01
  8.50000000E-01  8.00000000E-01  8.50000000E-01  8.50000000E-01  8.50000000E-01
  8.00000000E-01  8.50000000E-01  8.50000000E-01  8.50000000E-01  8.00000000E-01
  8.50000000E-01  8.50000000E-01  8.50000000E-01  8.00000000E-01  8.50000000E-01
  8.50000000E-01  8.50000000E-01  8.00000000E-01  8.50000000E-01  8.50000000E-01
  8.50000000E-01  8.00000000E-01  8.50000000E-01  8.50000000E-01  8.50000000E-01
  8.00000000E-01  8.50000000E-01  8.50000000E-01  8.50000000E-01  8.00000000E-01
  8.50000000E-01  8.50000000E-01  8.50000000E-01  8.00000000E-01  8.50000000E-01
  8.50000000E-01  8.50000000E-01  8.00000000E-01  8.50000000E-01  8.50000000E-01
  8.50000000E-01  8.00000000E-01  8.50000000E-01  8.50000000E-01  8.50000000E-01
  8.00000000E-01  8.50000000E-01  8.50000000E-01  8.50000000E-01  8.00000000E-01
  8.50000000E-01  8.50000000E-01  8.50000000E-01  8.00000000E-01  8.50000000E-01
  8.50000000E-01  8.50000000E-01  8.00000000E-01  8.50000000E-01  8.50000000E-01
  8.50000000E-01  8.00000000E-01  8.50000000E-01  8.50000000E-01  8.50000000E-01
  8.00000000E-01  8.50000000E-01  8.50000000E-01  8.50000000E-01  8.00000000E-01
  8.50000000E-01  8.50000000E-01  8.50000000E-01  8.00000000E-01  8.50000000E-01
  8.50000000E-01  8.50000000E-01  8.00000000E-01  8.50000000E-01  8.50000000E-01
  8.50000000E-01  8.00000000E-01  8.50000000E-01  8.50000000E-01  8.50000000E-01
  8.00000000E-01  8.50000000E-01  8.50000000E-01  8.50000000E-01  8.00000000E-01
  8.50000000E-01  8.50000000E-01  8.50000000E-01  8.00000000E-01  8.50000000E-01
  8.50000000E-01  8.50000000E-01  8.00000000E-01  8.50000000E-01  8.50000000E-01
  8.50000000E-01  8.00000000E-01  8.50000000E-01  8.50000000E-01  8.50000000E-01
  8.00000000E-01  8.50000000E-01  8.50000000E-01  8.50000000E-01  8.00000000E-01
  8.50000000E-01  8.50000000E-01  8.50000000E-01  8.00000000E-01  8.50000000E-01
  8.50000000E-01  8.50000000E-01  8.00000000E-01  8.50000000E-01  8.50000000E-01
  8.50000000E-01  8.00000000E-01  8.50000000E-01  8.50000000E-01  8.50000000E-01
  8.00000000E-01  8.50000000E-01  8.50000000E-01  8.50000000E-01  8.00000000E-01
  8.50000000E-01  8.50000000E-01  8.50000000E-01  8.00000000E-01  8.50000000E-01
  8.50000000E-01  8.50000000E-01  8.00000000E-01  8.50000000E-01  8.50000000E-01
  8.50000000E-01  8.00000000E-01  8.50000000E-01  8.50000000E-01  8.50000000E-01
  8.00000000E-01  8.50000000E-01  8.50000000E-01  8.50000000E-01  8.00000000E-01
  8.50000000E-01  8.50000000E-01  8.50000000E-01  8.00000000E-01  8.50000000E-01
  8.50000000E-01  8.50000000E-01  8.00000000E-01  8.50000000E-01  8.50000000E-01
  8.50000000E-01  8.00000000E-01  8.50000000E-01  8.50000000E-01  8.50000000E-01
  8.00000000E-01  8.50000000E-01  8.50000000E-01  8.50000000E-01  8.00000000E-01
  8.50000000E-01  8.50000000E-01  8.50000000E-01  8.00000000E-01  8.50000000E-01
  8.50000000E-01  8.50000000E-01  8.00000000E-01  8.50000000E-01  8.50000000E-01
  8.50000000E-01  8.00000000E-01  8.50000000E-01  8.50000000E-01  8.50000000E-01
  8.00000000E-01  8.50000000E-01  8.50000000E-01  8.50000000E-01  8.00000000E-01
  8.50000000E-01  8.50000000E-01  8.50000000E-01  8.00000000E-01  8.50000000E-01
  8.50000000E-01  8.50000000E-01  8.00000000E-01  8.50000000E-01  8.50000000E-01
  8.50000000E-01  8.00000000E-01  8.50000000E-01  8.50000000E-01  8.50000000E-01
  8.00000000E-01  8.50000000E-01  8.50000000E-01  8.50000000E-01  8.00000000E-01
  8.50000000E-01  8.50000000E-01  8.50000000E-01  8.00000000E-01  8.50000000E-01
  8.50000000E-01  8.50000000E-01  8.00000000E-01  8.50000000E-01  8.50000000E-01
  8.50000000E-01  8.00000000E-01  8.50000000E-01  8.50000000E-01  8.50000000E-01
  8.00000000E-01  8.50000000E-01  8.50000000E-01  8.50000000E-01  8.00000000E-01
  8.50000000E-01  8.50000000E-01  8.50000000E-01  8.00000000E-01  8.50000000E-01
  8.50000000E-01  8.50000000E-01  8.00000000E-01  8.50000000E-01  8.50000000E-01
  8.50000000E-01  8.00000000E-01  8.50000000E-01  8.50000000E-01  8.50000000E-01
  8.00000000E-01  8.50000000E-01  8.50000000E-01  8.50000000E-01  8.00000000E-01
  8.50000000E-01  8.50000000E-01  8.50000000E-01  8.00000000E-01  8.50000000E-01
  8.50000000E-01  8.50000000E-01  8.00000000E-01  8.50000000E-01  8.50000000E-01
  8.50000000E-01  8.00000000E-01  8.50000000E-01  8.50000000E-01  8.50000000E-01
  8.00000000E-01  8.50000000E-01  8.50000000E-01  8.50000000E-01  8.00000000E-01
  8.50000000E-01  8.50000000E-01  8.50000000E-01  8.00000000E-01  8.50000000E-01
  8.50000000E-01  8.50000000E-01  8.00000000E-01  8.50000000E-01  8.50000000E-01
  8.50000000E-01  8.00000000E-01  8.50000000E-01  8.50000000E-01  8.50000000E-01
  8.00000000E-01  8.50000000E-01  8.50000000E-01  8.50000000E-01  8.00000000E-01
  8.50000000E-01  8.50000000E-01  8.50000000E-01  8.00000000E-01  8.50000000E-01
  8.50000000E-01  8.50000000E-01  8.00000000E-01  8.50000000E-01  8.50000000E-01
  8.50000000E-01  8.00000000E-01  8.50000000E-01  8.50000000E-01  8.50000000E-01
  8.00000000E-01  8.50000000E-01  8.50000000E-01  8.50000000E-01  8.00000000E-01
  8.50000000E-01  8.50000000E-01  8.50000000E-01  8.00000000E-01  8.50000000E-01
  8.50000000E-01  8.50000000E-01  8.00000000E-01  8.50000000E-01  8.50000000E-01
  8.50000000E-01  8.00000000E-01  8.50000000E-01  8.50000000E-01  8.50000000E-01
  8.00000000E-01  8.50000000E-01  8.50000000E-01  8.50000000E-01  8.00000000E-01
  8.50000000E-01  8.50000000E-01  8.50000000E-01  8.00000000E-01  8.50000000E-01
  8.50000000E-01  8.50000000E-01  8.00000000E-01  8.50000000E-01  8.50000000E-01
  8.50000000E-01  8.00000000E-01  8.50000000E-01  8.50000000E-01  8.50000000E-01
  8.00000000E-01  8.50000000E-01  8.50000000E-01  8.50000000E-01  8.00000000E-01
  8.50000000E-01  8.50000000E-01  8.50000000E-01  8.00000000E-01  8.50000000E-01
  8.50000000E-01  8.50000000E-01  8.00000000E-01  8.50000000E-01  8.50000000E-01
  8.50000000E-01  8.00000000E-01  8.50000000E-01  8.50000000E-01  8.50000000E-01
  8.00000000E-01  8.50000000E-01  8.50000000E-01  8.50000000E-01  8.00000000E-01
  8.50000000E-01  8.50000000E-01  8.50000000E-01  8.00000000E-01  8.50000000E-01
  8.50000000E-01  8.50000000E-01  8.00000000E-01  8.50000000E-01  8.50000000E-01
  8.50000000E-01  8.00000000E-01  8.50000000E-01  8.50000000E-01  8.50000000E-01
  8.00000000E-01  8.50000000E-01  8.50000000E-01  8.50000000E-01  8.00000000E-01
  8.50000000E-01  8.50000000E-01  8.50000000E-01  8.00000000E-01  8.50000000E-01
  8.50000000E-01  8.50000000E-01  8.00000000E-01  8.50000000E-01  8.50000000E-01
  8.50000000E-01  8.00000000E-01  8.50000000E-01  8.50000000E-01  8.50000000E-01
  8.00000000E-01  8.50000000E-01  8.50000000E-01  8.50000000E-01  8.00000000E-01
  8.50000000E-01  8.50000000E-01  8.50000000E-01  8.00000000E-01  8.50000000E-01
  8.50000000E-01  8.50000000E-01  8.00000000E-01  8.50000000E-01  8.50000000E-01
  8.50000000E-01  8.00000000E-01  8.50000000E-01  8.50000000E-01  8.50000000E-01
  8.00000000E-01  8.50000000E-01  8.50000000E-01  8.50000000E-01  8.00000000E-01
  8.50000000E-01  8.50000000E-01  8.50000000E-01  8.00000000E-01  8.50000000E-01
  8.50000000E-01  8.50000000E-01  8.00000000E-01  8.50000000E-01  8.50000000E-01
  8.50000000E-01  8.00000000E-01  8.50000000E-01  8.50000000E-01  8.50000000E-01
  8.00000000E-01  8.50000000E-01  8.50000000E-01  8.50000000E-01  8.00000000E-01
  8.50000000E-01  8.50000000E-01  8.50000000E-01  8.00000000E-01  8.50000000E-01
  8.50000000E-01  8.50000000E-01  8.00000000E-01  8.50000000E-01  8.50000000E-01
  8.50000000E-01  8.00000000E-01  8.50000000E-01  8.50000000E-01  8.50000000E-01
  8.00000000E-01  8.50000000E-01  8.50000000E-01  8.50000000E-01  8.00000000E-01
  8.50000000E-01  8.50000000E-01  8.50000000E-01  8.00000000E-01  8.50000000E-01
  8.50000000E-01  8.50000000E-01  8.00000000E-01  8.50000000E-01  8.50000000E-01
  8.50000000E-01  8.00000000E-01  8.50000000E-01  8.50000000E-01  8.50000000E-01
  8.00000000E-01  8.50000000E-01  8.50000000E-01  8.50000000E-01  8.00000000E-01
  8.50000000E-01  8.50000000E-01  8.50000000E-01  8.00000000E-01  8.50000000E-01
  8.50000000E-01  8.50000000E-01  8.00000000E-01  8.50000000E-01  8.50000000E-01
  8.50000000E-01  8.00000000E-01  8.50000000E-01  8.50000000E-01  8.50000000E-01
  8.00000000E-01  8.50000000E-01  8.50000000E-01  8.50000000E-01  8.00000000E-01
  8.50000000E-01  8.50000000E-01  8.50000000E-01  8.00000000E-01  8.50000000E-01
  8.50000000E-01  8.50000000E-01  8.00000000E-01  8.50000000E-01  8.50000000E-01
  8.50000000E-01  8.00000000E-01  8.50000000E-01  8.50000000E-01  8.50000000E-01
  8.00000000E-01  8.50000000E-01  8.50000000E-01  8.50000000E-01  8.00000000E-01
  8.50000000E-01  8.50000000E-01  8.50000000E-01  8.00000000E-01  8.50000000E-01
  8.50000000E-01  8.50000000E-01  8.00000000E-01  8.50000000E-01  8.50000000E-01
  8.50000000E-01  8.00000000E-01  8.50000000E-01  8.50000000E-01  8.50000000E-01
  8.00000000E-01  8.50000000E-01  8.50000000E-01  8.50000000E-01  8.00000000E-01
  8.50000000E-01  8.50000000E-01  8.50000000E-01  8.00000000E-01  8.50000000E-01
  8.50000000E-01  8.50000000E-01  8.00000000E-01  8.50000000E-01  8.50000000E-01
  8.50000000E-01  8.00000000E-01  8.50000000E-01  8.50000000E-01  8.50000000E-01
  8.00000000E-01  8.50000000E-01  8.50000000E-01  8.50000000E-01  8.00000000E-01
  8.50000000E-01  8.50000000E-01  8.50000000E-01  8.00000000E-01  8.50000000E-01
  8.50000000E-01  8.50000000E-01  8.00000000E-01  8.50000000E-01  8.50000000E-01
  8.50000000E-01  8.00000000E-01  8.50000000E-01  8.50000000E-01  8.50000000E-01
  8.00000000E-01  8.50000000E-01  8.50000000E-01  8.50000000E-01  8.00000000E-01
  8.50000000E-01  8.50000000E-01  8.50000000E-01  8.00000000E-01  8.50000000E-01
  8.50000000E-01  8.50000000E-01  8.00000000E-01  8.50000000E-01  8.50000000E-01
  8.50000000E-01  8.00000000E-01  8.50000000E-01  8.50000000E-01  8.50000000E-01
  8.00000000E-01  8.50000000E-01  8.50000000E-01  8.50000000E-01  8.00000000E-01
  8.50000000E-01  8.50000000E-01  8.50000000E-01  8.00000000E-01  8.50000000E-01
  8.50000000E-01  8.50000000E-01  8.00000000E-01  8.50000000E-01  8.50000000E-01
  8.50000000E-01  8.00000000E-01  8.50000000E-01  8.50000000E-01  8.50000000E-01
  8.00000000E-01  8.50000000E-01  8.50000000E-01  8.50000000E-01  8.00000000E-01
  8.50000000E-01  8.50000000E-01  8.50000000E-01  8.00000000E-01  8.50000000E-01
  8.50000000E-01  8.50000000E-01  8.00000000E-01  8.50000000E-01  8.50000000E-01
  8.50000000E-01  8.00000000E-01  8.50000000E-01  8.50000000E-01  8.50000000E-01
  8.00000000E-01  8.50000000E-01  8.50000000E-01  8.50000000E-01  8.00000000E-01
  8.50000000E-01  8.50000000E-01  8.50000000E-01  8.00000000E-01  8.50000000E-01
  8.50000000E-01  8.50000000E-01  8.00000000E-01  8.50000000E-01  8.50000000E-01
  8.50000000E-01  8.00000000E-01  8.50000000E-01  8.50000000E-01  8.50000000E-01
  8.00000000E-01  8.50000000E-01  8.50000000E-01  8.50000000E-01  8.00000000E-01
  8.50000000E-01  8.50000000E-01  8.50000000E-01  8.00000000E-01  8.50000000E-01
  8.50000000E-01  8.50000000E-01  8.00000000E-01  8.50000000E-01  8.50000000E-01
  8.50000000E-01  8.00000000E-01  8.50000000E-01  8.50000000E-01  8.50000000E-01
  8.00000000E-01  8.50000000E-01  8.50000000E-01  8.50000000E-01  8.00000000E-01
  8.50000000E-01  8.50000000E-01  8.50000000E-01  8.00000000E-01  8.50000000E-01
  8.50000000E-01  8.50000000E-01  8.00000000E-01  8.50000000E-01  8.50000000E-01
  8.50000000E-01  8.00000000E-01  8.50000000E-01  8.50000000E-01  8.50000000E-01
  8.00000000E-01  8.50000000E-01  8.50000000E-01  8.50000000E-01  8.00000000E-01
  8.50000000E-01  8.50000000E-01  8.50000000E-01  8.00000000E-01  8.50000000E-01
  8.50000000E-01  8.50000000E-01  8.00000000E-01  8.50000000E-01  8.50000000E-01
  8.50000000E-01  8.00000000E-01  8.50000000E-01  8.50000000E-01  8.50000000E-01
  8.00000000E-01  8.50000000E-01  8.50000000E-01  8.50000000E-01  8.00000000E-01
  8.50000000E-01  8.50000000E-01  8.50000000E-01  8.00000000E-01  8.50000000E-01
  8.50000000E-01  8.50000000E-01  8.00000000E-01  8.50000000E-01  8.50000000E-01
  8.50000000E-01  8.00000000E-01  8.50000000E-01  8.50000000E-01  8.50000000E-01
  8.00000000E-01  8.50000000E-01  8.50000000E-01  8.50000000E-01  8.00000000E-01
  8.50000000E-01  8.50000000E-01  8.50000000E-01  8.00000000E-01  8.50000000E-01
  8.50000000E-01  8.50000000E-01  8.00000000E-01  8.50000000E-01  8.50000000E-01
  8.50000000E-01  8.00000000E-01  8.50000000E-01  8.50000000E-01  8.50000000E-01
  8.00000000E-01  8.50000000E-01  8.50000000E-01  8.50000000E-01  8.00000000E-01
  8.50000000E-01  8.50000000E-01  8.50000000E-01  8.00000000E-01  8.50000000E-01
  8.50000000E-01  8.50000000E-01  8.00000000E-01  8.50000000E-01  8.50000000E-01
  8.50000000E-01  8.00000000E-01  8.50000000E-01  8.50000000E-01  8.50000000E-01
  8.00000000E-01  8.50000000E-01  8.50000000E-01  8.50000000E-01  8.00000000E-01
  8.50000000E-01  8.50000000E-01  8.50000000E-01  8.00000000E-01  8.50000000E-01
  8.50000000E-01  8.50000000E-01  8.00000000E-01  8.50000000E-01  8.50000000E-01
  8.50000000E-01  8.00000000E-01  8.50000000E-01  8.50000000E-01  8.50000000E-01
  8.00000000E-01  8.50000000E-01  8.50000000E-01  8.50000000E-01  8.00000000E-01
  8.50000000E-01  8.50000000E-01  8.50000000E-01  8.00000000E-01  8.50000000E-01
  8.50000000E-01  8.50000000E-01  8.00000000E-01  8.50000000E-01  8.50000000E-01
  8.50000000E-01  8.00000000E-01  8.50000000E-01  8.50000000E-01  8.50000000E-01
  8.00000000E-01  8.50000000E-01  8.50000000E-01  8.50000000E-01  8.00000000E-01
  8.50000000E-01  8.50000000E-01  8.50000000E-01  8.00000000E-01  8.50000000E-01
  8.50000000E-01  8.50000000E-01  8.00000000E-01  8.50000000E-01  8.50000000E-01
  8.50000000E-01  8.00000000E-01  8.50000000E-01  8.50000000E-01  8.50000000E-01
  8.00000000E-01  8.50000000E-01  8.50000000E-01  8.50000000E-01  8.00000000E-01
  8.50000000E-01  8.50000000E-01  8.50000000E-01  8.00000000E-01  8.50000000E-01
  8.50000000E-01  8.50000000E-01  8.00000000E-01  8.50000000E-01  8.50000000E-01
  8.50000000E-01  8.00000000E-01  8.50000000E-01  8.50000000E-01  8.50000000E-01
  8.00000000E-01  8.50000000E-01  8.50000000E-01  8.50000000E-01  8.00000000E-01
  8.50000000E-01  8.50000000E-01  8.50000000E-01  8.00000000E-01  8.50000000E-01
  8.50000000E-01  8.50000000E-01  8.00000000E-01  8.50000000E-01  8.50000000E-01
  8.50000000E-01  8.00000000E-01  8.50000000E-01  8.50000000E-01  8.50000000E-01
  8.00000000E-01  8.50000000E-01  8.50000000E-01  8.50000000E-01  8.00000000E-01
  8.50000000E-01  8.50000000E-01  8.50000000E-01  8.00000000E-01  8.50000000E-01
  8.50000000E-01  8.50000000E-01  8.00000000E-01  8.50000000E-01  8.50000000E-01
  8.50000000E-01  8.00000000E-01  8.50000000E-01  8.50000000E-01  8.50000000E-01
  8.00000000E-01  8.50000000E-01  8.50000000E-01  8.50000000E-01  8.00000000E-01
  8.50000000E-01  8.50000000E-01  8.50000000E-01  8.00000000E-01  8.50000000E-01
  8.50000000E-01  8.50000000E-01  8.00000000E-01  8.50000000E-01  8.50000000E-01
  8.50000000E-01  8.00000000E-01  8.50000000E-01  8.50000000E-01  8.50000000E-01
  8.00000000E-01  8.50000000E-01  8.50000000E-01  8.50000000E-01  8.00000000E-01
  8.50000000E-01  8.50000000E-01  8.50000000E-01  8.00000000E-01  8.50000000E-01
  8.50000000E-01  8.50000000E-01  8.00000000E-01  8.50000000E-01  8.50000000E-01
  8.50000000E-01  8.00000000E-01  8.50000000E-01  8.50000000E-01  8.50000000E-01
  8.00000000E-01  8.50000000E-01  8.50000000E-01  8.50000000E-01  8.00000000E-01
  8.50000000E-01  8.50000000E-01  8.50000000E-01  8.00000000E-01  8.50000000E-01
  8.50000000E-01  8.50000000E-01  8.00000000E-01  8.50000000E-01  8.50000000E-01
  8.50000000E-01  8.00000000E-01  8.50000000E-01  8.50000000E-01  8.50000000E-01
  8.00000000E-01  8.50000000E-01  8.50000000E-01  8.50000000E-01  8.00000000E-01
  8.50000000E-01  8.50000000E-01  8.50000000E-01  8.00000000E-01  8.50000000E-01
  8.50000000E-01  8.50000000E-01  8.00000000E-01  8.50000000E-01  8.50000000E-01
  8.50000000E-01  8.00000000E-01  8.50000000E-01  8.50000000E-01  8.50000000E-01
  8.00000000E-01  8.50000000E-01  8.50000000E-01  8.50000000E-01  8.00000000E-01
  8.50000000E-01  8.50000000E-01  8.50000000E-01  8.00000000E-01  8.50000000E-01
  8.50000000E-01  8.50000000E-01  8.00000000E-01  8.50000000E-01  8.50000000E-01
  8.50000000E-01  8.00000000E-01  8.50000000E-01  8.50000000E-01  8.50000000E-01
  8.00000000E-01  8.50000000E-01  8.50000000E-01  8.50000000E-01  8.00000000E-01
  8.50000000E-01  8.50000000E-01  8.50000000E-01  8.00000000E-01  8.50000000E-01
  8.50000000E-01  8.50000000E-01  8.00000000E-01  8.50000000E-01  8.50000000E-01
  8.50000000E-01  8.00000000E-01  8.50000000E-01  8.50000000E-01  8.50000000E-01
  8.00000000E-01  8.50000000E-01  8.50000000E-01  8.50000000E-01  8.00000000E-01
  8.50000000E-01  8.50000000E-01  8.50000000E-01  8.00000000E-01  8.50000000E-01
  8.50000000E-01  8.50000000E-01  8.00000000E-01  8.50000000E-01  8.50000000E-01
  8.50000000E-01  8.00000000E-01  8.50000000E-01  8.50000000E-01  8.50000000E-01
  8.00000000E-01  8.50000000E-01  8.50000000E-01  8.50000000E-01  8.00000000E-01
  8.50000000E-01  8.50000000E-01  8.50000000E-01  8.00000000E-01  8.50000000E-01
  8.50000000E-01  8.50000000E-01  8.00000000E-01  8.50000000E-01  8.50000000E-01
  8.50000000E-01  8.00000000E-01  8.50000000E-01  8.50000000E-01  8.50000000E-01
  8.00000000E-01  8.50000000E-01  8.50000000E-01  8.50000000E-01  8.00000000E-01
  8.50000000E-01  8.50000000E-01  8.50000000E-01  8.00000000E-01  8.50000000E-01
  8.50000000E-01  8.50000000E-01  8.00000000E-01  8.50000000E-01  8.50000000E-01
  8.50000000E-01  8.00000000E-01  8.50000000E-01  8.50000000E-01  8.50000000E-01
  8.00000000E-01  8.50000000E-01  8.50000000E-01  8.50000000E-01  8.00000000E-01
  8.50000000E-01  8.50000000E-01  8.50000000E-01  8.00000000E-01  8.50000000E-01
  8.50000000E-01  8.50000000E-01  8.00000000E-01  8.50000000E-01  8.50000000E-01
  8.50000000E-01  8.00000000E-01  8.50000000E-01  8.50000000E-01  8.50000000E-01
  8.00000000E-01  8.50000000E-01  8.50000000E-01  8.50000000E-01  8.00000000E-01
  8.50000000E-01  8.50000000E-01  8.50000000E-01  8.00000000E-01  8.50000000E-01
  8.50000000E-01  8.50000000E-01  8.00000000E-01  8.50000000E-01  8.50000000E-01
  8.50000000E-01  8.00000000E-01  8.50000000E-01  8.50000000E-01  8.50000000E-01
  8.00000000E-01  8.50000000E-01  8.50000000E-01  8.50000000E-01  8.00000000E-01
  8.50000000E-01  8.50000000E-01  8.50000000E-01  8.00000000E-01  8.50000000E-01
  8.50000000E-01  8.50000000E-01  8.00000000E-01  8.50000000E-01  8.50000000E-01
  8.50000000E-01  8.00000000E-01  8.50000000E-01  8.50000000E-01  8.50000000E-01
  8.00000000E-01  8.50000000E-01  8.50000000E-01  8.50000000E-01  8.00000000E-01
  8.50000000E-01  8.50000000E-01  8.50000000E-01  8.00000000E-01  8.50000000E-01
  8.50000000E-01  8.50000000E-01  8.00000000E-01  8.50000000E-01  8.50000000E-01
  8.50000000E-01  8.00000000E-01  8.50000000E-01  8.50000000E-01  8.50000000E-01
  8.00000000E-01  8.50000000E-01  8.50000000E-01  8.50000000E-01  8.00000000E-01
  8.50000000E-01  8.50000000E-01  8.50000000E-01  8.00000000E-01  8.50000000E-01
  8.50000000E-01  8.50000000E-01  8.00000000E-01  8.50000000E-01  8.50000000E-01
  8.50000000E-01  8.00000000E-01  8.50000000E-01  8.50000000E-01  8.50000000E-01
  8.00000000E-01  8.50000000E-01  8.50000000E-01  8.50000000E-01  8.00000000E-01
  8.50000000E-01  8.50000000E-01  8.50000000E-01  8.00000000E-01  8.50000000E-01
  8.50000000E-01  8.50000000E-01  8.00000000E-01  8.50000000E-01  8.50000000E-01
  8.50000000E-01  8.00000000E-01  8.50000000E-01  8.50000000E-01  8.50000000E-01
  8.00000000E-01  8.50000000E-01  8.50000000E-01  8.50000000E-01  8.00000000E-01
  8.50000000E-01  8.50000000E-01  8.50000000E-01  8.00000000E-01  8.50000000E-01
  8.50000000E-01  8.50000000E-01  8.00000000E-01  8.50000000E-01  8.50000000E-01
  8.50000000E-01  8.00000000E-01  8.50000000E-01  8.50000000E-01  8.50000000E-01
  8.00000000E-01  8.50000000E-01  8.50000000E-01  8.50000000E-01  8.00000000E-01
  8.50000000E-01  8.50000000E-01  8.50000000E-01  8.00000000E-01  8.50000000E-01
  8.50000000E-01  8.50000000E-01  8.00000000E-01  8.50000000E-01  8.50000000E-01
  8.50000000E-01  8.00000000E-01  8.50000000E-01  8.50000000E-01  8.50000000E-01
  8.00000000E-01  8.50000000E-01  8.50000000E-01  8.50000000E-01  8.00000000E-01
  8.50000000E-01  8.50000000E-01  8.50000000E-01  8.00000000E-01  8.50000000E-01
  8.50000000E-01  8.50000000E-01  8.00000000E-01  8.50000000E-01  8.50000000E-01
  8.50000000E-01  8.00000000E-01  8.50000000E-01  8.50000000E-01  8.50000000E-01
  8.00000000E-01  8.50000000E-01  8.50000000E-01  8.50000000E-01  8.00000000E-01
  8.50000000E-01  8.50000000E-01  8.50000000E-01  8.00000000E-01  8.50000000E-01
  8.50000000E-01  8.50000000E-01  8.00000000E-01  8.50000000E-01  8.50000000E-01
  8.50000000E-01  8.00000000E-01  8.50000000E-01  8.50000000E-01  8.50000000E-01
  8.00000000E-01  8.50000000E-01  8.50000000E-01  8.50000000E-01  8.00000000E-01
  8.50000000E-01  8.50000000E-01  8.50000000E-01  8.00000000E-01  8.50000000E-01
  8.50000000E-01  8.50000000E-01  8.00000000E-01  8.50000000E-01  8.50000000E-01
  8.50000000E-01  8.00000000E-01  8.50000000E-01  8.50000000E-01  8.50000000E-01
  8.00000000E-01  8.50000000E-01  8.50000000E-01  8.50000000E-01  8.00000000E-01
  8.50000000E-01  8.50000000E-01  8.50000000E-01  8.00000000E-01  8.50000000E-01
  8.50000000E-01  8.50000000E-01  8.00000000E-01  8.50000000E-01  8.50000000E-01
  8.50000000E-01  8.00000000E-01  8.50000000E-01  8.50000000E-01  8.50000000E-01
  8.00000000E-01  8.50000000E-01  8.50000000E-01  8.50000000E-01  8.00000000E-01
  8.50000000E-01  8.50000000E-01  8.50000000E-01  8.00000000E-01  8.50000000E-01
  8.50000000E-01  8.50000000E-01  8.00000000E-01  8.50000000E-01  8.50000000E-01
  8.50000000E-01  8.00000000E-01  8.50000000E-01  8.50000000E-01  8.50000000E-01
  8.00000000E-01  8.50000000E-01  8.50000000E-01  8.50000000E-01  8.00000000E-01
  8.50000000E-01  8.50000000E-01  8.50000000E-01  8.00000000E-01  8.50000000E-01
  8.50000000E-01  8.50000000E-01  8.00000000E-01  8.50000000E-01  8.50000000E-01
  8.50000000E-01  8.00000000E-01  8.50000000E-01  8.50000000E-01  8.50000000E-01
  8.00000000E-01  8.50000000E-01  8.50000000E-01  8.50000000E-01  8.00000000E-01
  8.50000000E-01  8.50000000E-01  8.50000000E-01  8.00000000E-01  8.50000000E-01
  8.50000000E-01  8.50000000E-01  8.00000000E-01  8.50000000E-01  8.50000000E-01
  8.50000000E-01  8.00000000E-01  8.50000000E-01  8.50000000E-01  8.50000000E-01
  8.00000000E-01  8.50000000E-01  8.50000000E-01  8.50000000E-01  8.00000000E-01
  8.50000000E-01  8.50000000E-01  8.50000000E-01  8.00000000E-01  8.50000000E-01
  8.50000000E-01  8.50000000E-01  8.00000000E-01  8.50000000E-01  8.50000000E-01
  8.50000000E-01  8.00000000E-01  8.50000000E-01  8.50000000E-01  8.50000000E-01
  8.00000000E-01  8.50000000E-01  8.50000000E-01  8.50000000E-01  8.00000000E-01
  8.50000000E-01  8.50000000E-01  8.50000000E-01  8.00000000E-01  8.50000000E-01
  8.50000000E-01  8.50000000E-01  8.00000000E-01  8.50000000E-01  8.50000000E-01
  8.50000000E-01  8.00000000E-01  8.50000000E-01  8.50000000E-01  8.50000000E-01
  8.00000000E-01  8.50000000E-01  8.50000000E-01  8.50000000E-01  8.00000000E-01
  8.50000000E-01  8.50000000E-01  8.50000000E-01  8.00000000E-01  8.50000000E-01
  8.50000000E-01  8.50000000E-01  8.00000000E-01  8.50000000E-01  8.50000000E-01
  8.50000000E-01  8.00000000E-01  8.50000000E-01  8.50000000E-01  8.50000000E-01
  8.00000000E-01  8.50000000E-01  8.50000000E-01  8.50000000E-01  8.00000000E-01
  8.50000000E-01  8.50000000E-01  8.50000000E-01  8.00000000E-01  8.50000000E-01
  8.50000000E-01  8.50000000E-01  8.00000000E-01  8.50000000E-01  8.50000000E-01
  8.50000000E-01  8.00000000E-01  8.50000000E-01  8.50000000E-01  8.50000000E-01
  8.00000000E-01  8.50000000E-01  8.50000000E-01  8.50000000E-01  8.00000000E-01
  8.50000000E-01  8.50000000E-01  8.50000000E-01  8.00000000E-01  8.50000000E-01
  8.50000000E-01  8.50000000E-01  8.00000000E-01  8.50000000E-01  8.50000000E-01
  8.50000000E-01  8.00000000E-01  8.50000000E-01  8.50000000E-01  8.50000000E-01
  8.00000000E-01  8.50000000E-01  8.50000000E-01  8.50000000E-01  8.00000000E-01
  8.50000000E-01  8.50000000E-01  8.50000000E-01  8.00000000E-01  8.50000000E-01
  8.50000000E-01  8.50000000E-01  8.00000000E-01  8.50000000E-01  8.50000000E-01
  8.50000000E-01  8.00000000E-01  8.50000000E-01  8.50000000E-01  8.50000000E-01
  8.00000000E-01  8.50000000E-01  8.50000000E-01  8.50000000E-01  8.00000000E-01
  8.50000000E-01  8.50000000E-01  8.50000000E-01  8.00000000E-01  8.50000000E-01
  8.50000000E-01  8.50000000E-01  8.00000000E-01  8.50000000E-01  8.50000000E-01
  8.50000000E-01  8.00000000E-01  8.50000000E-01  8.50000000E-01  8.50000000E-01
  8.00000000E-01  8.50000000E-01  8.50000000E-01  8.50000000E-01  8.00000000E-01
  8.50000000E-01  8.50000000E-01  8.50000000E-01  8.00000000E-01  8.50000000E-01
  8.50000000E-01  8.50000000E-01  8.00000000E-01  8.50000000E-01  8.50000000E-01
  8.50000000E-01  8.00000000E-01  8.50000000E-01  8.50000000E-01  8.50000000E-01
  8.00000000E-01  8.50000000E-01  8.50000000E-01  8.50000000E-01  8.00000000E-01
  8.50000000E-01  8.50000000E-01  8.50000000E-01  8.00000000E-01  8.50000000E-01
  8.50000000E-01  8.50000000E-01  8.00000000E-01  8.50000000E-01  8.50000000E-01
  8.50000000E-01  8.00000000E-01  8.50000000E-01  8.50000000E-01  8.50000000E-01
  8.00000000E-01  8.50000000E-01  8.50000000E-01  8.50000000E-01  8.00000000E-01
  8.50000000E-01  8.50000000E-01  8.50000000E-01  8.00000000E-01  8.50000000E-01
  8.50000000E-01  8.50000000E-01  8.00000000E-01  8.50000000E-01  8.50000000E-01
  8.50000000E-01  8.00000000E-01  8.50000000E-01  8.50000000E-01  8.50000000E-01
  8.00000000E-01  8.50000000E-01  8.50000000E-01  8.50000000E-01  8.00000000E-01
  8.50000000E-01  8.50000000E-01  8.50000000E-01  8.00000000E-01  8.50000000E-01
  8.50000000E-01  8.50000000E-01  8.00000000E-01  8.50000000E-01  8.50000000E-01
  8.50000000E-01  8.00000000E-01  8.50000000E-01  8.50000000E-01  8.50000000E-01
  8.00000000E-01  8.50000000E-01  8.50000000E-01  8.50000000E-01  8.00000000E-01
  8.50000000E-01  8.50000000E-01  8.50000000E-01  8.00000000E-01  8.50000000E-01
  8.50000000E-01  8.50000000E-01  8.00000000E-01  8.50000000E-01  8.50000000E-01
  8.50000000E-01  8.00000000E-01  8.50000000E-01  8.50000000E-01  8.50000000E-01
  8.00000000E-01  8.50000000E-01  8.50000000E-01  8.50000000E-01  8.00000000E-01
  8.50000000E-01  8.50000000E-01  8.50000000E-01  8.00000000E-01  8.50000000E-01
  8.50000000E-01  8.50000000E-01  8.00000000E-01  8.50000000E-01  8.50000000E-01
  8.50000000E-01  8.00000000E-01  8.50000000E-01  8.50000000E-01  8.50000000E-01
  8.00000000E-01  8.50000000E-01  8.50000000E-01  8.50000000E-01  8.00000000E-01
  8.50000000E-01  8.50000000E-01  8.50000000E-01  8.00000000E-01  8.50000000E-01
  8.50000000E-01  8.50000000E-01  8.00000000E-01  8.50000000E-01  8.50000000E-01
  8.50000000E-01  8.00000000E-01  8.50000000E-01  8.50000000E-01  8.50000000E-01
  8.00000000E-01  8.50000000E-01  8.50000000E-01  8.50000000E-01  8.00000000E-01
  8.50000000E-01  8.50000000E-01  8.50000000E-01  8.00000000E-01  8.50000000E-01
  8.50000000E-01  8.50000000E-01  8.00000000E-01  8.50000000E-01  8.50000000E-01
  8.50000000E-01  8.00000000E-01  8.50000000E-01  8.50000000E-01  8.50000000E-01
  8.00000000E-01  8.50000000E-01  8.50000000E-01  8.50000000E-01  8.00000000E-01
  8.50000000E-01  8.50000000E-01  8.50000000E-01  8.00000000E-01  8.50000000E-01
  8.50000000E-01  8.50000000E-01  8.00000000E-01  8.50000000E-01  8.50000000E-01
  8.50000000E-01  8.00000000E-01  8.50000000E-01  8.50000000E-01  8.50000000E-01
  8.00000000E-01  8.50000000E-01  8.50000000E-01  8.50000000E-01  8.00000000E-01
  8.50000000E-01  8.50000000E-01  8.50000000E-01  8.00000000E-01  8.50000000E-01
  8.50000000E-01  8.50000000E-01  8.00000000E-01  8.50000000E-01  8.50000000E-01
  8.50000000E-01  8.00000000E-01  8.50000000E-01  8.50000000E-01  8.50000000E-01
  8.00000000E-01  8.50000000E-01  8.50000000E-01  8.50000000E-01  8.00000000E-01
  8.50000000E-01  8.50000000E-01  8.50000000E-01  8.00000000E-01  8.50000000E-01
  8.50000000E-01  8.50000000E-01  8.00000000E-01  8.50000000E-01  8.50000000E-01
  8.50000000E-01  8.00000000E-01  8.50000000E-01  8.50000000E-01  8.50000000E-01
  8.00000000E-01  8.50000000E-01  8.50000000E-01  8.50000000E-01  8.00000000E-01
  8.50000000E-01  8.50000000E-01  8.50000000E-01  8.00000000E-01  8.50000000E-01
  8.50000000E-01  8.50000000E-01  8.00000000E-01  8.50000000E-01  8.50000000E-01
  8.50000000E-01  8.00000000E-01  8.50000000E-01  8.50000000E-01  8.50000000E-01
  8.00000000E-01  8.50000000E-01  8.50000000E-01  8.50000000E-01  8.00000000E-01
  8.50000000E-01  8.50000000E-01  8.50000000E-01  8.00000000E-01  8.50000000E-01
  8.50000000E-01  8.50000000E-01  8.00000000E-01  8.50000000E-01  8.50000000E-01
  8.50000000E-01  8.00000000E-01  8.50000000E-01  8.50000000E-01  8.50000000E-01
  8.00000000E-01  8.50000000E-01  8.50000000E-01  8.50000000E-01  8.00000000E-01
  8.50000000E-01  8.50000000E-01  8.50000000E-01  8.00000000E-01  8.50000000E-01
  8.50000000E-01  8.50000000E-01  8.00000000E-01  8.50000000E-01  8.50000000E-01
  8.50000000E-01  8.00000000E-01  8.50000000E-01  8.50000000E-01  8.50000000E-01
  8.00000000E-01  8.50000000E-01  8.50000000E-01  8.50000000E-01  8.00000000E-01
  8.50000000E-01  8.50000000E-01  8.50000000E-01  8.00000000E-01  8.50000000E-01
  8.50000000E-01  8.50000000E-01  8.00000000E-01  8.50000000E-01  8.50000000E-01
  8.50000000E-01  8.00000000E-01  8.50000000E-01  8.50000000E-01  8.50000000E-01
  8.00000000E-01  8.50000000E-01  8.50000000E-01  8.50000000E-01  8.00000000E-01
  8.50000000E-01  8.50000000E-01  8.50000000E-01  8.00000000E-01  8.50000000E-01
  8.50000000E-01  8.50000000E-01  8.00000000E-01  8.50000000E-01  8.50000000E-01
  8.50000000E-01  8.00000000E-01  8.50000000E-01  8.50000000E-01  8.50000000E-01
  8.00000000E-01  8.50000000E-01  8.50000000E-01  8.50000000E-01  8.00000000E-01
  8.50000000E-01  8.50000000E-01  8.50000000E-01  8.00000000E-01  8.50000000E-01
  8.50000000E-01  8.50000000E-01  8.00000000E-01  8.50000000E-01  8.50000000E-01
  8.50000000E-01  8.00000000E-01  8.50000000E-01  8.50000000E-01  8.50000000E-01
  8.00000000E-01  8.50000000E-01  8.50000000E-01  8.50000000E-01  8.00000000E-01
  8.50000000E-01  8.50000000E-01  8.50000000E-01  8.00000000E-01  8.50000000E-01
  8.50000000E-01  8.50000000E-01  8.00000000E-01  8.50000000E-01  8.50000000E-01
  8.50000000E-01  8.00000000E-01  8.50000000E-01  8.50000000E-01  8.50000000E-01
  8.00000000E-01  8.50000000E-01  8.50000000E-01  8.50000000E-01  8.00000000E-01
  8.50000000E-01  8.50000000E-01  8.50000000E-01  8.00000000E-01  8.50000000E-01
  8.50000000E-01  8.50000000E-01  8.00000000E-01  8.50000000E-01  8.50000000E-01
  8.50000000E-01  8.00000000E-01  8.50000000E-01  8.50000000E-01  8.50000000E-01
  8.00000000E-01  8.50000000E-01  8.50000000E-01  8.50000000E-01  8.00000000E-01
  8.50000000E-01  8.50000000E-01  8.50000000E-01  8.00000000E-01  8.50000000E-01
  8.50000000E-01  8.50000000E-01  8.00000000E-01  8.50000000E-01  8.50000000E-01
  8.50000000E-01  8.00000000E-01  8.50000000E-01  8.50000000E-01  8.50000000E-01
  8.00000000E-01  8.50000000E-01  8.50000000E-01  8.50000000E-01  8.00000000E-01
  8.50000000E-01  8.50000000E-01  8.50000000E-01  8.00000000E-01  8.50000000E-01
  8.50000000E-01  8.50000000E-01  8.00000000E-01  8.50000000E-01  8.50000000E-01
  8.50000000E-01  8.00000000E-01  8.50000000E-01  8.50000000E-01  8.50000000E-01
  8.00000000E-01  8.50000000E-01  8.50000000E-01  8.50000000E-01  8.00000000E-01
  8.50000000E-01  8.50000000E-01  8.50000000E-01  8.00000000E-01  8.50000000E-01
  8.50000000E-01  8.50000000E-01  8.00000000E-01  8.50000000E-01  8.50000000E-01
  8.50000000E-01  8.00000000E-01  8.50000000E-01  8.50000000E-01  8.50000000E-01
  8.00000000E-01  8.50000000E-01  8.50000000E-01  8.50000000E-01  8.00000000E-01
  8.50000000E-01  8.50000000E-01  8.50000000E-01  8.00000000E-01  8.50000000E-01
  8.50000000E-01  8.50000000E-01  8.00000000E-01  8.50000000E-01  8.50000000E-01
  8.50000000E-01  8.00000000E-01  8.50000000E-01  8.50000000E-01  8.50000000E-01
  8.00000000E-01  8.50000000E-01  8.50000000E-01  8.50000000E-01  8.00000000E-01
  8.50000000E-01  8.50000000E-01  8.50000000E-01  8.00000000E-01  8.50000000E-01
  8.50000000E-01  8.50000000E-01  8.00000000E-01  8.50000000E-01  8.50000000E-01
  8.50000000E-01  8.00000000E-01  8.50000000E-01  8.50000000E-01  8.50000000E-01
  8.00000000E-01  8.50000000E-01  8.50000000E-01  8.50000000E-01  8.00000000E-01
  8.50000000E-01  8.50000000E-01  8.50000000E-01  8.00000000E-01  8.50000000E-01
  8.50000000E-01  8.50000000E-01  8.00000000E-01  8.50000000E-01  8.50000000E-01
  8.50000000E-01  8.00000000E-01  8.50000000E-01  8.50000000E-01  8.50000000E-01
  8.00000000E-01  8.50000000E-01  8.50000000E-01  8.50000000E-01  8.00000000E-01
  8.50000000E-01  8.50000000E-01  8.50000000E-01  8.00000000E-01  8.50000000E-01
  8.50000000E-01  8.50000000E-01  8.00000000E-01  8.50000000E-01  8.50000000E-01
  8.50000000E-01  8.00000000E-01  8.50000000E-01  8.50000000E-01  8.50000000E-01
  8.00000000E-01  8.50000000E-01  8.50000000E-01  8.50000000E-01  8.00000000E-01
  8.50000000E-01  8.50000000E-01  8.50000000E-01  8.00000000E-01  8.50000000E-01
  8.50000000E-01  8.50000000E-01  8.00000000E-01  8.50000000E-01  8.50000000E-01
  8.50000000E-01  8.00000000E-01  8.50000000E-01  8.50000000E-01  8.50000000E-01
  8.00000000E-01  8.50000000E-01  8.50000000E-01  8.50000000E-01  8.00000000E-01
  8.50000000E-01  8.50000000E-01  8.50000000E-01  8.00000000E-01  8.50000000E-01
  8.50000000E-01  8.50000000E-01  8.00000000E-01  8.50000000E-01  8.50000000E-01
  8.50000000E-01  8.00000000E-01  8.50000000E-01  8.50000000E-01  8.50000000E-01
  8.00000000E-01  8.50000000E-01  8.50000000E-01  8.50000000E-01  8.00000000E-01
  8.50000000E-01  8.50000000E-01  8.50000000E-01  8.00000000E-01  8.50000000E-01
  8.50000000E-01  8.50000000E-01  8.00000000E-01  8.50000000E-01  8.50000000E-01
  8.50000000E-01  8.00000000E-01  8.50000000E-01  8.50000000E-01  8.50000000E-01
  8.00000000E-01  8.50000000E-01  8.50000000E-01  8.50000000E-01  8.00000000E-01
  8.50000000E-01  8.50000000E-01  8.50000000E-01  8.00000000E-01  8.50000000E-01
  8.50000000E-01  8.50000000E-01  8.00000000E-01  8.50000000E-01  8.50000000E-01
  8.50000000E-01  8.00000000E-01  8.50000000E-01  8.50000000E-01  8.50000000E-01
  8.00000000E-01  8.50000000E-01  8.50000000E-01  8.50000000E-01  8.00000000E-01
  8.50000000E-01  8.50000000E-01  8.50000000E-01  8.00000000E-01  8.50000000E-01
  8.50000000E-01  8.50000000E-01  8.00000000E-01  8.50000000E-01  8.50000000E-01
  8.50000000E-01  8.00000000E-01  8.50000000E-01  8.50000000E-01  8.50000000E-01
  8.00000000E-01  8.50000000E-01  8.50000000E-01  8.50000000E-01  8.00000000E-01
  8.50000000E-01  8.50000000E-01  8.50000000E-01  8.00000000E-01  8.50000000E-01
  8.50000000E-01  8.50000000E-01  8.00000000E-01  8.50000000E-01  8.50000000E-01
  8.50000000E-01  8.00000000E-01  8.50000000E-01  8.50000000E-01  8.50000000E-01
  8.00000000E-01  8.50000000E-01  8.50000000E-01  8.50000000E-01  8.00000000E-01
  8.50000000E-01  8.50000000E-01  8.50000000E-01  8.00000000E-01  8.50000000E-01
  8.50000000E-01  8.50000000E-01  8.00000000E-01  8.50000000E-01  8.50000000E-01
  8.50000000E-01  8.00000000E-01  8.50000000E-01  8.50000000E-01  8.50000000E-01
  8.00000000E-01  8.50000000E-01  8.50000000E-01  8.50000000E-01  8.00000000E-01
  8.50000000E-01  8.50000000E-01  8.50000000E-01  8.00000000E-01  8.50000000E-01
  8.50000000E-01  8.50000000E-01  8.00000000E-01  8.50000000E-01  8.50000000E-01
  8.50000000E-01  8.00000000E-01  8.50000000E-01  8.50000000E-01  8.50000000E-01
  8.00000000E-01  8.50000000E-01  8.50000000E-01  8.50000000E-01  8.00000000E-01
  8.50000000E-01  8.50000000E-01  8.50000000E-01  8.00000000E-01  8.50000000E-01
  8.50000000E-01  8.50000000E-01  8.00000000E-01  8.50000000E-01  8.50000000E-01
  8.50000000E-01  8.00000000E-01  8.50000000E-01  8.50000000E-01  8.50000000E-01
  8.00000000E-01  8.50000000E-01  8.50000000E-01  8.50000000E-01  8.00000000E-01
  8.50000000E-01  8.50000000E-01  8.50000000E-01  8.00000000E-01  8.50000000E-01
  8.50000000E-01  8.50000000E-01  8.00000000E-01  8.50000000E-01  8.50000000E-01
  8.50000000E-01  8.00000000E-01  8.50000000E-01  8.50000000E-01  8.50000000E-01
  8.00000000E-01  8.50000000E-01  8.50000000E-01  8.50000000E-01  8.00000000E-01
  8.50000000E-01  8.50000000E-01  8.50000000E-01  8.00000000E-01  8.50000000E-01
  8.50000000E-01  8.50000000E-01  8.00000000E-01  8.50000000E-01  8.50000000E-01
  8.50000000E-01  8.00000000E-01  8.50000000E-01  8.50000000E-01  8.50000000E-01
  8.00000000E-01  8.50000000E-01  8.50000000E-01  8.50000000E-01  8.00000000E-01
  8.50000000E-01  8.50000000E-01  8.50000000E-01  8.00000000E-01  8.50000000E-01
  8.50000000E-01  8.50000000E-01  8.00000000E-01  8.50000000E-01  8.50000000E-01
  8.50000000E-01  8.00000000E-01  8.50000000E-01  8.50000000E-01  8.50000000E-01
  8.00000000E-01  8.50000000E-01  8.50000000E-01  8.50000000E-01  8.00000000E-01
  8.50000000E-01  8.50000000E-01  8.50000000E-01  8.00000000E-01  8.50000000E-01
  8.50000000E-01  8.50000000E-01  8.00000000E-01  8.50000000E-01  8.50000000E-01
  8.50000000E-01  8.00000000E-01  8.50000000E-01  8.50000000E-01  8.50000000E-01
  8.00000000E-01  8.50000000E-01  8.50000000E-01  8.50000000E-01  8.00000000E-01
  8.50000000E-01  8.50000000E-01  8.50000000E-01  8.00000000E-01  8.50000000E-01
  8.50000000E-01  8.50000000E-01  8.00000000E-01  8.50000000E-01  8.50000000E-01
  8.50000000E-01  8.00000000E-01  8.50000000E-01  8.50000000E-01  8.50000000E-01
  8.00000000E-01  8.50000000E-01  8.50000000E-01  8.50000000E-01  8.00000000E-01
  8.50000000E-01  8.50000000E-01  8.50000000E-01  8.00000000E-01  8.50000000E-01
  8.50000000E-01  8.50000000E-01  8.00000000E-01  8.50000000E-01  8.50000000E-01
  8.50000000E-01  8.00000000E-01  8.50000000E-01  8.50000000E-01  8.50000000E-01
  8.00000000E-01  8.50000000E-01  8.50000000E-01  8.50000000E-01  8.00000000E-01
  8.50000000E-01  8.50000000E-01  8.50000000E-01  8.00000000E-01  8.50000000E-01
  8.50000000E-01  8.50000000E-01  8.00000000E-01  8.50000000E-01  8.50000000E-01
  8.50000000E-01  8.00000000E-01  8.50000000E-01  8.50000000E-01  8.50000000E-01
  8.00000000E-01  8.50000000E-01  8.50000000E-01  8.50000000E-01  8.00000000E-01
  8.50000000E-01  8.50000000E-01  8.50000000E-01  8.00000000E-01  8.50000000E-01
  8.50000000E-01  8.50000000E-01  8.00000000E-01  8.50000000E-01  8.50000000E-01
  8.50000000E-01  8.00000000E-01  8.50000000E-01  8.50000000E-01  8.50000000E-01
  8.00000000E-01  8.50000000E-01  8.50000000E-01  8.50000000E-01  8.00000000E-01
  8.50000000E-01  8.50000000E-01  8.50000000E-01  8.00000000E-01  8.50000000E-01
  8.50000000E-01  8.50000000E-01  8.00000000E-01  8.50000000E-01  8.50000000E-01
  8.50000000E-01  8.00000000E-01  8.50000000E-01  8.50000000E-01  8.50000000E-01
  8.00000000E-01  8.50000000E-01  8.50000000E-01  8.50000000E-01  8.00000000E-01
  8.50000000E-01  8.50000000E-01  8.50000000E-01  8.00000000E-01  8.50000000E-01
  8.50000000E-01  8.50000000E-01  8.00000000E-01  8.50000000E-01  8.50000000E-01
  8.50000000E-01  8.00000000E-01  8.50000000E-01  8.50000000E-01  8.50000000E-01
  8.00000000E-01  8.50000000E-01  8.50000000E-01  8.50000000E-01  8.00000000E-01
  8.50000000E-01  8.50000000E-01  8.50000000E-01  8.00000000E-01  8.50000000E-01
  8.50000000E-01  8.50000000E-01  8.00000000E-01  8.50000000E-01  8.50000000E-01
  8.50000000E-01  8.00000000E-01  8.50000000E-01  8.50000000E-01  8.50000000E-01
  8.00000000E-01  8.50000000E-01  8.50000000E-01  8.50000000E-01  8.00000000E-01
  8.50000000E-01  8.50000000E-01  8.50000000E-01  8.00000000E-01  8.50000000E-01
  8.50000000E-01  8.50000000E-01  8.00000000E-01  8.50000000E-01  8.50000000E-01
  8.50000000E-01  8.00000000E-01  8.50000000E-01  8.50000000E-01  8.50000000E-01
  8.00000000E-01  8.50000000E-01  8.50000000E-01  8.50000000E-01  8.00000000E-01
  8.50000000E-01  8.50000000E-01  8.50000000E-01  8.00000000E-01  8.50000000E-01
  8.50000000E-01  8.50000000E-01  8.00000000E-01  8.50000000E-01  8.50000000E-01
  8.50000000E-01  8.00000000E-01  8.50000000E-01  8.50000000E-01  8.50000000E-01
  8.00000000E-01  8.50000000E-01  8.50000000E-01  8.50000000E-01  8.00000000E-01
  8.50000000E-01  8.50000000E-01  8.50000000E-01  8.00000000E-01  8.50000000E-01
  8.50000000E-01  8.50000000E-01  8.00000000E-01  8.50000000E-01  8.50000000E-01
  8.50000000E-01  8.00000000E-01  8.50000000E-01  8.50000000E-01  8.50000000E-01
  8.00000000E-01  8.50000000E-01  8.50000000E-01  8.50000000E-01  8.00000000E-01
  8.50000000E-01  8.50000000E-01  8.50000000E-01  8.00000000E-01  8.50000000E-01
  8.50000000E-01  8.50000000E-01  8.00000000E-01  8.50000000E-01  8.50000000E-01
  8.50000000E-01  8.00000000E-01  8.50000000E-01  8.50000000E-01  8.50000000E-01
  8.00000000E-01  8.50000000E-01  8.50000000E-01  8.50000000E-01  8.00000000E-01
  8.50000000E-01  8.50000000E-01  8.50000000E-01  8.00000000E-01  8.50000000E-01
  8.50000000E-01  8.50000000E-01  8.00000000E-01  8.50000000E-01  8.50000000E-01
  8.50000000E-01  8.00000000E-01  8.50000000E-01  8.50000000E-01  8.50000000E-01
  8.00000000E-01  8.50000000E-01  8.50000000E-01  8.50000000E-01  8.00000000E-01
  8.50000000E-01  8.50000000E-01  8.50000000E-01  8.00000000E-01  8.50000000E-01
  8.50000000E-01  8.50000000E-01  8.00000000E-01  8.50000000E-01  8.50000000E-01
  8.50000000E-01  8.00000000E-01  8.50000000E-01  8.50000000E-01  8.50000000E-01
  8.00000000E-01  8.50000000E-01  8.50000000E-01  8.50000000E-01  8.00000000E-01
  8.50000000E-01  8.50000000E-01  8.50000000E-01  8.00000000E-01  8.50000000E-01
  8.50000000E-01  8.50000000E-01  8.00000000E-01  8.50000000E-01  8.50000000E-01
  8.50000000E-01  8.00000000E-01  8.50000000E-01  8.50000000E-01  8.50000000E-01
  8.00000000E-01  8.50000000E-01  8.50000000E-01  8.50000000E-01  8.00000000E-01
  8.50000000E-01  8.50000000E-01  8.50000000E-01  8.00000000E-01  8.50000000E-01
  8.50000000E-01  8.50000000E-01  8.00000000E-01  8.50000000E-01  8.50000000E-01
  8.50000000E-01  8.00000000E-01  8.50000000E-01  8.50000000E-01  8.50000000E-01
  8.00000000E-01  8.50000000E-01  8.50000000E-01  8.50000000E-01  8.00000000E-01
  8.50000000E-01  8.50000000E-01  8.50000000E-01  8.00000000E-01  8.50000000E-01
  8.50000000E-01  8.50000000E-01  8.00000000E-01  8.50000000E-01  8.50000000E-01
  8.50000000E-01  8.00000000E-01  8.50000000E-01  8.50000000E-01  8.50000000E-01
  8.00000000E-01  8.50000000E-01  8.50000000E-01  8.50000000E-01  8.00000000E-01
  8.50000000E-01  8.50000000E-01  8.50000000E-01  8.00000000E-01  8.50000000E-01
  8.50000000E-01  8.50000000E-01  8.00000000E-01  8.50000000E-01  8.50000000E-01
  8.50000000E-01  8.00000000E-01  8.50000000E-01  8.50000000E-01  8.50000000E-01
  8.00000000E-01  8.50000000E-01  8.50000000E-01  8.50000000E-01  8.00000000E-01
  8.50000000E-01  8.50000000E-01  8.50000000E-01  8.00000000E-01  8.50000000E-01
  8.50000000E-01  8.50000000E-01  8.00000000E-01  8.50000000E-01  8.50000000E-01
  8.50000000E-01  8.00000000E-01  8.50000000E-01  8.50000000E-01  8.50000000E-01
  8.00000000E-01  8.50000000E-01  8.50000000E-01  8.50000000E-01  8.00000000E-01
  8.50000000E-01  8.50000000E-01  8.50000000E-01  8.00000000E-01  8.50000000E-01
  8.50000000E-01  8.50000000E-01  8.00000000E-01  8.50000000E-01  8.50000000E-01
  8.50000000E-01  8.00000000E-01  8.50000000E-01  8.50000000E-01  8.50000000E-01
  8.00000000E-01  8.50000000E-01  8.50000000E-01  8.50000000E-01  8.00000000E-01
  8.50000000E-01  8.50000000E-01  8.50000000E-01  8.00000000E-01  8.50000000E-01
  8.50000000E-01  8.50000000E-01  8.00000000E-01  8.50000000E-01  8.50000000E-01
  8.50000000E-01  8.00000000E-01  8.50000000E-01  8.50000000E-01  8.50000000E-01
  8.00000000E-01  8.50000000E-01  8.50000000E-01  8.50000000E-01  8.00000000E-01
  8.50000000E-01  8.50000000E-01  8.50000000E-01  8.00000000E-01  8.50000000E-01
  8.50000000E-01  8.50000000E-01  8.00000000E-01  8.50000000E-01  8.50000000E-01
  8.50000000E-01  8.00000000E-01  8.50000000E-01  8.50000000E-01  8.50000000E-01
  8.00000000E-01  8.50000000E-01  8.50000000E-01  8.50000000E-01  8.00000000E-01
  8.50000000E-01  8.50000000E-01  8.50000000E-01  8.00000000E-01  8.50000000E-01
  8.50000000E-01  8.50000000E-01  8.00000000E-01  8.50000000E-01  8.50000000E-01
  8.50000000E-01  8.00000000E-01  8.50000000E-01  8.50000000E-01  8.50000000E-01
  8.00000000E-01  8.50000000E-01  8.50000000E-01  8.50000000E-01  8.00000000E-01
  8.50000000E-01  8.50000000E-01  8.50000000E-01  8.00000000E-01  8.50000000E-01
  8.50000000E-01  8.50000000E-01  8.00000000E-01  8.50000000E-01  8.50000000E-01
  8.50000000E-01  8.00000000E-01  8.50000000E-01  8.50000000E-01  8.50000000E-01
  8.00000000E-01  8.50000000E-01  8.50000000E-01  8.50000000E-01  8.00000000E-01
  8.50000000E-01  8.50000000E-01  8.50000000E-01  8.00000000E-01  8.50000000E-01
  8.50000000E-01  8.50000000E-01  8.00000000E-01  8.50000000E-01  8.50000000E-01
  8.50000000E-01  8.00000000E-01  8.50000000E-01  8.50000000E-01  8.50000000E-01
  8.00000000E-01  8.50000000E-01  8.50000000E-01  8.50000000E-01  8.00000000E-01
  8.50000000E-01  8.50000000E-01  8.50000000E-01  8.00000000E-01  8.50000000E-01
  8.50000000E-01  8.50000000E-01  8.00000000E-01  8.50000000E-01  8.50000000E-01
  8.50000000E-01  8.00000000E-01  8.50000000E-01  8.50000000E-01  8.50000000E-01
  8.00000000E-01  8.50000000E-01  8.50000000E-01  8.50000000E-01  8.00000000E-01
  8.50000000E-01  8.50000000E-01  8.50000000E-01  8.00000000E-01  8.50000000E-01
  8.50000000E-01  8.50000000E-01  8.00000000E-01  8.50000000E-01  8.50000000E-01
  8.50000000E-01  8.00000000E-01  8.50000000E-01  8.50000000E-01  8.50000000E-01
  8.00000000E-01  8.50000000E-01  8.50000000E-01  8.50000000E-01  8.00000000E-01
  8.50000000E-01  8.50000000E-01  8.50000000E-01  8.00000000E-01  8.50000000E-01
  8.50000000E-01  8.50000000E-01  8.00000000E-01  8.50000000E-01  8.50000000E-01
  8.50000000E-01  8.00000000E-01  8.50000000E-01  8.50000000E-01  8.50000000E-01
  8.00000000E-01  8.50000000E-01  8.50000000E-01  8.50000000E-01  8.00000000E-01
  8.50000000E-01  8.50000000E-01  8.50000000E-01  8.00000000E-01  8.50000000E-01
  8.50000000E-01  8.50000000E-01  8.00000000E-01  8.50000000E-01  8.50000000E-01
  8.50000000E-01  8.00000000E-01  8.50000000E-01  8.50000000E-01  8.50000000E-01
  8.00000000E-01  8.50000000E-01  8.50000000E-01  8.50000000E-01  8.00000000E-01
  8.50000000E-01  8.50000000E-01  8.50000000E-01  8.00000000E-01  8.50000000E-01
  8.50000000E-01  8.50000000E-01  8.00000000E-01  8.50000000E-01  8.50000000E-01
  8.50000000E-01  8.00000000E-01  8.50000000E-01  8.50000000E-01  8.50000000E-01
  8.00000000E-01  8.50000000E-01  8.50000000E-01  8.50000000E-01  8.00000000E-01
  8.50000000E-01  8.50000000E-01  8.50000000E-01  8.00000000E-01  8.50000000E-01
  8.50000000E-01  8.50000000E-01  8.00000000E-01  8.50000000E-01  8.50000000E-01
  8.50000000E-01  8.00000000E-01  8.50000000E-01  8.50000000E-01  8.50000000E-01
  8.00000000E-01  8.50000000E-01  8.50000000E-01  8.50000000E-01  8.00000000E-01
  8.50000000E-01  8.50000000E-01  8.50000000E-01  8.00000000E-01  8.50000000E-01
  8.50000000E-01  8.50000000E-01  8.00000000E-01  8.50000000E-01  8.50000000E-01
  8.50000000E-01  8.00000000E-01  8.50000000E-01  8.50000000E-01  8.50000000E-01
  8.00000000E-01  8.50000000E-01  8.50000000E-01  8.50000000E-01  8.00000000E-01
  8.50000000E-01  8.50000000E-01  8.50000000E-01  8.00000000E-01  8.50000000E-01
  8.50000000E-01  8.50000000E-01  8.00000000E-01  8.50000000E-01  8.50000000E-01
  8.50000000E-01  8.00000000E-01  8.50000000E-01  8.50000000E-01  8.50000000E-01
  8.00000000E-01  8.50000000E-01  8.50000000E-01  8.50000000E-01  8.00000000E-01
  8.50000000E-01  8.50000000E-01  8.50000000E-01  8.00000000E-01  8.50000000E-01
  8.50000000E-01  8.50000000E-01  8.00000000E-01  8.50000000E-01  8.50000000E-01
  8.50000000E-01  8.00000000E-01  8.50000000E-01  8.50000000E-01  8.50000000E-01
  8.00000000E-01  8.50000000E-01  8.50000000E-01  8.50000000E-01  8.00000000E-01
  8.50000000E-01  8.50000000E-01  8.50000000E-01  8.00000000E-01  8.50000000E-01
  8.50000000E-01  8.50000000E-01  8.00000000E-01  8.50000000E-01  8.50000000E-01
  8.50000000E-01  8.00000000E-01  8.50000000E-01  8.50000000E-01  8.50000000E-01
  8.00000000E-01  8.50000000E-01  8.50000000E-01  8.50000000E-01  8.00000000E-01
  8.50000000E-01  8.50000000E-01  8.50000000E-01  8.00000000E-01  8.50000000E-01
  8.50000000E-01  8.50000000E-01  8.00000000E-01  8.50000000E-01  8.50000000E-01
  8.50000000E-01  8.00000000E-01  8.50000000E-01  8.50000000E-01  8.50000000E-01
  8.00000000E-01  8.50000000E-01  8.50000000E-01  8.50000000E-01  8.00000000E-01
  8.50000000E-01  8.50000000E-01  8.50000000E-01  8.00000000E-01  8.50000000E-01
  8.50000000E-01  8.50000000E-01  8.00000000E-01  8.50000000E-01  8.50000000E-01
  8.50000000E-01  8.00000000E-01  8.50000000E-01  8.50000000E-01  8.50000000E-01
  8.00000000E-01  8.50000000E-01  8.50000000E-01  8.50000000E-01  8.00000000E-01
  8.50000000E-01  8.50000000E-01  8.50000000E-01  8.00000000E-01  8.50000000E-01
  8.50000000E-01  8.50000000E-01  8.00000000E-01  8.50000000E-01  8.50000000E-01
  8.50000000E-01  8.00000000E-01  8.50000000E-01  8.50000000E-01  8.50000000E-01
  8.00000000E-01  8.50000000E-01  8.50000000E-01  8.50000000E-01  8.00000000E-01
  8.50000000E-01  8.50000000E-01  8.50000000E-01  8.00000000E-01  8.50000000E-01
  8.50000000E-01  8.50000000E-01  8.00000000E-01  8.50000000E-01  8.50000000E-01
  8.50000000E-01  8.00000000E-01  8.50000000E-01  8.50000000E-01  8.50000000E-01
  8.00000000E-01  8.50000000E-01  8.50000000E-01  8.50000000E-01  8.00000000E-01
  8.50000000E-01  8.50000000E-01  8.50000000E-01  8.00000000E-01  8.50000000E-01
  8.50000000E-01  8.50000000E-01  8.00000000E-01  8.50000000E-01  8.50000000E-01
  8.50000000E-01  8.00000000E-01  8.50000000E-01  8.50000000E-01  8.50000000E-01
  8.00000000E-01  8.50000000E-01  8.50000000E-01  8.50000000E-01  8.00000000E-01
  8.50000000E-01  8.50000000E-01  8.50000000E-01  8.00000000E-01  8.50000000E-01
  8.50000000E-01  8.50000000E-01  8.00000000E-01  8.50000000E-01  8.50000000E-01
  8.50000000E-01  8.00000000E-01  8.50000000E-01  8.50000000E-01  8.50000000E-01
  8.00000000E-01  8.50000000E-01  8.50000000E-01  8.50000000E-01  8.00000000E-01
  8.50000000E-01  8.50000000E-01  8.50000000E-01  8.00000000E-01  8.50000000E-01
  8.50000000E-01  8.50000000E-01  8.00000000E-01  8.50000000E-01  8.50000000E-01
  8.50000000E-01  8.00000000E-01  8.50000000E-01  8.50000000E-01  8.50000000E-01
  8.00000000E-01  8.50000000E-01  8.50000000E-01  8.50000000E-01  8.00000000E-01
  8.50000000E-01  8.50000000E-01  8.50000000E-01  8.00000000E-01  8.50000000E-01
  8.50000000E-01  8.50000000E-01  8.00000000E-01  8.50000000E-01  8.50000000E-01
  8.50000000E-01  8.00000000E-01  8.50000000E-01  8.50000000E-01  8.50000000E-01
  8.00000000E-01  8.50000000E-01  8.50000000E-01  8.50000000E-01  8.00000000E-01
  8.50000000E-01  8.50000000E-01  8.50000000E-01  8.00000000E-01  8.50000000E-01
  8.50000000E-01  8.50000000E-01  8.00000000E-01  8.50000000E-01  8.50000000E-01
  8.50000000E-01  8.00000000E-01  8.50000000E-01  8.50000000E-01  8.50000000E-01
  8.00000000E-01  8.50000000E-01  8.50000000E-01  8.50000000E-01  8.00000000E-01
  8.50000000E-01  8.50000000E-01  8.50000000E-01  8.00000000E-01  8.50000000E-01
  8.50000000E-01  8.50000000E-01  8.00000000E-01  8.50000000E-01  8.50000000E-01
  8.50000000E-01  8.00000000E-01  8.50000000E-01  8.50000000E-01  8.50000000E-01
  8.00000000E-01  8.50000000E-01  8.50000000E-01  8.50000000E-01  8.00000000E-01
  8.50000000E-01  8.50000000E-01  8.50000000E-01  8.00000000E-01  8.50000000E-01
  8.50000000E-01  8.50000000E-01  8.00000000E-01  8.50000000E-01  8.50000000E-01
  8.50000000E-01  8.00000000E-01  8.50000000E-01  8.50000000E-01  8.50000000E-01
  8.00000000E-01  8.50000000E-01  8.50000000E-01  8.50000000E-01  8.00000000E-01
  8.50000000E-01  8.50000000E-01  8.50000000E-01  8.00000000E-01  8.50000000E-01
  8.50000000E-01  8.50000000E-01  8.00000000E-01  8.50000000E-01  8.50000000E-01
  8.50000000E-01  8.00000000E-01  8.50000000E-01  8.50000000E-01  8.50000000E-01
  8.00000000E-01  8.50000000E-01  8.50000000E-01  8.50000000E-01  8.00000000E-01
  8.50000000E-01  8.50000000E-01  8.50000000E-01  8.00000000E-01  8.50000000E-01
  8.50000000E-01  8.50000000E-01  8.00000000E-01  8.50000000E-01  8.50000000E-01
  8.50000000E-01  8.00000000E-01  8.50000000E-01  8.50000000E-01  8.50000000E-01
  8.00000000E-01  8.50000000E-01  8.50000000E-01  8.50000000E-01  8.00000000E-01
  8.50000000E-01  8.50000000E-01  8.50000000E-01  8.00000000E-01  8.50000000E-01
  8.50000000E-01  8.50000000E-01  8.00000000E-01  8.50000000E-01  8.50000000E-01
  8.50000000E-01  8.00000000E-01  8.50000000E-01  8.50000000E-01  8.50000000E-01
  8.00000000E-01  8.50000000E-01  8.50000000E-01  8.50000000E-01  8.00000000E-01
  8.50000000E-01  8.50000000E-01  8.50000000E-01  8.00000000E-01  8.50000000E-01
  8.50000000E-01  8.50000000E-01  8.00000000E-01  8.50000000E-01  8.50000000E-01
  8.50000000E-01  8.00000000E-01  8.50000000E-01  8.50000000E-01  8.50000000E-01
  8.00000000E-01  8.50000000E-01  8.50000000E-01  8.50000000E-01  8.00000000E-01
  8.50000000E-01  8.50000000E-01  8.50000000E-01  8.00000000E-01  8.50000000E-01
  8.50000000E-01  8.50000000E-01  8.00000000E-01  8.50000000E-01  8.50000000E-01
  8.50000000E-01  8.00000000E-01  8.50000000E-01  8.50000000E-01  8.50000000E-01
  8.00000000E-01  8.50000000E-01  8.50000000E-01  8.50000000E-01  8.00000000E-01
  8.50000000E-01  8.50000000E-01  8.50000000E-01  8.00000000E-01  8.50000000E-01
  8.50000000E-01  8.50000000E-01  8.00000000E-01  8.50000000E-01  8.50000000E-01
  8.50000000E-01  8.00000000E-01  8.50000000E-01  8.50000000E-01  8.50000000E-01
  8.00000000E-01  8.50000000E-01  8.50000000E-01  8.50000000E-01  8.00000000E-01
  8.50000000E-01  8.50000000E-01  8.50000000E-01  8.00000000E-01  8.50000000E-01
  8.50000000E-01  8.50000000E-01  8.00000000E-01  8.50000000E-01  8.50000000E-01
  8.50000000E-01  8.00000000E-01  8.50000000E-01  8.50000000E-01  8.50000000E-01
  8.00000000E-01  8.50000000E-01  8.50000000E-01  8.50000000E-01  8.00000000E-01
  8.50000000E-01  8.50000000E-01  8.50000000E-01  8.00000000E-01  8.50000000E-01
  8.50000000E-01  8.50000000E-01  8.00000000E-01  8.50000000E-01  8.50000000E-01
  8.50000000E-01  8.00000000E-01  8.50000000E-01  8.50000000E-01  8.50000000E-01
  8.00000000E-01  8.50000000E-01  8.50000000E-01  8.50000000E-01  8.00000000E-01
  8.50000000E-01  8.50000000E-01  8.50000000E-01  8.00000000E-01  8.50000000E-01
  8.50000000E-01  8.50000000E-01  8.00000000E-01  8.50000000E-01  8.50000000E-01
  8.50000000E-01  8.00000000E-01  8.50000000E-01  8.50000000E-01  8.50000000E-01
  8.00000000E-01  8.50000000E-01  8.50000000E-01  8.50000000E-01  8.00000000E-01
  8.50000000E-01  8.50000000E-01  8.50000000E-01  8.00000000E-01  8.50000000E-01
  8.50000000E-01  8.50000000E-01  8.00000000E-01  8.50000000E-01  8.50000000E-01
  8.50000000E-01  8.00000000E-01  8.50000000E-01  8.50000000E-01  8.50000000E-01
  8.00000000E-01  8.50000000E-01  8.50000000E-01  8.50000000E-01  8.00000000E-01
  8.50000000E-01  8.50000000E-01  8.50000000E-01  8.00000000E-01  8.50000000E-01
  8.50000000E-01  8.50000000E-01  8.00000000E-01  8.50000000E-01  8.50000000E-01
  8.50000000E-01  8.00000000E-01  8.50000000E-01  8.50000000E-01  8.50000000E-01
  8.00000000E-01  8.50000000E-01  8.50000000E-01  8.50000000E-01  8.00000000E-01
  8.50000000E-01  8.50000000E-01  8.50000000E-01  8.00000000E-01  8.50000000E-01
  8.50000000E-01  8.50000000E-01  8.00000000E-01  8.50000000E-01  8.50000000E-01
  8.50000000E-01  8.00000000E-01  8.50000000E-01  8.50000000E-01  8.50000000E-01
  8.00000000E-01  8.50000000E-01  8.50000000E-01  8.50000000E-01  8.00000000E-01
  8.50000000E-01  8.50000000E-01  8.50000000E-01  8.00000000E-01  8.50000000E-01
  8.50000000E-01  8.50000000E-01  8.00000000E-01  8.50000000E-01  8.50000000E-01
  8.50000000E-01  8.00000000E-01  8.50000000E-01  8.50000000E-01  8.50000000E-01
  8.00000000E-01  8.50000000E-01  8.50000000E-01  8.50000000E-01  8.00000000E-01
  8.50000000E-01  8.50000000E-01  8.50000000E-01  8.00000000E-01  8.50000000E-01
  8.50000000E-01  8.50000000E-01  8.00000000E-01  8.50000000E-01  8.50000000E-01
  8.50000000E-01  8.00000000E-01  8.50000000E-01  8.50000000E-01  8.50000000E-01
  8.00000000E-01  8.50000000E-01  8.50000000E-01  8.50000000E-01  8.00000000E-01
  8.50000000E-01  8.50000000E-01  8.50000000E-01  8.00000000E-01  8.50000000E-01
  8.50000000E-01  8.50000000E-01  8.00000000E-01  8.50000000E-01  8.50000000E-01
  8.50000000E-01  8.00000000E-01  8.50000000E-01  8.50000000E-01  8.50000000E-01
  8.00000000E-01  8.50000000E-01  8.50000000E-01  8.50000000E-01  8.00000000E-01
  8.50000000E-01  8.50000000E-01  8.50000000E-01  8.00000000E-01  8.50000000E-01
  8.50000000E-01  8.50000000E-01  8.00000000E-01  8.50000000E-01  8.50000000E-01
  8.50000000E-01  8.00000000E-01  8.50000000E-01  8.50000000E-01  8.50000000E-01
  8.00000000E-01  8.50000000E-01  8.50000000E-01  8.50000000E-01  8.00000000E-01
  8.50000000E-01  8.50000000E-01  8.50000000E-01  8.00000000E-01  8.50000000E-01
  8.50000000E-01  8.50000000E-01  8.00000000E-01  8.50000000E-01  8.50000000E-01
  8.50000000E-01  8.00000000E-01  8.50000000E-01  8.50000000E-01  8.50000000E-01
  8.00000000E-01  8.50000000E-01  8.50000000E-01  8.50000000E-01  8.00000000E-01
  8.50000000E-01  8.50000000E-01  8.50000000E-01  8.00000000E-01  8.50000000E-01
  8.50000000E-01  8.50000000E-01  8.00000000E-01  8.50000000E-01  8.50000000E-01
  8.50000000E-01  8.00000000E-01  8.50000000E-01  8.50000000E-01  8.50000000E-01
  8.00000000E-01  8.50000000E-01  8.50000000E-01  8.50000000E-01  8.00000000E-01
  8.50000000E-01  8.50000000E-01  8.50000000E-01  8.00000000E-01  8.50000000E-01
  8.50000000E-01  8.50000000E-01  8.00000000E-01  8.50000000E-01  8.50000000E-01
  8.50000000E-01  8.00000000E-01  8.50000000E-01  8.50000000E-01  8.50000000E-01
  8.00000000E-01  8.50000000E-01  8.50000000E-01  8.50000000E-01  8.00000000E-01
  8.50000000E-01  8.50000000E-01  8.50000000E-01  8.00000000E-01  8.50000000E-01
  8.50000000E-01  8.50000000E-01  8.00000000E-01  8.50000000E-01  8.50000000E-01
  8.50000000E-01  8.00000000E-01  8.50000000E-01  8.50000000E-01  8.50000000E-01
  8.00000000E-01  8.50000000E-01  8.50000000E-01  8.50000000E-01  8.00000000E-01
  8.50000000E-01  8.50000000E-01  8.50000000E-01  8.00000000E-01  8.50000000E-01
  8.50000000E-01  8.50000000E-01  8.00000000E-01  8.50000000E-01  8.50000000E-01
  8.50000000E-01  8.00000000E-01  8.50000000E-01  8.50000000E-01  8.50000000E-01
  8.00000000E-01  8.50000000E-01  8.50000000E-01  8.50000000E-01  8.00000000E-01
  8.50000000E-01  8.50000000E-01  8.50000000E-01  8.00000000E-01  8.50000000E-01
  8.50000000E-01  8.50000000E-01  8.00000000E-01  8.50000000E-01  8.50000000E-01
  8.50000000E-01  8.00000000E-01  8.50000000E-01  8.50000000E-01  8.50000000E-01
  8.00000000E-01  8.50000000E-01  8.50000000E-01  8.50000000E-01  8.00000000E-01
  8.50000000E-01  8.50000000E-01  8.50000000E-01  8.00000000E-01  8.50000000E-01
  8.50000000E-01  8.50000000E-01  8.00000000E-01  8.50000000E-01  8.50000000E-01
  8.50000000E-01  8.00000000E-01  8.50000000E-01  8.50000000E-01  8.50000000E-01
  8.00000000E-01  8.50000000E-01  8.50000000E-01  8.50000000E-01  8.00000000E-01
  8.50000000E-01  8.50000000E-01  8.50000000E-01  8.00000000E-01  8.50000000E-01
  8.50000000E-01  8.50000000E-01  8.00000000E-01  8.50000000E-01  8.50000000E-01
  8.50000000E-01  8.00000000E-01  8.50000000E-01  8.50000000E-01  8.50000000E-01
  8.00000000E-01  8.50000000E-01  8.50000000E-01  8.50000000E-01  8.00000000E-01
  8.50000000E-01  8.50000000E-01  8.50000000E-01  8.00000000E-01  8.50000000E-01
  8.50000000E-01  8.50000000E-01  8.00000000E-01  8.50000000E-01  8.50000000E-01
  8.50000000E-01  8.00000000E-01  8.50000000E-01  8.50000000E-01  8.50000000E-01
  8.00000000E-01  8.50000000E-01  8.50000000E-01  8.50000000E-01  8.00000000E-01
  8.50000000E-01  8.50000000E-01  8.50000000E-01  8.00000000E-01  8.50000000E-01
  8.50000000E-01  8.50000000E-01  8.00000000E-01  8.50000000E-01  8.50000000E-01
  8.50000000E-01  8.00000000E-01  8.50000000E-01  8.50000000E-01  8.50000000E-01
  8.00000000E-01  8.50000000E-01  8.50000000E-01  8.50000000E-01  8.00000000E-01
  8.50000000E-01  8.50000000E-01  8.50000000E-01  8.00000000E-01  8.50000000E-01
  8.50000000E-01  8.50000000E-01  8.00000000E-01  8.50000000E-01  8.50000000E-01
  8.50000000E-01  8.00000000E-01  8.50000000E-01  8.50000000E-01  8.50000000E-01
  8.00000000E-01  8.50000000E-01  8.50000000E-01  8.50000000E-01  8.00000000E-01
  8.50000000E-01  8.50000000E-01  8.50000000E-01  8.00000000E-01  8.50000000E-01
  8.50000000E-01  8.50000000E-01  8.00000000E-01  8.50000000E-01  8.50000000E-01
  8.50000000E-01  8.00000000E-01  8.50000000E-01  8.50000000E-01  8.50000000E-01
  8.00000000E-01  8.50000000E-01  8.50000000E-01  8.50000000E-01  8.00000000E-01
  8.50000000E-01  8.50000000E-01  8.50000000E-01  8.00000000E-01  8.50000000E-01
  8.50000000E-01  8.50000000E-01  8.00000000E-01  8.50000000E-01  8.50000000E-01
  8.50000000E-01  8.00000000E-01  8.50000000E-01  8.50000000E-01  8.50000000E-01
  8.00000000E-01  8.50000000E-01  8.50000000E-01  8.50000000E-01  8.00000000E-01
  8.50000000E-01  8.50000000E-01  8.50000000E-01  8.00000000E-01  8.50000000E-01
  8.50000000E-01  8.50000000E-01  8.00000000E-01  8.50000000E-01  8.50000000E-01
  8.50000000E-01  8.00000000E-01  8.50000000E-01  8.50000000E-01  8.50000000E-01
  8.00000000E-01  8.50000000E-01  8.50000000E-01  8.50000000E-01  8.00000000E-01
  8.50000000E-01  8.50000000E-01  8.50000000E-01  8.00000000E-01  8.50000000E-01
  8.50000000E-01  8.50000000E-01  8.00000000E-01  8.50000000E-01  8.50000000E-01
  8.50000000E-01  8.00000000E-01  8.50000000E-01  8.50000000E-01  8.50000000E-01
  8.00000000E-01  8.50000000E-01  8.50000000E-01  8.50000000E-01  8.00000000E-01
  8.50000000E-01  8.50000000E-01  8.50000000E-01  8.00000000E-01  8.50000000E-01
  8.50000000E-01  8.50000000E-01  8.00000000E-01  8.50000000E-01  8.50000000E-01
  8.50000000E-01  8.00000000E-01  8.50000000E-01  8.50000000E-01  8.50000000E-01
  8.00000000E-01  8.50000000E-01  8.50000000E-01  8.50000000E-01  8.00000000E-01
  8.50000000E-01  8.50000000E-01  8.50000000E-01  8.00000000E-01  8.50000000E-01
  8.50000000E-01  8.50000000E-01  8.00000000E-01  8.50000000E-01  8.50000000E-01
  8.50000000E-01  8.00000000E-01  8.50000000E-01  8.50000000E-01  8.50000000E-01
  8.00000000E-01  8.50000000E-01  8.50000000E-01  8.50000000E-01  8.00000000E-01
  8.50000000E-01  8.50000000E-01  8.50000000E-01  8.00000000E-01  8.50000000E-01
  8.50000000E-01  8.50000000E-01  8.00000000E-01  8.50000000E-01  8.50000000E-01
  8.50000000E-01  8.00000000E-01  8.50000000E-01  8.50000000E-01  8.50000000E-01
  8.00000000E-01  8.50000000E-01  8.50000000E-01  8.50000000E-01  8.00000000E-01
  8.50000000E-01  8.50000000E-01  8.50000000E-01  8.00000000E-01  8.50000000E-01
  8.50000000E-01  8.50000000E-01  8.00000000E-01  8.50000000E-01  8.50000000E-01
  8.50000000E-01  8.00000000E-01  8.50000000E-01  8.50000000E-01  8.50000000E-01
  8.00000000E-01  8.50000000E-01  8.50000000E-01  8.50000000E-01  8.00000000E-01
  8.50000000E-01  8.50000000E-01  8.50000000E-01  8.00000000E-01  8.50000000E-01
  8.50000000E-01  8.50000000E-01  8.00000000E-01  8.50000000E-01  8.50000000E-01
  8.50000000E-01  8.00000000E-01  8.50000000E-01  8.50000000E-01  8.50000000E-01
  8.00000000E-01  8.50000000E-01  8.50000000E-01  8.50000000E-01  8.00000000E-01
  8.50000000E-01  8.50000000E-01  8.50000000E-01  8.00000000E-01  8.50000000E-01
  8.50000000E-01  8.50000000E-01  8.00000000E-01  8.50000000E-01  8.50000000E-01
  8.50000000E-01  8.00000000E-01  8.50000000E-01  8.50000000E-01  8.50000000E-01
  8.00000000E-01  8.50000000E-01  8.50000000E-01  8.50000000E-01  8.00000000E-01
  8.50000000E-01  8.50000000E-01  8.50000000E-01  8.00000000E-01  8.50000000E-01
  8.50000000E-01  8.50000000E-01  8.00000000E-01  8.50000000E-01  8.50000000E-01
  8.50000000E-01  8.00000000E-01  8.50000000E-01  8.50000000E-01  8.50000000E-01
  8.00000000E-01  8.50000000E-01  8.50000000E-01  8.50000000E-01  8.00000000E-01
  8.50000000E-01  8.50000000E-01  8.50000000E-01  8.00000000E-01  8.50000000E-01
  8.50000000E-01  8.50000000E-01  8.00000000E-01  8.50000000E-01  8.50000000E-01
  8.50000000E-01  8.00000000E-01  8.50000000E-01  8.50000000E-01  8.50000000E-01
  8.00000000E-01  8.50000000E-01  8.50000000E-01  8.50000000E-01  8.00000000E-01
  8.50000000E-01  8.50000000E-01  8.50000000E-01  8.00000000E-01  8.50000000E-01
  8.50000000E-01  8.50000000E-01  8.00000000E-01  8.50000000E-01  8.50000000E-01
  8.50000000E-01  8.00000000E-01  8.50000000E-01  8.50000000E-01  8.50000000E-01
  8.00000000E-01  8.50000000E-01  8.50000000E-01  8.50000000E-01  8.00000000E-01
  8.50000000E-01  8.50000000E-01  8.50000000E-01  8.00000000E-01  8.50000000E-01
  8.50000000E-01  8.50000000E-01  8.00000000E-01  8.50000000E-01  8.50000000E-01
  8.50000000E-01  8.00000000E-01  8.50000000E-01  8.50000000E-01  8.50000000E-01
  8.00000000E-01  8.50000000E-01  8.50000000E-01  8.50000000E-01  8.00000000E-01
  8.50000000E-01  8.50000000E-01  8.50000000E-01  8.00000000E-01  8.50000000E-01
  8.50000000E-01  8.50000000E-01  8.00000000E-01  8.50000000E-01  8.50000000E-01
  8.50000000E-01  8.00000000E-01  8.50000000E-01  8.50000000E-01  8.50000000E-01
  8.00000000E-01  8.50000000E-01  8.50000000E-01  8.50000000E-01  8.00000000E-01
  8.50000000E-01  8.50000000E-01  8.50000000E-01  8.00000000E-01  8.50000000E-01
  8.50000000E-01  8.50000000E-01  8.00000000E-01  8.50000000E-01  8.50000000E-01
  8.50000000E-01  8.00000000E-01  8.50000000E-01  8.50000000E-01  8.50000000E-01
  8.00000000E-01  8.50000000E-01  8.50000000E-01  8.50000000E-01  8.00000000E-01
  8.50000000E-01  8.50000000E-01  8.50000000E-01  8.00000000E-01  8.50000000E-01
  8.50000000E-01  8.50000000E-01  8.00000000E-01  8.50000000E-01  8.50000000E-01
  8.50000000E-01  8.00000000E-01  8.50000000E-01  8.50000000E-01  8.50000000E-01
  8.00000000E-01  8.50000000E-01  8.50000000E-01  8.50000000E-01  8.00000000E-01
  8.50000000E-01  8.50000000E-01  8.50000000E-01  8.00000000E-01  8.50000000E-01
  8.50000000E-01  8.50000000E-01  8.00000000E-01  8.50000000E-01  8.50000000E-01
  8.50000000E-01  8.00000000E-01  8.50000000E-01  8.50000000E-01  8.50000000E-01
  8.00000000E-01  8.50000000E-01  8.50000000E-01  8.50000000E-01  8.00000000E-01
  8.50000000E-01  8.50000000E-01  8.50000000E-01  8.00000000E-01  8.50000000E-01
  8.50000000E-01  8.50000000E-01  8.00000000E-01  8.50000000E-01  8.50000000E-01
  8.50000000E-01  8.00000000E-01  8.50000000E-01  8.50000000E-01  8.50000000E-01
  8.00000000E-01  8.50000000E-01  8.50000000E-01  8.50000000E-01  8.00000000E-01
  8.50000000E-01  8.50000000E-01  8.50000000E-01  8.00000000E-01  8.50000000E-01
  8.50000000E-01  8.50000000E-01  8.00000000E-01  8.50000000E-01  8.50000000E-01
  8.50000000E-01  8.00000000E-01  8.50000000E-01  8.50000000E-01  8.50000000E-01
  8.00000000E-01  8.50000000E-01  8.50000000E-01  8.50000000E-01  8.00000000E-01
  8.50000000E-01  8.50000000E-01  8.50000000E-01  8.00000000E-01  8.50000000E-01
  8.50000000E-01  8.50000000E-01  8.00000000E-01  8.50000000E-01  8.50000000E-01
  8.50000000E-01  8.00000000E-01  8.50000000E-01  8.50000000E-01  8.50000000E-01
  8.00000000E-01  8.50000000E-01  8.50000000E-01  8.50000000E-01  8.00000000E-01
  8.50000000E-01  8.50000000E-01  8.50000000E-01  8.00000000E-01  8.50000000E-01
  8.50000000E-01  8.50000000E-01  8.00000000E-01  8.50000000E-01  8.50000000E-01
  8.50000000E-01  8.00000000E-01  8.50000000E-01  8.50000000E-01  8.50000000E-01
  8.00000000E-01  8.50000000E-01  8.50000000E-01  8.50000000E-01  8.00000000E-01
  8.50000000E-01  8.50000000E-01  8.50000000E-01  8.00000000E-01  8.50000000E-01
  8.50000000E-01  8.50000000E-01  8.00000000E-01  8.50000000E-01  8.50000000E-01
  8.50000000E-01  8.00000000E-01  8.50000000E-01  8.50000000E-01  8.50000000E-01
  8.00000000E-01  8.50000000E-01  8.50000000E-01  8.50000000E-01  8.00000000E-01
  8.50000000E-01  8.50000000E-01  8.50000000E-01  8.00000000E-01  8.50000000E-01
  8.50000000E-01  8.50000000E-01  8.00000000E-01  8.50000000E-01  8.50000000E-01
  8.50000000E-01  8.00000000E-01  8.50000000E-01  8.50000000E-01  8.50000000E-01
  8.00000000E-01  8.50000000E-01  8.50000000E-01  8.50000000E-01  8.00000000E-01
  8.50000000E-01  8.50000000E-01  8.50000000E-01  8.00000000E-01  8.50000000E-01
  8.50000000E-01  8.50000000E-01  8.00000000E-01  8.50000000E-01  8.50000000E-01
  8.50000000E-01  8.00000000E-01  8.50000000E-01  8.50000000E-01  8.50000000E-01
  8.00000000E-01  8.50000000E-01  8.50000000E-01  8.50000000E-01  8.00000000E-01
  8.50000000E-01  8.50000000E-01  8.50000000E-01  8.00000000E-01  8.50000000E-01
  8.50000000E-01  8.50000000E-01  8.00000000E-01  8.50000000E-01  8.50000000E-01
  8.50000000E-01  8.00000000E-01  8.50000000E-01  8.50000000E-01  8.50000000E-01
  8.00000000E-01  8.50000000E-01  8.50000000E-01  8.50000000E-01  8.00000000E-01
  8.50000000E-01  8.50000000E-01  8.50000000E-01  8.00000000E-01  8.50000000E-01
  8.50000000E-01  8.50000000E-01  8.00000000E-01  8.50000000E-01  8.50000000E-01
  8.50000000E-01  8.00000000E-01  8.50000000E-01  8.50000000E-01  8.50000000E-01
  8.00000000E-01  8.50000000E-01  8.50000000E-01  8.50000000E-01  8.00000000E-01
  8.50000000E-01  8.50000000E-01  8.50000000E-01  8.00000000E-01  8.50000000E-01
  8.50000000E-01  8.50000000E-01  8.00000000E-01  8.50000000E-01  8.50000000E-01
  8.50000000E-01  8.00000000E-01  8.50000000E-01  8.50000000E-01  8.50000000E-01
  8.00000000E-01  8.50000000E-01  8.50000000E-01  8.50000000E-01  8.00000000E-01
  8.50000000E-01  8.50000000E-01  8.50000000E-01  8.00000000E-01  8.50000000E-01
  8.50000000E-01  8.50000000E-01  8.00000000E-01  8.50000000E-01  8.50000000E-01
  8.50000000E-01  8.00000000E-01  8.50000000E-01  8.50000000E-01  8.50000000E-01
  8.00000000E-01  8.50000000E-01  8.50000000E-01  8.50000000E-01  8.00000000E-01
  8.50000000E-01  8.50000000E-01  8.50000000E-01  8.00000000E-01  8.50000000E-01
  8.50000000E-01  8.50000000E-01  8.00000000E-01  8.50000000E-01  8.50000000E-01
  8.50000000E-01  8.00000000E-01  8.50000000E-01  8.50000000E-01  8.50000000E-01
  8.00000000E-01  8.50000000E-01  8.50000000E-01  8.50000000E-01  8.00000000E-01
  8.50000000E-01  8.50000000E-01  8.50000000E-01  8.00000000E-01  8.50000000E-01
  8.50000000E-01  8.50000000E-01  8.00000000E-01  8.50000000E-01  8.50000000E-01
  8.50000000E-01  8.00000000E-01  8.50000000E-01  8.50000000E-01  8.50000000E-01
  8.00000000E-01  8.50000000E-01  8.50000000E-01  8.50000000E-01  8.00000000E-01
  8.50000000E-01  8.50000000E-01  8.50000000E-01  8.00000000E-01  8.50000000E-01
  8.50000000E-01  8.50000000E-01  8.00000000E-01  8.50000000E-01  8.50000000E-01
  8.50000000E-01  8.00000000E-01  8.50000000E-01  8.50000000E-01  8.50000000E-01
  8.00000000E-01  8.50000000E-01  8.50000000E-01  8.50000000E-01  8.00000000E-01
  8.50000000E-01  8.50000000E-01  8.50000000E-01  8.00000000E-01  8.50000000E-01
  8.50000000E-01  8.50000000E-01  8.00000000E-01  8.50000000E-01  8.50000000E-01
  8.50000000E-01  8.00000000E-01  8.50000000E-01  8.50000000E-01  8.50000000E-01
  8.00000000E-01  8.50000000E-01  8.50000000E-01  8.50000000E-01  8.00000000E-01
  8.50000000E-01  8.50000000E-01  8.50000000E-01  8.00000000E-01  8.50000000E-01
  8.50000000E-01  8.50000000E-01  8.00000000E-01  8.50000000E-01  8.50000000E-01
  8.50000000E-01  8.00000000E-01  8.50000000E-01  8.50000000E-01  8.50000000E-01
  8.00000000E-01  8.50000000E-01  8.50000000E-01  8.50000000E-01  8.00000000E-01
  8.50000000E-01  8.50000000E-01  8.50000000E-01  8.00000000E-01  8.50000000E-01
  8.50000000E-01  8.50000000E-01  8.00000000E-01  8.50000000E-01  8.50000000E-01
  8.50000000E-01  8.00000000E-01  8.50000000E-01  8.50000000E-01  8.50000000E-01
  8.00000000E-01  8.50000000E-01  8.50000000E-01  8.50000000E-01  8.00000000E-01
  8.50000000E-01  8.50000000E-01  8.50000000E-01  8.00000000E-01  8.50000000E-01
  8.50000000E-01  8.50000000E-01  8.00000000E-01  8.50000000E-01  8.50000000E-01
  8.50000000E-01  8.00000000E-01  8.50000000E-01  8.50000000E-01  8.50000000E-01
  8.00000000E-01  8.50000000E-01  8.50000000E-01  8.50000000E-01  8.00000000E-01
  8.50000000E-01  8.50000000E-01  8.50000000E-01  8.00000000E-01  8.50000000E-01
  8.50000000E-01  8.50000000E-01  8.00000000E-01  8.50000000E-01  8.50000000E-01
  8.50000000E-01  8.00000000E-01  8.50000000E-01  8.50000000E-01  8.50000000E-01
  8.00000000E-01  8.50000000E-01  8.50000000E-01  8.50000000E-01  8.00000000E-01
  8.50000000E-01  8.50000000E-01  8.50000000E-01  8.00000000E-01  8.50000000E-01
  8.50000000E-01  8.50000000E-01  8.00000000E-01  8.50000000E-01  8.50000000E-01
  8.50000000E-01  8.00000000E-01  8.50000000E-01  8.50000000E-01  8.50000000E-01
  8.00000000E-01  8.50000000E-01  8.50000000E-01  8.50000000E-01  8.00000000E-01
  8.50000000E-01  8.50000000E-01  8.50000000E-01  8.00000000E-01  8.50000000E-01
  8.50000000E-01  8.50000000E-01  8.00000000E-01  8.50000000E-01  8.50000000E-01
  8.50000000E-01  8.00000000E-01  8.50000000E-01  8.50000000E-01  8.50000000E-01
  8.00000000E-01  8.50000000E-01  8.50000000E-01  8.50000000E-01  8.00000000E-01
  8.50000000E-01  8.50000000E-01  8.50000000E-01  8.00000000E-01  8.50000000E-01
  8.50000000E-01  8.50000000E-01  8.00000000E-01  8.50000000E-01  8.50000000E-01
  8.50000000E-01  8.00000000E-01  8.50000000E-01  8.50000000E-01  8.50000000E-01
  8.00000000E-01  8.50000000E-01  8.50000000E-01  8.50000000E-01  8.00000000E-01
  8.50000000E-01  8.50000000E-01  8.50000000E-01  8.00000000E-01  8.50000000E-01
  8.50000000E-01  8.50000000E-01  8.00000000E-01  8.50000000E-01  8.50000000E-01
  8.50000000E-01  8.00000000E-01  8.50000000E-01  8.50000000E-01  8.50000000E-01
  8.00000000E-01  8.50000000E-01  8.50000000E-01  8.50000000E-01  8.00000000E-01
  8.50000000E-01  8.50000000E-01  8.50000000E-01  8.00000000E-01  8.50000000E-01
  8.50000000E-01  8.50000000E-01  8.00000000E-01  8.50000000E-01  8.50000000E-01
  8.50000000E-01  8.00000000E-01  8.50000000E-01  8.50000000E-01  8.50000000E-01
  8.00000000E-01  8.50000000E-01  8.50000000E-01  8.50000000E-01  8.00000000E-01
  8.50000000E-01  8.50000000E-01  8.50000000E-01  8.00000000E-01  8.50000000E-01
  8.50000000E-01  8.50000000E-01  8.00000000E-01  8.50000000E-01  8.50000000E-01
  8.50000000E-01  8.00000000E-01  8.50000000E-01  8.50000000E-01  8.50000000E-01
  8.00000000E-01
%FLAG IPOL                                                                      
%FORMAT(1I8)                                                                    
       0
%FLAG CMAP_COUNT                                                                
%FORMAT(2I8)                                                                    
       3       2                                                                
%FLAG CMAP_RESOLUTION                                                           
%FORMAT(20I4)                                                                   
  24  24
%FLAG CMAP_PARAMETER_01                                                         
%COMMENT  Ala CMAP                                                              
%FORMAT(8F9.5)                                                                  
 -0.40490 -0.91563 -0.66011 -0.12395  0.67400  1.66712  2.29819  2.59327
  2.26341  1.68604  1.08454  0.71831 -0.48870 -1.12865 -0.92439 -0.34344
  0.32979  0.59769  0.44008 -0.02411 -0.36985 -0.85317 -0.95648 -1.10907
 -0.57095 -0.51404 -0.20974  0.13143  0.76924  1.59233  2.29037  2.67125
  3.36182  2.18892  2.73567  0.45223 -0.65830 -0.99890 -0.71628  0.42576
  0.53333  0.77654  0.66928  0.32986  0.00178 -0.28339 -0.35321 -0.52818
 -0.04441  1.18495  0.28672  0.49834  1.04770  1.74318  2.42981  2.78424
  2.83854  2.61585  1.87191  0.41363 -0.42895 -0.65692  0.55228  0.27728
  0.92789  1.20682  1.03564  0.82326  0.50898  0.23806  0.20869  0.03162
  0.75270  0.92426  0.87815  1.07435  1.34904  1.95311  2.55584  3.01644
  2.98774  2.58246  1.60744  0.42752 -0.30354 -0.31446 -0.03375  0.52111
  1.16914  1.46572  1.98214  1.17058  0.95531  0.70808  0.78722  1.35766
  1.34685  2.28011  1.28633  1.21465  1.51939  2.05226  2.68560  3.11202
  2.91890  2.50948  1.45835  0.41028 -0.10582 -0.34705 -0.04464  0.55547
  1.11301  1.35870  1.48001  1.35541  1.12115  0.95721  1.12820  1.22585
  2.04850  1.37875  1.14784  1.59064  1.72039  1.78908  3.30313  3.04054
  2.98842  2.41992  1.44654  0.52504 -0.06270 -0.27801  0.87234  0.67598
  0.94307  1.15416  1.20141  1.24110  1.26105  1.20805  1.33113  1.49416
  1.04113  0.90852  0.69483  0.85361  1.26559  1.89687  2.63196  4.14974
  2.85712  2.19037  1.16979  0.05713 -0.34982 -0.13111  1.14408  0.72916
  0.83976  0.87834  2.10017  1.17948  1.17775  1.17175  1.28140  1.31313
  0.56020  0.54579  0.70265  1.11648  1.74498  2.34101  3.30438  2.91742
  2.51820  1.80071  0.63368 -0.12153  0.06806  0.72937  1.10420  1.35758
  1.49864  1.53737  1.46180  1.46294  1.03983  0.71730  0.57013  0.61315
  0.24962  0.58339  1.16380  1.97603  2.89121  3.52557  3.68570  3.11960
  2.13455  1.15056  0.41716  0.25190  0.90813  1.46041  1.72423  2.08326
  2.41176  2.51527  2.40584  2.10326  1.06657  0.24926  0.00000  0.09150
  0.69001  1.45869  2.56017  3.51462  4.36327  4.88489  4.44136  3.31773
  1.94048  1.18640  1.14388  1.38827  1.99448  1.97586  2.10793  2.62567
  3.22808  3.67878  3.65514  2.76833  1.09340 -0.02756 -0.20820  0.11394
  2.04863  3.24028  4.45604  5.33890  5.83417  5.62064  4.51400  3.15546
  2.11289  2.12474  2.51205  2.64497  2.21088  1.89502  2.06746  3.01892
  4.17428  5.04288  4.34485  2.58422  0.91721  0.02839  0.38724  1.08963
  3.86396  5.17448  4.99907  4.71176  4.69475  4.40584  3.94871  3.17716
  3.06333  3.67246  4.29338  2.44448  1.35877  2.75298  2.01318  3.50593
  5.09938  4.27559  3.31646  1.97909  0.94467  0.88095  1.62501  2.60184
  5.48793  4.77064  3.78644  3.36104  3.22046  3.45658  3.76845  4.19099
  4.55308  4.85880  2.97166  1.40450  1.55754  1.01694  2.55251  4.15890
  3.59316  2.89015  2.39954  2.03475  2.02513  2.33480  3.18431  4.21056
  4.70559  3.27912  2.28983  1.85924  2.16582  3.20992  4.49444  5.42412
  5.98035  4.20595  2.46249  1.80286  1.41486  2.22339  3.40125  3.01974
  2.06463  1.98502  2.41985  3.03336  3.42492  3.76647  4.58344  5.51267
  2.34028  1.47026  0.70060  0.67110  1.72673  3.69931  5.49162  6.13923
  5.15665  3.78295  2.61455  3.27648  2.23785  2.65327  2.09930  0.98357
  0.83115  1.73620  2.87719  3.88918  4.40086  4.76522  4.34641  3.40891
  0.89883  0.26728  0.50152  0.12164  1.64744  3.66760  4.84258  4.73428
  4.15359  3.27829  2.48102  2.07496  1.77587  1.23018  0.22862 -0.17811
  0.36837  1.62610  2.66752  3.41452  3.43224  3.08090  2.54957  1.61094
  0.32705 -0.14752 -0.38279 -0.00752  1.31062  2.89019  3.39946  3.48428
  3.29026  2.66680  1.96417  1.33230  0.70261 -0.31922 -0.88675 -0.59803
  0.32944  1.32712  1.88494  2.20282  2.13265  1.82079  1.35338  0.71220
 -0.03270 -0.18304 -0.26783  0.12774  0.88323  1.96743  2.18027  2.30248
  2.25909  1.78219  1.00274  0.24927 -0.80554 -1.41955 -1.17733 -0.22422
  1.19834  1.07092  1.05260  0.95885  0.87757  0.60790  0.30853  0.05046
  0.08873  0.15910  0.22294  0.37757  0.76603  1.36872  1.54866  1.47050
  1.32077  0.90501  0.18754 -0.81180 -1.70050 -1.70896 -0.87307 -0.00331
  0.74981  0.73853  0.55032  0.27050 -0.03313 -0.23059 -0.27425 -0.15004
  1.38786  0.31030  0.31376  0.30435  0.69516  1.26684  1.67665  1.73040
  1.48205  0.83164  0.78021 -1.27092 -1.69247 -1.59919 -0.87185  0.23049
  0.75546  0.68419  0.50548  0.18474 -0.18354 -0.22863 -0.03965  0.15614
  1.13038  0.28339  0.13603  0.26411  0.64582  1.31757  2.01140  2.13005
  1.85723  0.94711 -0.10199 -0.99228 -1.35141 -1.23057 -0.39240  0.63569
  1.03002  0.93699  1.12925  0.94167  0.14233  0.14305  0.34318  0.43742
 -0.18145 -0.18129 -0.36426 -0.02774  0.57160  1.29873  2.16831  2.37053
  1.81288  0.84225 -0.13994 -0.87562 -1.03375 -0.75156  0.33665  1.25211
  1.11963  1.00266  0.72525  0.87651  0.22308  0.12905  0.05647 -0.10214
 -1.05110 -0.75879 -0.79562 -0.36879  0.45648  1.36193  2.25739  2.41888
  1.79507  0.83030 -0.09049 -0.76021 -0.87672 -0.19067  0.64936  0.61856
  0.80179  0.82609  0.68948  0.43884 -0.07529 -0.55654 -0.80787 -1.00697
 -1.21902 -1.03039 -0.88255 -0.32105  0.49201  1.53828  2.43182  2.53201
  1.97701  1.22953  0.40353 -0.11048 -0.00493 -0.40512 -0.63562 -0.14764
  0.47545  0.72229  0.59153  0.14907 -0.47001 -0.96318 -1.22829 -1.35376
%FLAG CMAP_PARAMETER_02                                                         
%COMMENT  PRO CMAP                                                              
%FORMAT(8F9.5)                                                                  
 -8.75751 -8.70567 -8.71923 -8.06498 -8.34855 -8.65942 -8.61255 -8.96343
 -8.72425 -8.73027 -8.00206 -8.69021 -8.28693 -8.65324 -8.82302 -8.18448
 -8.41685 -8.80151 -8.70094 -8.53053 -8.75377 -8.86638 -8.50509 -8.01082
 -8.77187 -8.73940 -8.66261 -8.90677 -9.06924 -8.63887 -7.81451 -7.16341
 -6.60542 -6.52662 -7.17952 -8.03381 -8.63601 -8.94480 -8.81277 -8.63859
 -7.86472 -6.93540 -7.11378 -7.02275 -7.31467 -7.34586 -7.17799 -7.85620
 -5.22647 -5.15037 -4.98780 -5.13754 -5.33451 -4.82744 -4.20622 -3.41249
 -2.98580 -3.06940 -3.72285 -4.71405 -5.39928 -5.45522 -5.23830 -4.83426
 -4.84841 -4.83945 -5.01358 -5.08121 -5.29478 -5.39394 -5.42201 -5.34520
 -2.63528 -2.61531 -2.23133 -2.09728 -2.35032 -1.81055 -1.14610 -0.43015
 -0.11029 -0.43642 -1.29900 -2.37678 -3.06813 -3.08683 -2.85132 -2.46945
 -2.09194 -2.00829 -2.13200 -2.22585 -2.45757 -2.72426 -2.91306 -2.79826
 -1.30630 -0.97037 -0.67553 -0.48439 -0.47298  0.09744  0.90710  1.67856
  1.78869  1.18509  0.10465 -0.95429 -1.77557 -2.02642 -1.80129 -1.30282
 -0.60900 -0.54189 -0.52494 -0.62734 -0.87227 -1.16429 -1.40325 -1.32862
 -0.28838 -0.29286 -0.05545  0.01374  0.18833  0.88685  1.88110  2.72301
  2.64392  1.80976  0.76838 -0.23772 -1.30866 -1.56111 -1.05594 -0.63462
 -0.27956 -0.12432  0.08300  0.08848  0.02441 -0.23536 -0.52571 -0.43355
 -0.10107 -0.10925  0.17861  0.46874  0.78386  1.52792  2.37292  3.19523
  2.94448  2.13146  1.04356 -0.13873 -0.96321 -0.82059 -0.33322 -0.30669
 -0.07750  0.24509  0.61203  0.77546  0.60883  0.16196  0.03025 -0.05960
  0.54240  0.73424  1.21584  1.97663  2.86196  3.36571  3.09521  2.89786
  2.65306  1.94911  0.87427  0.10091  0.29512  0.69644  0.77609  0.93694
  1.20253  1.21190  1.23792  1.16370  0.89360  0.32899  0.02924  0.15816
  0.93117  1.89831  2.92739  3.90919  4.66028  4.79265  4.30774  3.45574
  2.67462  1.77740  1.02956  0.85500  1.12685  1.40005  1.65428  2.00981
  2.49411  2.77553  2.72653  2.29924  1.30209  0.28787  0.00000  0.23904
  1.71372  3.17069  4.47459  5.34819  5.66978  5.61442  4.66872  3.50429
  2.46608  1.90184  1.95424  1.90806  1.75946  1.84931  2.08092  2.58532
  3.47075  4.05526  4.07457  2.94449  1.37584  0.18263  0.14274  0.72321
  2.93154  4.65664  5.81638  5.77271  5.70953  5.47038  4.31047  3.14909
  2.37257  2.54260  2.89806  2.29096  1.86624  1.70493  2.04297  2.91863
  4.12444  5.04419  4.44552  2.74661  1.09914  0.24758  0.62132  1.60919
  4.28791  5.74420  5.79671  5.16803  5.05413  4.48695  3.37932  2.59405
  2.54381  3.52801  3.10085  2.02404  1.30444  1.50932  1.70696  3.20804
  4.77364  5.01717  3.51828  1.80915  0.72960  0.85032  1.61355  2.81248
  5.10022  5.11605  4.30598  3.92413  3.37917  2.64150  2.42733  2.53172
  3.38712  3.74798  2.16043  0.80717  1.21776  0.25145  1.73628  3.39163
  4.52876  3.45959  2.15509  1.19505  1.15898  1.90043  2.79231  3.88367
  4.45196  3.70029  2.61706  1.82299  1.19526  1.47132  2.04669  2.98560
  3.87614  2.64572  0.79215  1.29417  0.57185  0.44864  1.83164  3.09417
  2.59096  1.51855  0.91401  1.05809  1.68925  2.43878  3.18205  4.00826
  2.72163  1.41184  0.04207 -0.81206 -0.92504  0.08798  1.44907  2.62605
  2.40258  0.87505 -0.68969 -1.36527 -0.96444 -0.10768  0.99527  0.71308
 -0.24748 -0.63365 -0.44523  0.32710  0.80503  1.32881  2.15503  3.28238
 -0.80511 -2.39777 -3.83456 -4.33430 -3.48052 -1.75445 -0.19983  0.60207
  0.06551 -1.07531 -2.16209 -2.48329 -2.40715 -2.05247 -2.16609 -3.19586
 -3.38809 -3.09350 -2.19949 -1.30642 -0.63336  0.28617  1.31525  0.58937
 -5.49419 -6.90233 -7.85445 -7.71328 -6.35345 -4.49678 -3.09411 -2.51174
 -2.73237 -3.57215 -4.35013 -5.04409 -5.50375 -5.86022 -6.64301 -6.80004
 -6.39815 -5.56010 -4.50638 -3.48952 -2.65640 -2.09936 -2.59104 -3.94783
 -4.95323 -5.81966 -5.21125 -5.74444 -5.56540 -5.11652 -5.21104 -6.68459
 -6.75332 -7.34507 -8.14475 -9.01762 -9.61284 -8.18605 -8.21980 -9.51019
 -8.69486 -8.13634 -7.49936 -6.76770 -5.79355 -6.63124 -7.48945 -8.89257
 -8.90818 -8.48907 -8.42313 -8.89309 -8.14630 -8.36733 -8.05899 -8.97334
 -8.08182 -8.40152 -8.88712 -8.44094 -8.96945 -8.84838 -8.06274 -8.04221
 -8.38659 -8.26564 -8.16867 -8.07604 -8.18975 -8.58300 -8.97423 -8.27557
 -8.58467 -8.84753 -8.42340 -8.80513 -8.29742 -8.94947 -8.12015 -8.36778
 -7.35387 -7.32522 -7.79483 -7.29000 -7.55762 -7.16439 -7.06554 -7.93809
 -7.42050 -7.29676 -7.26130 -7.35832 -7.63448 -7.16499 -7.15108 -7.79839
 -7.17886 -7.19451 -7.53222 -7.90130 -7.37702 -7.15717 -7.90496 -7.29665
 -7.60628 -7.95815 -7.07987 -7.00555 -7.24586 -7.75344 -7.50631 -7.32424
 -6.60700 -6.05537 -6.57198 -6.36398 -6.84789 -6.00007 -6.26382 -6.37899
 -6.97565 -6.79895 -6.81045 -6.38845 -6.75665 -6.50745 -6.34555 -6.97905
 -6.70335 -6.63155 -6.02445 -6.00075 -6.42685 -6.08775 -6.30235 -6.08385
 -4.99155 -4.10475 -4.44005 -4.52855 -4.24195 -4.38705 -4.89415 -4.12825
  0.72785  0.44055  0.25525  0.57015  0.50715  0.31935  0.02685  0.77055
  2.06855  1.95315  2.33365  3.28115  3.15315  4.20805  4.71215  4.07005
  8.99895  8.18825  9.28555  8.47075  7.81095  7.54885  7.86895  8.54445
  8.57285  8.51105  8.06095  8.24775  8.25665  8.34635  8.39995  8.38805
  8.69225  8.43795  8.69725  8.90195  8.97545  8.99285  8.67585  8.52795
  8.32625  8.65405  8.95355  8.25755  8.60965  8.25845  8.46825  8.12375
%FLAG CMAP_INDEX                                                                
%FORMAT(6I8)                                                                    
       5       7       9      15      17       1
      15      17      27      29      31       2
      29      31      33      39      41       1
