%VERSION  VERSION_STAMP = V0001.000  DATE = 07/13/26  12:29:41                  
%FLAG TITLE                                                                     
%FORMAT(20a4)                                                                   
ACE                                                                             
%FLAG POINTERS                                                                  
%FORMAT(10I8)                                                                   
    6779      11    5071    1707      71      34     126      92       0       0
   12068    1685    1707      34      92      25      46      32      17       0
       0       0       0       0       0       0       0       2      22       0
    1680
%FLAG ATOM_NAME                                                                 
%FORMAT(20a4)                                                                   
H1  CH3 H2  H3  C   O   N   H   CA  HA  CB  HB2 HB3 CG  HG2 HG3 CD  HD2 HD3 CE  
HE2 HE3 NZ  HZ1 HZ2 HZ3 C   O   N   H   CA  HA  CB  HB1 HB2 HB3 C   O   N   H   
CA  HA  CB  HB2 HB3 CG  HG2 HG3 CD  OE1 OE2 C   O   N   H   C   H1  H2  H3  O   
H1  H2  EPW O   H1  H2  EPW O   H1  H2  EPW O   H1  H2  EPW O   H1  H2  EPW O   
H1  H2  EPW O   H1  H2  EPW O   H1  H2  EPW O   H1  H2  EPW O   H1  H2  EPW O   
H1  H2  EPW O   H1  H2  EPW O   H1  H2  EPW O   H1  H2  EPW O   H1  H2  EPW O   
H1  H2  EPW O   H1  H2  EPW O   H1  H2  EPW O   H1  H2  EPW O   H1  H2  EPW O   
H1  H2  EPW O   H1  H2  EPW O   H1  H2  EPW O   H1  H2  EPW O   H1  H2  EPW O   
H1  H2  EPW O   H1  H2  EPW O   H1  H2  EPW O   H1  H2  EPW O   H1  H2  EPW O   
H1  H2  EPW O   H1  H2  EPW O   H1  H2  EPW O   H1  H2  EPW O   H1  H2  EPW O   
H1  H2  EPW O   H1  H2  EPW O   H1  H2  EPW O   H1  H2  EPW O   H1  H2  EPW O   
H1  H2  EPW O   H1  H2  EPW O   H1  H2  EPW O   H1  H2  EPW O   H1  H2  EPW O   
H1  H2  EPW O   H1  H2  EPW O   H1  H2  EPW O   H1  H2  EPW O   H1  H2  EPW O   
H1  H2  EPW O   H1  H2  EPW O   H1  H2  EPW O   H1  H2  EPW O   H1  H2  EPW O   
H1  H2  EPW O   H1  H2  EPW O   H1  H2  EPW O   H1  H2  EPW O   H1  H2  EPW O   
H1  H2  EPW O   H1  H2  EPW O   H1  H2  EPW O   H1  H2  EPW O   H1  H2  EPW O   
H1  H2  EPW O   H1  H2  EPW O   H1  H2  EPW O   H1  H2  EPW O   H1  H2  EPW O   
H1  H2  EPW O   H1  H2  EPW O   H1  H2  EPW O   H1  H2  EPW O   H1  H2  EPW O   
H1  H2  EPW O   H1  H2  EPW O   H1  H2  EPW O   H1  H2  EPW O   H1  H2  EPW O   
H1  H2  EPW O   H1  H2  EPW O   H1  H2  EPW O   H1  H2  EPW O   H1  H2  EPW O   
H1  H2  EPW O   H1  H2  EPW O   H1  H2  EPW O   H1  H2  EPW O   H1  H2  EPW O   
H1  H2  EPW O   H1  H2  EPW O   H1  H2  EPW O   H1  H2  EPW O   H1  H2  EPW O   
H1  H2  EPW O   H1  H2  EPW O   H1  H2  EPW O   H1  H2  EPW O   H1  H2  EPW O   
H1  H2  EPW O   H1  H2  EPW O   H1  H2  EPW O   H1  H2  EPW O   H1  H2  EPW O   
H1  H2  EPW O   H1  H2  EPW O   H1  H2  EPW O   H1  H2  EPW O   H1  H2  EPW O   
H1  H2  EPW O   H1  H2  EPW O   H1  H2  EPW O   H1  H2  EPW O   H1  H2  EPW O   
H1  H2  EPW O   H1  H2  EPW O   H1  H2  EPW O   H1  H2  EPW O   H1  H2  EPW O   
H1  H2  EPW O   H1  H2  EPW O   H1  H2  EPW O   H1  H2  EPW O   H1  H2  EPW O   
H1  H2  EPW O   H1  H2  EPW O   H1  H2  EPW O   H1  H2  EPW O   H1  H2  EPW O   
H1  H2  EPW O   H1  H2  EPW O   H1  H2  EPW O   H1  H2  EPW O   H1  H2  EPW O   
H1  H2  EPW O   H1  H2  EPW O   H1  H2  EPW O   H1  H2  EPW O   H1  H2  EPW O   
H1  H2  EPW O   H1  H2  EPW O   H1  H2  EPW O   H1  H2  EPW O   H1  H2  EPW O   
H1  H2  EPW O   H1  H2  EPW O   H1  H2  EPW O   H1  H2  EPW O   H1  H2  EPW O   
H1  H2  EPW O   H1  H2  EPW O   H1  H2  EPW O   H1  H2  EPW O   H1  H2  EPW O   
H1  H2  EPW O   H1  H2  EPW O   H1  H2  EPW O   H1  H2  EPW O   H1  H2  EPW O   
H1  H2  EPW O   H1  H2  EPW O   H1  H2  EPW O   H1  H2  EPW O   H1  H2  EPW O   
H1  H2  EPW O   H1  H2  EPW O   H1  H2  EPW O   H1  H2  EPW O   H1  H2  EPW O   
H1  H2  EPW O   H1  H2  EPW O   H1  H2  EPW O   H1  H2  EPW O   H1  H2  EPW O   
H1  H2  EPW O   H1  H2  EPW O   H1  H2  EPW O   H1  H2  EPW O   H1  H2  EPW O   
H1  H2  EPW O   H1  H2  EPW O   H1  H2  EPW O   H1  H2  EPW O   H1  H2  EPW O   
H1  H2  EPW O   H1  H2  EPW O   H1  H2  EPW O   H1  H2  EPW O   H1  H2  EPW O   
H1  H2  EPW O   H1  H2  EPW O   H1  H2  EPW O   H1  H2  EPW O   H1  H2  EPW O   
H1  H2  EPW O   H1  H2  EPW O   H1  H2  EPW O   H1  H2  EPW O   H1  H2  EPW O   
H1  H2  EPW O   H1  H2  EPW O   H1  H2  EPW O   H1  H2  EPW O   H1  H2  EPW O   
H1  H2  EPW O   H1  H2  EPW O   H1  H2  EPW O   H1  H2  EPW O   H1  H2  EPW O   
H1  H2  EPW O   H1  H2  EPW O   H1  H2  EPW O   H1  H2  EPW O   H1  H2  EPW O   
H1  H2  EPW O   H1  H2  EPW O   H1  H2  EPW O   H1  H2  EPW O   H1  H2  EPW O   
H1  H2  EPW O   H1  H2  EPW O   H1  H2  EPW O   H1  H2  EPW O   H1  H2  EPW O   
H1  H2  EPW O   H1  H2  EPW O   H1  H2  EPW O   H1  H2  EPW O   H1  H2  EPW O   
H1  H2  EPW O   H1  H2  EPW O   H1  H2  EPW O   H1  H2  EPW O   H1  H2  EPW O   
H1  H2  EPW O   H1  H2  EPW O   H1  H2  EPW O   H1  H2  EPW O   H1  H2  EPW O   
H1  H2  EPW O   H1  H2  EPW O   H1  H2  EPW O   H1  H2  EPW O   H1  H2  EPW O   
H1  H2  EPW O   H1  H2  EPW O   H1  H2  EPW O   H1  H2  EPW O   H1  H2  EPW O   
H1  H2  EPW O   H1  H2  EPW O   H1  H2  EPW O   H1  H2  EPW O   H1  H2  EPW O   
H1  H2  EPW O   H1  H2  EPW O   H1  H2  EPW O   H1  H2  EPW O   H1  H2  EPW O   
H1  H2  EPW O   H1  H2  EPW O   H1  H2  EPW O   H1  H2  EPW O   H1  H2  EPW O   
H1  H2  EPW O   H1  H2  EPW O   H1  H2  EPW O   H1  H2  EPW O   H1  H2  EPW O   
H1  H2  EPW O   H1  H2  EPW O   H1  H2  EPW O   H1  H2  EPW O   H1  H2  EPW O   
H1  H2  EPW O   H1  H2  EPW O   H1  H2  EPW O   H1  H2  EPW O   H1  H2  EPW O   
H1  H2  EPW O   H1  H2  EPW O   H1  H2  EPW O   H1  H2  EPW O   H1  H2  EPW O   
H1  H2  EPW O   H1  H2  EPW O   H1  H2  EPW O   H1  H2  EPW O   H1  H2  EPW O   
H1  H2  EPW O   H1  H2  EPW O   H1  H2  EPW O   H1  H2  EPW O   H1  H2  EPW O   
H1  H2  EPW O   H1  H2  EPW O   H1  H2  EPW O   H1  H2  EPW O   H1  H2  EPW O   
H1  H2  EPW O   H1  H2  EPW O   H1  H2  EPW O   H1  H2  EPW O   H1  H2  EPW O   
H1  H2  EPW O   H1  H2  EPW O   H1  H2  EPW O   H1  H2  EPW O   H1  H2  EPW O   
H1  H2  EPW O   H1  H2  EPW O   H1  H2  EPW O   H1  H2  EPW O   H1  H2  EPW O   
H1  H2  EPW O   H1  H2  EPW O   H1  H2  EPW O   H1  H2  EPW O   H1  H2  EPW O   
H1  H2  EPW O   H1  H2  EPW O   H1  H2  EPW O   H1  H2  EPW O   H1  H2  EPW O   
H1  H2  EPW O   H1  H2  EPW O   H1  H2  EPW O   H1  H2  EPW O   H1  H2  EPW O   
H1  H2  EPW O   H1  H2  EPW O   H1  H2  EPW O   H1  H2  EPW O   H1  H2  EPW O   
H1  H2  EPW O   H1  H2  EPW O   H1  H2  EPW O   H1  H2  EPW O   H1  H2  EPW O   
H1  H2  EPW O   H1  H2  EPW O   H1  H2  EPW O   H1  H2  EPW O   H1  H2  EPW O   
H1  H2  EPW O   H1  H2  EPW O   H1  H2  EPW O   H1  H2  EPW O   H1  H2  EPW O   
H1  H2  EPW O   H1  H2  EPW O   H1  H2  EPW O   H1  H2  EPW O   H1  H2  EPW O   
H1  H2  EPW O   H1  H2  EPW O   H1  H2  EPW O   H1  H2  EPW O   H1  H2  EPW O   
H1  H2  EPW O   H1  H2  EPW O   H1  H2  EPW O   H1  H2  EPW O   H1  H2  EPW O   
H1  H2  EPW O   H1  H2  EPW O   H1  H2  EPW O   H1  H2  EPW O   H1  H2  EPW O   
H1  H2  EPW O   H1  H2  EPW O   H1  H2  EPW O   H1  H2  EPW O   H1  H2  EPW O   
H1  H2  EPW O   H1  H2  EPW O   H1  H2  EPW O   H1  H2  EPW O   H1  H2  EPW O   
H1  H2  EPW O   H1  H2  EPW O   H1  H2  EPW O   H1  H2  EPW O   H1  H2  EPW O   
H1  H2  EPW O   H1  H2  EPW O   H1  H2  EPW O   H1  H2  EPW O   H1  H2  EPW O   
H1  H2  EPW O   H1  H2  EPW O   H1  H2  EPW O   H1  H2  EPW O   H1  H2  EPW O   
H1  H2  EPW O   H1  H2  EPW O   H1  H2  EPW O   H1  H2  EPW O   H1  H2  EPW O   
H1  H2  EPW O   H1  H2  EPW O   H1  H2  EPW O   H1  H2  EPW O   H1  H2  EPW O   
H1  H2  EPW O   H1  H2  EPW O   H1  H2  EPW O   H1  H2  EPW O   H1  H2  EPW O   
H1  H2  EPW O   H1  H2  EPW O   H1  H2  EPW O   H1  H2  EPW O   H1  H2  EPW O   
H1  H2  EPW O   H1  H2  EPW O   H1  H2  EPW O   H1  H2  EPW O   H1  H2  EPW O   
H1  H2  EPW O   H1  H2  EPW O   H1  H2  EPW O   H1  H2  EPW O   H1  H2  EPW O   
H1  H2  EPW O   H1  H2  EPW O   H1  H2  EPW O   H1  H2  EPW O   H1  H2  EPW O   
H1  H2  EPW O   H1  H2  EPW O   H1  H2  EPW O   H1  H2  EPW O   H1  H2  EPW O   
H1  H2  EPW O   H1  H2  EPW O   H1  H2  EPW O   H1  H2  EPW O   H1  H2  EPW O   
H1  H2  EPW O   H1  H2  EPW O   H1  H2  EPW O   H1  H2  EPW O   H1  H2  EPW O   
H1  H2  EPW O   H1  H2  EPW O   H1  H2  EPW O   H1  H2  EPW O   H1  H2  EPW O   
H1  H2  EPW O   H1  H2  EPW O   H1  H2  EPW O   H1  H2  EPW O   H1  H2  EPW O   
H1  H2  EPW O   H1  H2  EPW O   H1  H2  EPW O   H1  H2  EPW O   H1  H2  EPW O   
H1  H2  EPW O   H1  H2  EPW O   H1  H2  EPW O   H1  H2  EPW O   H1  H2  EPW O   
H1  H2  EPW O   H1  H2  EPW O   H1  H2  EPW O   H1  H2  EPW O   H1  H2  EPW O   
H1  H2  EPW O   H1  H2  EPW O   H1  H2  EPW O   H1  H2  EPW O   H1  H2  EPW O   
H1  H2  EPW O   H1  H2  EPW O   H1  H2  EPW O   H1  H2  EPW O   H1  H2  EPW O   
H1  H2  EPW O   H1  H2  EPW O   H1  H2  EPW O   H1  H2  EPW O   H1  H2  EPW O   
H1  H2  EPW O   H1  H2  EPW O   H1  H2  EPW O   H1  H2  EPW O   H1  H2  EPW O   
H1  H2  EPW O   H1  H2  EPW O   H1  H2  EPW O   H1  H2  EPW O   H1  H2  EPW O   
H1  H2  EPW O   H1  H2  EPW O   H1  H2  EPW O   H1  H2  EPW O   H1  H2  EPW O   
H1  H2  EPW O   H1  H2  EPW O   H1  H2  EPW O   H1  H2  EPW O   H1  H2  EPW O   
H1  H2  EPW O   H1  H2  EPW O   H1  H2  EPW O   H1  H2  EPW O   H1  H2  EPW O   
H1  H2  EPW O   H1  H2  EPW O   H1  H2  EPW O   H1  H2  EPW O   H1  H2  EPW O   
H1  H2  EPW O   H1  H2  EPW O   H1  H2  EPW O   H1  H2  EPW O   H1  H2  EPW O   
H1  H2  EPW O   H1  H2  EPW O   H1  H2  EPW O   H1  H2  EPW O   H1  H2  EPW O   
H1  H2  EPW O   H1  H2  EPW O   H1  H2  EPW O   H1  H2  EPW O   H1  H2  EPW O   
H1  H2  EPW O   H1  H2  EPW O   H1  H2  EPW O   H1  H2  EPW O   H1  H2  EPW O   
H1  H2  EPW O   H1  H2  EPW O   H1  H2  EPW O   H1  H2  EPW O   H1  H2  EPW O   
H1  H2  EPW O   H1  H2  EPW O   H1  H2  EPW O   H1  H2  EPW O   H1  H2  EPW O   
H1  H2  EPW O   H1  H2  EPW O   H1  H2  EPW O   H1  H2  EPW O   H1  H2  EPW O   
H1  H2  EPW O   H1  H2  EPW O   H1  H2  EPW O   H1  H2  EPW O   H1  H2  EPW O   
H1  H2  EPW O   H1  H2  EPW O   H1  H2  EPW O   H1  H2  EPW O   H1  H2  EPW O   
H1  H2  EPW O   H1  H2  EPW O   H1  H2  EPW O   H1  H2  EPW O   H1  H2  EPW O   
H1  H2  EPW O   H1  H2  EPW O   H1  H2  EPW O   H1  H2  EPW O   H1  H2  EPW O   
H1  H2  EPW O   H1  H2  EPW O   H1  H2  EPW O   H1  H2  EPW O   H1  H2  EPW O   
H1  H2  EPW O   H1  H2  EPW O   H1  H2  EPW O   H1  H2  EPW O   H1  H2  EPW O   
H1  H2  EPW O   H1  H2  EPW O   H1  H2  EPW O   H1  H2  EPW O   H1  H2  EPW O   
H1  H2  EPW O   H1  H2  EPW O   H1  H2  EPW O   H1  H2  EPW O   H1  H2  EPW O   
H1  H2  EPW O   H1  H2  EPW O   H1  H2  EPW O   H1  H2  EPW O   H1  H2  EPW O   
H1  H2  EPW O   H1  H2  EPW O   H1  H2  EPW O   H1  H2  EPW O   H1  H2  EPW O   
H1  H2  EPW O   H1  H2  EPW O   H1  H2  EPW O   H1  H2  EPW O   H1  H2  EPW O   
H1  H2  EPW O   H1  H2  EPW O   H1  H2  EPW O   H1  H2  EPW O   H1  H2  EPW O   
H1  H2  EPW O   H1  H2  EPW O   H1  H2  EPW O   H1  H2  EPW O   H1  H2  EPW O   
H1  H2  EPW O   H1  H2  EPW O   H1  H2  EPW O   H1  H2  EPW O   H1  H2  EPW O   
H1  H2  EPW O   H1  H2  EPW O   H1  H2  EPW O   H1  H2  EPW O   H1  H2  EPW O   
H1  H2  EPW O   H1  H2  EPW O   H1  H2  EPW O   H1  H2  EPW O   H1  H2  EPW O   
H1  H2  EPW O   H1  H2  EPW O   H1  H2  EPW O   H1  H2  EPW O   H1  H2  EPW O   
H1  H2  EPW O   H1  H2  EPW O   H1  H2  EPW O   H1  H2  EPW O   H1  H2  EPW O   
H1  H2  EPW O   H1  H2  EPW O   H1  H2  EPW O   H1  H2  EPW O   H1  H2  EPW O   
H1  H2  EPW O   H1  H2  EPW O   H1  H2  EPW O   H1  H2  EPW O   H1  H2  EPW O   
H1  H2  EPW O   H1  H2  EPW O   H1  H2  EPW O   H1  H2  EPW O   H1  H2  EPW O   
H1  H2  EPW O   H1  H2  EPW O   H1  H2  EPW O   H1  H2  EPW O   H1  H2  EPW O   
H1  H2  EPW O   H1  H2  EPW O   H1  H2  EPW O   H1  H2  EPW O   H1  H2  EPW O   
H1  H2  EPW O   H1  H2  EPW O   H1  H2  EPW O   H1  H2  EPW O   H1  H2  EPW O   
H1  H2  EPW O   H1  H2  EPW O   H1  H2  EPW O   H1  H2  EPW O   H1  H2  EPW O   
H1  H2  EPW O   H1  H2  EPW O   H1  H2  EPW O   H1  H2  EPW O   H1  H2  EPW O   
H1  H2  EPW O   H1  H2  EPW O   H1  H2  EPW O   H1  H2  EPW O   H1  H2  EPW O   
H1  H2  EPW O   H1  H2  EPW O   H1  H2  EPW O   H1  H2  EPW O   H1  H2  EPW O   
H1  H2  EPW O   H1  H2  EPW O   H1  H2  EPW O   H1  H2  EPW O   H1  H2  EPW O   
H1  H2  EPW O   H1  H2  EPW O   H1  H2  EPW O   H1  H2  EPW O   H1  H2  EPW O   
H1  H2  EPW O   H1  H2  EPW O   H1  H2  EPW O   H1  H2  EPW O   H1  H2  EPW O   
H1  H2  EPW O   H1  H2  EPW O   H1  H2  EPW O   H1  H2  EPW O   H1  H2  EPW O   
H1  H2  EPW O   H1  H2  EPW O   H1  H2  EPW O   H1  H2  EPW O   H1  H2  EPW O   
H1  H2  EPW O   H1  H2  EPW O   H1  H2  EPW O   H1  H2  EPW O   H1  H2  EPW O   
H1  H2  EPW O   H1  H2  EPW O   H1  H2  EPW O   H1  H2  EPW O   H1  H2  EPW O   
H1  H2  EPW O   H1  H2  EPW O   H1  H2  EPW O   H1  H2  EPW O   H1  H2  EPW O   
H1  H2  EPW O   H1  H2  EPW O   H1  H2  EPW O   H1  H2  EPW O   H1  H2  EPW O   
H1  H2  EPW O   H1  H2  EPW O   H1  H2  EPW O   H1  H2  EPW O   H1  H2  EPW O   
H1  H2  EPW O   H1  H2  EPW O   H1  H2  EPW O   H1  H2  EPW O   H1  H2  EPW O   
H1  H2  EPW O   H1  H2  EPW O   H1  H2  EPW O   H1  H2  EPW O   H1  H2  EPW O   
H1  H2  EPW O   H1  H2  EPW O   H1  H2  EPW O   H1  H2  EPW O   H1  H2  EPW O   
H1  H2  EPW O   H1  H2  EPW O   H1  H2  EPW O   H1  H2  EPW O   H1  H2  EPW O   
H1  H2  EPW O   H1  H2  EPW O   H1  H2  EPW O   H1  H2  EPW O   H1  H2  EPW O   
H1  H2  EPW O   H1  H2  EPW O   H1  H2  EPW O   H1  H2  EPW O   H1  H2  EPW O   
H1  H2  EPW O   H1  H2  EPW O   H1  H2  EPW O   H1  H2  EPW O   H1  H2  EPW O   
H1  H2  EPW O   H1  H2  EPW O   H1  H2  EPW O   H1  H2  EPW O   H1  H2  EPW O   
H1  H2  EPW O   H1  H2  EPW O   H1  H2  EPW O   H1  H2  EPW O   H1  H2  EPW O   
H1  H2  EPW O   H1  H2  EPW O   H1  H2  EPW O   H1  H2  EPW O   H1  H2  EPW O   
H1  H2  EPW O   H1  H2  EPW O   H1  H2  EPW O   H1  H2  EPW O   H1  H2  EPW O   
H1  H2  EPW O   H1  H2  EPW O   H1  H2  EPW O   H1  H2  EPW O   H1  H2  EPW O   
H1  H2  EPW O   H1  H2  EPW O   H1  H2  EPW O   H1  H2  EPW O   H1  H2  EPW O   
H1  H2  EPW O   H1  H2  EPW O   H1  H2  EPW O   H1  H2  EPW O   H1  H2  EPW O   
H1  H2  EPW O   H1  H2  EPW O   H1  H2  EPW O   H1  H2  EPW O   H1  H2  EPW O   
H1  H2  EPW O   H1  H2  EPW O   H1  H2  EPW O   H1  H2  EPW O   H1  H2  EPW O   
H1  H2  EPW O   H1  H2  EPW O   H1  H2  EPW O   H1  H2  EPW O   H1  H2  EPW O   
H1  H2  EPW O   H1  H2  EPW O   H1  H2  EPW O   H1  H2  EPW O   H1  H2  EPW O   
H1  H2  EPW O   H1  H2  EPW O   H1  H2  EPW O   H1  H2  EPW O   H1  H2  EPW O   
H1  H2  EPW O   H1  H2  EPW O   H1  H2  EPW O   H1  H2  EPW O   H1  H2  EPW O   
H1  H2  EPW O   H1  H2  EPW O   H1  H2  EPW O   H1  H2  EPW O   H1  H2  EPW O   
H1  H2  EPW O   H1  H2  EPW O   H1  H2  EPW O   H1  H2  EPW O   H1  H2  EPW O   
H1  H2  EPW O   H1  H2  EPW O   H1  H2  EPW O   H1  H2  EPW O   H1  H2  EPW O   
H1  H2  EPW O   H1  H2  EPW O   H1  H2  EPW O   H1  H2  EPW O   H1  H2  EPW O   
H1  H2  EPW O   H1  H2  EPW O   H1  H2  EPW O   H1  H2  EPW O   H1  H2  EPW O   
H1  H2  EPW O   H1  H2  EPW O   H1  H2  EPW O   H1  H2  EPW O   H1  H2  EPW O   
H1  H2  EPW O   H1  H2  EPW O   H1  H2  EPW O   H1  H2  EPW O   H1  H2  EPW O   
H1  H2  EPW O   H1  H2  EPW O   H1  H2  EPW O   H1  H2  EPW O   H1  H2  EPW O   
H1  H2  EPW O   H1  H2  EPW O   H1  H2  EPW O   H1  H2  EPW O   H1  H2  EPW O   
H1  H2  EPW O   H1  H2  EPW O   H1  H2  EPW O   H1  H2  EPW O   H1  H2  EPW O   
H1  H2  EPW O   H1  H2  EPW O   H1  H2  EPW O   H1  H2  EPW O   H1  H2  EPW O   
H1  H2  EPW O   H1  H2  EPW O   H1  H2  EPW O   H1  H2  EPW O   H1  H2  EPW O   
H1  H2  EPW O   H1  H2  EPW O   H1  H2  EPW O   H1  H2  EPW O   H1  H2  EPW O   
H1  H2  EPW O   H1  H2  EPW O   H1  H2  EPW O   H1  H2  EPW O   H1  H2  EPW O   
H1  H2  EPW O   H1  H2  EPW O   H1  H2  EPW O   H1  H2  EPW O   H1  H2  EPW O   
H1  H2  EPW O   H1  H2  EPW O   H1  H2  EPW O   H1  H2  EPW O   H1  H2  EPW O   
H1  H2  EPW O   H1  H2  EPW O   H1  H2  EPW O   H1  H2  EPW O   H1  H2  EPW O   
H1  H2  EPW O   H1  H2  EPW O   H1  H2  EPW O   H1  H2  EPW O   H1  H2  EPW O   
H1  H2  EPW O   H1  H2  EPW O   H1  H2  EPW O   H1  H2  EPW O   H1  H2  EPW O   
H1  H2  EPW O   H1  H2  EPW O   H1  H2  EPW O   H1  H2  EPW O   H1  H2  EPW O   
H1  H2  EPW O   H1  H2  EPW O   H1  H2  EPW O   H1  H2  EPW O   H1  H2  EPW O   
H1  H2  EPW O   H1  H2  EPW O   H1  H2  EPW O   H1  H2  EPW O   H1  H2  EPW O   
H1  H2  EPW O   H1  H2  EPW O   H1  H2  EPW O   H1  H2  EPW O   H1  H2  EPW O   
H1  H2  EPW O   H1  H2  EPW O   H1  H2  EPW O   H1  H2  EPW O   H1  H2  EPW O   
H1  H2  EPW O   H1  H2  EPW O   H1  H2  EPW O   H1  H2  EPW O   H1  H2  EPW O   
H1  H2  EPW O   H1  H2  EPW O   H1  H2  EPW O   H1  H2  EPW O   H1  H2  EPW O   
H1  H2  EPW O   H1  H2  EPW O   H1  H2  EPW O   H1  H2  EPW O   H1  H2  EPW O   
H1  H2  EPW O   H1  H2  EPW O   H1  H2  EPW O   H1  H2  EPW O   H1  H2  EPW O   
H1  H2  EPW O   H1  H2  EPW O   H1  H2  EPW O   H1  H2  EPW O   H1  H2  EPW O   
H1  H2  EPW O   H1  H2  EPW O   H1  H2  EPW O   H1  H2  EPW O   H1  H2  EPW O   
H1  H2  EPW O   H1  H2  EPW O   H1  H2  EPW O   H1  H2  EPW O   H1  H2  EPW O   
H1  H2  EPW O   H1  H2  EPW O   H1  H2  EPW O   H1  H2  EPW O   H1  H2  EPW O   
H1  H2  EPW O   H1  H2  EPW O   H1  H2  EPW O   H1  H2  EPW O   H1  H2  EPW O   
H1  H2  EPW O   H1  H2  EPW O   H1  H2  EPW O   H1  H2  EPW O   H1  H2  EPW O   
H1  H2  EPW O   H1  H2  EPW O   H1  H2  EPW O   H1  H2  EPW O   H1  H2  EPW O   
H1  H2  EPW O   H1  H2  EPW O   H1  H2  EPW O   H1  H2  EPW O   H1  H2  EPW O   
H1  H2  EPW O   H1  H2  EPW O   H1  H2  EPW O   H1  H2  EPW O   H1  H2  EPW O   
H1  H2  EPW O   H1  H2  EPW O   H1  H2  EPW O   H1  H2  EPW O   H1  H2  EPW O   
H1  H2  EPW O   H1  H2  EPW O   H1  H2  EPW O   H1  H2  EPW O   H1  H2  EPW O   
H1  H2  EPW O   H1  H2  EPW O   H1  H2  EPW O   H1  H2  EPW O   H1  H2  EPW O   
H1  H2  EPW O   H1  H2  EPW O   H1  H2  EPW O   H1  H2  EPW O   H1  H2  EPW O   
H1  H2  EPW O   H1  H2  EPW O   H1  H2  EPW O   H1  H2  EPW O   H1  H2  EPW O   
H1  H2  EPW O   H1  H2  EPW O   H1  H2  EPW O   H1  H2  EPW O   H1  H2  EPW O   
H1  H2  EPW O   H1  H2  EPW O   H1  H2  EPW O   H1  H2  EPW O   H1  H2  EPW O   
H1  H2  EPW O   H1  H2  EPW O   H1  H2  EPW O   H1  H2  EPW O   H1  H2  EPW O   
H1  H2  EPW O   H1  H2  EPW O   H1  H2  EPW O   H1  H2  EPW O   H1  H2  EPW O   
H1  H2  EPW O   H1  H2  EPW O   H1  H2  EPW O   H1  H2  EPW O   H1  H2  EPW O   
H1  H2  EPW O   H1  H2  EPW O   H1  H2  EPW O   H1  H2  EPW O   H1  H2  EPW O   
H1  H2  EPW O   H1  H2  EPW O   H1  H2  EPW O   H1  H2  EPW O   H1  H2  EPW O   
H1  H2  EPW O   H1  H2  EPW O   H1  H2  EPW O   H1  H2  EPW O   H1  H2  EPW O   
H1  H2  EPW O   H1  H2  EPW O   H1  H2  EPW O   H1  H2  EPW O   H1  H2  EPW O   
H1  H2  EPW O   H1  H2  EPW O   H1  H2  EPW O   H1  H2  EPW O   H1  H2  EPW O   
H1  H2  EPW O   H1  H2  EPW O   H1  H2  EPW O   H1  H2  EPW O   H1  H2  EPW O   
H1  H2  EPW O   H1  H2  EPW O   H1  H2  EPW O   H1  H2  EPW O   H1  H2  EPW O   
H1  H2  EPW O   H1  H2  EPW O   H1  H2  EPW O   H1  H2  EPW O   H1  H2  EPW O   
H1  H2  EPW O   H1  H2  EPW O   H1  H2  EPW O   H1  H2  EPW O   H1  H2  EPW O   
H1  H2  EPW O   H1  H2  EPW O   H1  H2  EPW O   H1  H2  EPW O   H1  H2  EPW O   
H1  H2  EPW O   H1  H2  EPW O   H1  H2  EPW O   H1  H2  EPW O   H1  H2  EPW O   
H1  H2  EPW O   H1  H2  EPW O   H1  H2  EPW O   H1  H2  EPW O   H1  H2  EPW O   
H1  H2  EPW O   H1  H2  EPW O   H1  H2  EPW O   H1  H2  EPW O   H1  H2  EPW O   
H1  H2  EPW O   H1  H2  EPW O   H1  H2  EPW O   H1  H2  EPW O   H1  H2  EPW O   
H1  H2  EPW O   H1  H2  EPW O   H1  H2  EPW O   H1  H2  EPW O   H1  H2  EPW O   
H1  H2  EPW O   H1  H2  EPW O   H1  H2  EPW O   H1  H2  EPW O   H1  H2  EPW O   
H1  H2  EPW O   H1  H2  EPW O   H1  H2  EPW O   H1  H2  EPW O   H1  H2  EPW O   
H1  H2  EPW O   H1  H2  EPW O   H1  H2  EPW O   H1  H2  EPW O   H1  H2  EPW O   
H1  H2  EPW O   H1  H2  EPW O   H1  H2  EPW O   H1  H2  EPW O   H1  H2  EPW O   
H1  H2  EPW O   H1  H2  EPW O   H1  H2  EPW O   H1  H2  EPW O   H1  H2  EPW O   
H1  H2  EPW O   H1  H2  EPW O   H1  H2  EPW O   H1  H2  EPW O   H1  H2  EPW O   
H1  H2  EPW O   H1  H2  EPW O   H1  H2  EPW O   H1  H2  EPW O   H1  H2  EPW O   
H1  H2  EPW O   H1  H2  EPW O   H1  H2  EPW O   H1  H2  EPW O   H1  H2  EPW O   
H1  H2  EPW O   H1  H2  EPW O   H1  H2  EPW O   H1  H2  EPW O   H1  H2  EPW O   
H1  H2  EPW O   H1  H2  EPW O   H1  H2  EPW O   H1  H2  EPW O   H1  H2  EPW O   
H1  H2  EPW O   H1  H2  EPW O   H1  H2  EPW O   H1  H2  EPW O   H1  H2  EPW O   
H1  H2  EPW O   H1  H2  EPW O   H1  H2  EPW O   H1  H2  EPW O   H1  H2  EPW O   
H1  H2  EPW O   H1  H2  EPW O   H1  H2  EPW O   H1  H2  EPW O   H1  H2  EPW O   
H1  H2  EPW O   H1  H2  EPW O   H1  H2  EPW O   H1  H2  EPW O   H1  H2  EPW O   
H1  H2  EPW O   H1  H2  EPW O   H1  H2  EPW O   H1  H2  EPW O   H1  H2  EPW O   
H1  H2  EPW O   H1  H2  EPW O   H1  H2  EPW O   H1  H2  EPW O   H1  H2  EPW O   
H1  H2  EPW O   H1  H2  EPW O   H1  H2  EPW O   H1  H2  EPW O   H1  H2  EPW O   
H1  H2  EPW O   H1  H2  EPW O   H1  H2  EPW O   H1  H2  EPW O   H1  H2  EPW O   
H1  H2  EPW O   H1  H2  EPW O   H1  H2  EPW O   H1  H2  EPW O   H1  H2  EPW O   
H1  H2  EPW O   H1  H2  EPW O   H1  H2  EPW O   H1  H2  EPW O   H1  H2  EPW O   
H1  H2  EPW O   H1  H2  EPW O   H1  H2  EPW O   H1  H2  EPW O   H1  H2  EPW O   
H1  H2  EPW O   H1  H2  EPW O   H1  H2  EPW O   H1  H2  EPW O   H1  H2  EPW O   
H1  H2  EPW O   H1  H2  EPW O   H1  H2  EPW O   H1  H2  EPW O   H1  H2  EPW O   
H1  H2  EPW O   H1  H2  EPW O   H1  H2  EPW O   H1  H2  EPW O   H1  H2  EPW O   
H1  H2  EPW O   H1  H2  EPW O   H1  H2  EPW O   H1  H2  EPW O   H1  H2  EPW O   
H1  H2  EPW O   H1  H2  EPW O   H1  H2  EPW O   H1  H2  EPW O   H1  H2  EPW O   
H1  H2  EPW O   H1  H2  EPW O   H1  H2  EPW O   H1  H2  EPW O   H1  H2  EPW O   
H1  H2  EPW O   H1  H2  EPW O   H1  H2  EPW O   H1  H2  EPW O   H1  H2  EPW O   
H1  H2  EPW O   H1  H2  EPW O   H1  H2  EPW O   H1  H2  EPW O   H1  H2  EPW O   
H1  H2  EPW O   H1  H2  EPW O   H1  H2  EPW O   H1  H2  EPW O   H1  H2  EPW O   
H1  H2  EPW O   H1  H2  EPW O   H1  H2  EPW O   H1  H2  EPW O   H1  H2  EPW O   
H1  H2  EPW O   H1  H2  EPW O   H1  H2  EPW O   H1  H2  EPW O   H1  H2  EPW O   
H1  H2  EPW O   H1  H2  EPW O   H1  H2  EPW O   H1  H2  EPW O   H1  H2  EPW O   
H1  H2  EPW O   H1  H2  EPW O   H1  H2  EPW O   H1  H2  EPW O   H1  H2  EPW O   
H1  H2  EPW O   H1  H2  EPW O   H1  H2  EPW O   H1  H2  EPW O   H1  H2  EPW O   
H1  H2  EPW O   H1  H2  EPW O   H1  H2  EPW O   H1  H2  EPW O   H1  H2  EPW O   
H1  H2  EPW O   H1  H2  EPW O   H1  H2  EPW O   H1  H2  EPW O   H1  H2  EPW O   
H1  H2  EPW O   H1  H2  EPW O   H1  H2  EPW O   H1  H2  EPW O   H1  H2  EPW O   
H1  H2  EPW O   H1  H2  EPW O   H1  H2  EPW O   H1  H2  EPW O   H1  H2  EPW O   
H1  H2  EPW O   H1  H2  EPW O   H1  H2  EPW O   H1  H2  EPW O   H1  H2  EPW O   
H1  H2  EPW O   H1  H2  EPW O   H1  H2  EPW O   H1  H2  EPW O   H1  H2  EPW O   
H1  H2  EPW O   H1  H2  EPW O   H1  H2  EPW O   H1  H2  EPW O   H1  H2  EPW O   
H1  H2  EPW O   H1  H2  EPW O   H1  H2  EPW O   H1  H2  EPW O   H1  H2  EPW O   
H1  H2  EPW O   H1  H2  EPW O   H1  H2  EPW O   H1  H2  EPW O   H1  H2  EPW O   
H1  H2  EPW O   H1  H2  EPW O   H1  H2  EPW O   H1  H2  EPW O   H1  H2  EPW O   
H1  H2  EPW O   H1  H2  EPW O   H1  H2  EPW O   H1  H2  EPW O   H1  H2  EPW O   
H1  H2  EPW O   H1  H2  EPW O   H1  H2  EPW O   H1  H2  EPW O   H1  H2  EPW O   
H1  H2  EPW O   H1  H2  EPW O   H1  H2  EPW O   H1  H2  EPW O   H1  H2  EPW O   
H1  H2  EPW O   H1  H2  EPW O   H1  H2  EPW O   H1  H2  EPW O   H1  H2  EPW O   
H1  H2  EPW O   H1  H2  EPW O   H1  H2  EPW O   H1  H2  EPW O   H1  H2  EPW O   
H1  H2  EPW O   H1  H2  EPW O   H1  H2  EPW O   H1  H2  EPW O   H1  H2  EPW O   
H1  H2  EPW O   H1  H2  EPW O   H1  H2  EPW O   H1  H2  EPW O   H1  H2  EPW O   
H1  H2  EPW O   H1  H2  EPW O   H1  H2  EPW O   H1  H2  EPW O   H1  H2  EPW O   
H1  H2  EPW O   H1  H2  EPW O   H1  H2  EPW O   H1  H2  EPW O   H1  H2  EPW O   
H1  H2  EPW O   H1  H2  EPW O   H1  H2  EPW O   H1  H2  EPW O   H1  H2  EPW O   
H1  H2  EPW O   H1  H2  EPW O   H1  H2  EPW O   H1  H2  EPW O   H1  H2  EPW O   
H1  H2  EPW O   H1  H2  EPW O   H1  H2  EPW O   H1  H2  EPW O   H1  H2  EPW O   
H1  H2  EPW O   H1  H2  EPW O   H1  H2  EPW O   H1  H2  EPW O   H1  H2  EPW O   
H1  H2  EPW O   H1  H2  EPW O   H1  H2  EPW O   H1  H2  EPW O   H1  H2  EPW O   
H1  H2  EPW O   H1  H2  EPW O   H1  H2  EPW O   H1  H2  EPW O   H1  H2  EPW O   
H1  H2  EPW O   H1  H2  EPW O   H1  H2  EPW O   H1  H2  EPW O   H1  H2  EPW O   
H1  H2  EPW O   H1  H2  EPW O   H1  H2  EPW O   H1  H2  EPW O   H1  H2  EPW O   
H1  H2  EPW O   H1  H2  EPW O   H1  H2  EPW O   H1  H2  EPW O   H1  H2  EPW O   
H1  H2  EPW O   H1  H2  EPW O   H1  H2  EPW O   H1  H2  EPW O   H1  H2  EPW O   
H1  H2  EPW O   H1  H2  EPW O   H1  H2  EPW O   H1  H2  EPW O   H1  H2  EPW O   
H1  H2  EPW O   H1  H2  EPW O   H1  H2  EPW O   H1  H2  EPW O   H1  H2  EPW O   
H1  H2  EPW O   H1  H2  EPW O   H1  H2  EPW O   H1  H2  EPW O   H1  H2  EPW O   
H1  H2  EPW O   H1  H2  EPW O   H1  H2  EPW O   H1  H2  EPW O   H1  H2  EPW O   
H1  H2  EPW O   H1  H2  EPW O   H1  H2  EPW O   H1  H2  EPW O   H1  H2  EPW O   
H1  H2  EPW O   H1  H2  EPW O   H1  H2  EPW O   H1  H2  EPW O   H1  H2  EPW O   
H1  H2  EPW O   H1  H2  EPW O   H1  H2  EPW O   H1  H2  EPW O   H1  H2  EPW O   
H1  H2  EPW O   H1  H2  EPW O   H1  H2  EPW O   H1  H2  EPW O   H1  H2  EPW O   
H1  H2  EPW O   H1  H2  EPW O   H1  H2  EPW O   H1  H2  EPW O   H1  H2  EPW O   
H1  H2  EPW O   H1  H2  EPW O   H1  H2  EPW O   H1  H2  EPW O   H1  H2  EPW O   
H1  H2  EPW O   H1  H2  EPW O   H1  H2  EPW O   H1  H2  EPW O   H1  H2  EPW O   
H1  H2  EPW O   H1  H2  EPW O   H1  H2  EPW O   H1  H2  EPW O   H1  H2  EPW O   
H1  H2  EPW O   H1  H2  EPW O   H1  H2  EPW O   H1  H2  EPW O   H1  H2  EPW O   
H1  H2  EPW O   H1  H2  EPW O   H1  H2  EPW O   H1  H2  EPW O   H1  H2  EPW O   
H1  H2  EPW O   H1  H2  EPW O   H1  H2  EPW O   H1  H2  EPW O   H1  H2  EPW O   
H1  H2  EPW O   H1  H2  EPW O   H1  H2  EPW O   H1  H2  EPW O   H1  H2  EPW O   
H1  H2  EPW O   H1  H2  EPW O   H1  H2  EPW O   H1  H2  EPW O   H1  H2  EPW O   
H1  H2  EPW O   H1  H2  EPW O   H1  H2  EPW O   H1  H2  EPW O   H1  H2  EPW O   
H1  H2  EPW O   H1  H2  EPW O   H1  H2  EPW O   H1  H2  EPW O   H1  H2  EPW O   
H1  H2  EPW O   H1  H2  EPW O   H1  H2  EPW O   H1  H2  EPW O   H1  H2  EPW O   
H1  H2  EPW O   H1  H2  EPW O   H1  H2  EPW O   H1  H2  EPW O   H1  H2  EPW O   
H1  H2  EPW O   H1  H2  EPW O   H1  H2  EPW O   H1  H2  EPW O   H1  H2  EPW O   
H1  H2  EPW O   H1  H2  EPW O   H1  H2  EPW O   H1  H2  EPW O   H1  H2  EPW O   
H1  H2  EPW O   H1  H2  EPW O   H1  H2  EPW O   H1  H2  EPW O   H1  H2  EPW O   
H1  H2  EPW O   H1  H2  EPW O   H1  H2  EPW O   H1  H2  EPW O   H1  H2  EPW O   
H1  H2  EPW O   H1  H2  EPW O   H1  H2  EPW O   H1  H2  EPW O   H1  H2  EPW O   
H1  H2  EPW O   H1  H2  EPW O   H1  H2  EPW O   H1  H2  EPW O   H1  H2  EPW O   
H1  H2  EPW O   H1  H2  EPW O   H1  H2  EPW O   H1  H2  EPW O   H1  H2  EPW O   
H1  H2  EPW O   H1  H2  EPW O   H1  H2  EPW O   H1  H2  EPW O   H1  H2  EPW O   
H1  H2  EPW O   H1  H2  EPW O   H1  H2  EPW O   H1  H2  EPW O   H1  H2  EPW O   
H1  H2  EPW O   H1  H2  EPW O   H1  H2  EPW O   H1  H2  EPW O   H1  H2  EPW O   
H1  H2  EPW O   H1  H2  EPW O   H1  H2  EPW O   H1  H2  EPW O   H1  H2  EPW O   
H1  H2  EPW O   H1  H2  EPW O   H1  H2  EPW O   H1  H2  EPW O   H1  H2  EPW O   
H1  H2  EPW O   H1  H2  EPW O   H1  H2  EPW O   H1  H2  EPW O   H1  H2  EPW O   
H1  H2  EPW O   H1  H2  EPW O   H1  H2  EPW O   H1  H2  EPW O   H1  H2  EPW O   
H1  H2  EPW O   H1  H2  EPW O   H1  H2  EPW O   H1  H2  EPW O   H1  H2  EPW O   
H1  H2  EPW O   H1  H2  EPW O   H1  H2  EPW O   H1  H2  EPW O   H1  H2  EPW O   
H1  H2  EPW O   H1  H2  EPW O   H1  H2  EPW O   H1  H2  EPW O   H1  H2  EPW O   
H1  H2  EPW O   H1  H2  EPW O   H1  H2  EPW O   H1  H2  EPW O   H1  H2  EPW O   
H1  H2  EPW O   H1  H2  EPW O   H1  H2  EPW O   H1  H2  EPW O   H1  H2  EPW O   
H1  H2  EPW O   H1  H2  EPW O   H1  H2  EPW O   H1  H2  EPW O   H1  H2  EPW O   
H1  H2  EPW O   H1  H2  EPW O   H1  H2  EPW O   H1  H2  EPW O   H1  H2  EPW 
%FLAG CHARGE                                                                    
%FORMAT(5E16.8)                                                                 
  2.04636429E+00 -6.67300626E+00  2.04636429E+00  2.04636429E+00  1.08823576E+01
 -1.03484442E+01 -6.33953817E+00  5.00566581E+00 -4.37335200E+00  2.59849998E+00
 -1.71289620E-01  6.59647260E-01  6.59647260E-01  3.40757010E-01  1.87689690E-01
  1.87689690E-01 -8.72848170E-01  1.13160483E+00  1.13160483E+00 -2.60578890E-01
  2.06823105E+00  2.06823105E+00 -7.02287442E+00  6.19558200E+00  6.19558200E+00
  6.19558200E+00  1.33769904E+01 -1.07402236E+01 -7.57501011E+00  4.95464337E+00
  6.14091510E-01  1.49969529E+00 -3.32556975E+00  1.09880469E+00  1.09880469E+00
  1.09880469E+00  1.08841798E+01 -1.03484442E+01 -9.40817349E+00  5.35006728E+00
  7.23425310E-01  2.01356415E+00  1.02044880E+00 -3.15245790E-01 -3.15245790E-01
  2.47823280E-01 -7.74447750E-01 -7.74447750E-01  1.46762404E+01 -1.49204192E+01
 -1.49204192E+01  9.77808618E+00 -1.06035564E+01 -7.57501011E+00  4.95464337E+00
 -2.71512270E+00  1.77849648E+00  1.77849648E+00  1.77849648E+00  0.00000000E+00
  1.23755293E+01  1.23755293E+01 -2.47510585E+01  0.00000000E+00  1.23755293E+01
  1.23755293E+01 -2.47510585E+01  0.00000000E+00  1.23755293E+01  1.23755293E+01
 -2.47510585E+01  0.00000000E+00  1.23755293E+01  1.23755293E+01 -2.47510585E+01
  0.00000000E+00  1.23755293E+01  1.23755293E+01 -2.47510585E+01  0.00000000E+00
  1.23755293E+01  1.23755293E+01 -2.47510585E+01  0.00000000E+00  1.23755293E+01
  1.23755293E+01 -2.47510585E+01  0.00000000E+00  1.23755293E+01  1.23755293E+01
 -2.47510585E+01  0.00000000E+00  1.23755293E+01  1.23755293E+01 -2.47510585E+01
  0.00000000E+00  1.23755293E+01  1.23755293E+01 -2.47510585E+01  0.00000000E+00
  1.23755293E+01  1.23755293E+01 -2.47510585E+01  0.00000000E+00  1.23755293E+01
  1.23755293E+01 -2.47510585E+01  0.00000000E+00  1.23755293E+01  1.23755293E+01
 -2.47510585E+01  0.00000000E+00  1.23755293E+01  1.23755293E+01 -2.47510585E+01
  0.00000000E+00  1.23755293E+01  1.23755293E+01 -2.47510585E+01  0.00000000E+00
  1.23755293E+01  1.23755293E+01 -2.47510585E+01  0.00000000E+00  1.23755293E+01
  1.23755293E+01 -2.47510585E+01  0.00000000E+00  1.23755293E+01  1.23755293E+01
 -2.47510585E+01  0.00000000E+00  1.23755293E+01  1.23755293E+01 -2.47510585E+01
  0.00000000E+00  1.23755293E+01  1.23755293E+01 -2.47510585E+01  0.00000000E+00
  1.23755293E+01  1.23755293E+01 -2.47510585E+01  0.00000000E+00  1.23755293E+01
  1.23755293E+01 -2.47510585E+01  0.00000000E+00  1.23755293E+01  1.23755293E+01
 -2.47510585E+01  0.00000000E+00  1.23755293E+01  1.23755293E+01 -2.47510585E+01
  0.00000000E+00  1.23755293E+01  1.23755293E+01 -2.47510585E+01  0.00000000E+00
  1.23755293E+01  1.23755293E+01 -2.47510585E+01  0.00000000E+00  1.23755293E+01
  1.23755293E+01 -2.47510585E+01  0.00000000E+00  1.23755293E+01  1.23755293E+01
 -2.47510585E+01  0.00000000E+00  1.23755293E+01  1.23755293E+01 -2.47510585E+01
  0.00000000E+00  1.23755293E+01  1.23755293E+01 -2.47510585E+01  0.00000000E+00
  1.23755293E+01  1.23755293E+01 -2.47510585E+01  0.00000000E+00  1.23755293E+01
  1.23755293E+01 -2.47510585E+01  0.00000000E+00  1.23755293E+01  1.23755293E+01
 -2.47510585E+01  0.00000000E+00  1.23755293E+01  1.23755293E+01 -2.47510585E+01
  0.00000000E+00  1.23755293E+01  1.23755293E+01 -2.47510585E+01  0.00000000E+00
  1.23755293E+01  1.23755293E+01 -2.47510585E+01  0.00000000E+00  1.23755293E+01
  1.23755293E+01 -2.47510585E+01  0.00000000E+00  1.23755293E+01  1.23755293E+01
 -2.47510585E+01  0.00000000E+00  1.23755293E+01  1.23755293E+01 -2.47510585E+01
  0.00000000E+00  1.23755293E+01  1.23755293E+01 -2.47510585E+01  0.00000000E+00
  1.23755293E+01  1.23755293E+01 -2.47510585E+01  0.00000000E+00  1.23755293E+01
  1.23755293E+01 -2.47510585E+01  0.00000000E+00  1.23755293E+01  1.23755293E+01
 -2.47510585E+01  0.00000000E+00  1.23755293E+01  1.23755293E+01 -2.47510585E+01
  0.00000000E+00  1.23755293E+01  1.23755293E+01 -2.47510585E+01  0.00000000E+00
  1.23755293E+01  1.23755293E+01 -2.47510585E+01  0.00000000E+00  1.23755293E+01
  1.23755293E+01 -2.47510585E+01  0.00000000E+00  1.23755293E+01  1.23755293E+01
 -2.47510585E+01  0.00000000E+00  1.23755293E+01  1.23755293E+01 -2.47510585E+01
  0.00000000E+00  1.23755293E+01  1.23755293E+01 -2.47510585E+01  0.00000000E+00
  1.23755293E+01  1.23755293E+01 -2.47510585E+01  0.00000000E+00  1.23755293E+01
  1.23755293E+01 -2.47510585E+01  0.00000000E+00  1.23755293E+01  1.23755293E+01
 -2.47510585E+01  0.00000000E+00  1.23755293E+01  1.23755293E+01 -2.47510585E+01
  0.00000000E+00  1.23755293E+01  1.23755293E+01 -2.47510585E+01  0.00000000E+00
  1.23755293E+01  1.23755293E+01 -2.47510585E+01  0.00000000E+00  1.23755293E+01
  1.23755293E+01 -2.47510585E+01  0.00000000E+00  1.23755293E+01  1.23755293E+01
 -2.47510585E+01  0.00000000E+00  1.23755293E+01  1.23755293E+01 -2.47510585E+01
  0.00000000E+00  1.23755293E+01  1.23755293E+01 -2.47510585E+01  0.00000000E+00
  1.23755293E+01  1.23755293E+01 -2.47510585E+01  0.00000000E+00  1.23755293E+01
  1.23755293E+01 -2.47510585E+01  0.00000000E+00  1.23755293E+01  1.23755293E+01
 -2.47510585E+01  0.00000000E+00  1.23755293E+01  1.23755293E+01 -2.47510585E+01
  0.00000000E+00  1.23755293E+01  1.23755293E+01 -2.47510585E+01  0.00000000E+00
  1.23755293E+01  1.23755293E+01 -2.47510585E+01  0.00000000E+00  1.23755293E+01
  1.23755293E+01 -2.47510585E+01  0.00000000E+00  1.23755293E+01  1.23755293E+01
 -2.47510585E+01  0.00000000E+00  1.23755293E+01  1.23755293E+01 -2.47510585E+01
  0.00000000E+00  1.23755293E+01  1.23755293E+01 -2.47510585E+01  0.00000000E+00
  1.23755293E+01  1.23755293E+01 -2.47510585E+01  0.00000000E+00  1.23755293E+01
  1.23755293E+01 -2.47510585E+01  0.00000000E+00  1.23755293E+01  1.23755293E+01
 -2.47510585E+01  0.00000000E+00  1.23755293E+01  1.23755293E+01 -2.47510585E+01
  0.00000000E+00  1.23755293E+01  1.23755293E+01 -2.47510585E+01  0.00000000E+00
  1.23755293E+01  1.23755293E+01 -2.47510585E+01  0.00000000E+00  1.23755293E+01
  1.23755293E+01 -2.47510585E+01  0.00000000E+00  1.23755293E+01  1.23755293E+01
 -2.47510585E+01  0.00000000E+00  1.23755293E+01  1.23755293E+01 -2.47510585E+01
  0.00000000E+00  1.23755293E+01  1.23755293E+01 -2.47510585E+01  0.00000000E+00
  1.23755293E+01  1.23755293E+01 -2.47510585E+01  0.00000000E+00  1.23755293E+01
  1.23755293E+01 -2.47510585E+01  0.00000000E+00  1.23755293E+01  1.23755293E+01
 -2.47510585E+01  0.00000000E+00  1.23755293E+01  1.23755293E+01 -2.47510585E+01
  0.00000000E+00  1.23755293E+01  1.23755293E+01 -2.47510585E+01  0.00000000E+00
  1.23755293E+01  1.23755293E+01 -2.47510585E+01  0.00000000E+00  1.23755293E+01
  1.23755293E+01 -2.47510585E+01  0.00000000E+00  1.23755293E+01  1.23755293E+01
 -2.47510585E+01  0.00000000E+00  1.23755293E+01  1.23755293E+01 -2.47510585E+01
  0.00000000E+00  1.23755293E+01  1.23755293E+01 -2.47510585E+01  0.00000000E+00
  1.23755293E+01  1.23755293E+01 -2.47510585E+01  0.00000000E+00  1.23755293E+01
  1.23755293E+01 -2.47510585E+01  0.00000000E+00  1.23755293E+01  1.23755293E+01
 -2.47510585E+01  0.00000000E+00  1.23755293E+01  1.23755293E+01 -2.47510585E+01
  0.00000000E+00  1.23755293E+01  1.23755293E+01 -2.47510585E+01  0.00000000E+00
  1.23755293E+01  1.23755293E+01 -2.47510585E+01  0.00000000E+00  1.23755293E+01
  1.23755293E+01 -2.47510585E+01  0.00000000E+00  1.23755293E+01  1.23755293E+01
 -2.47510585E+01  0.00000000E+00  1.23755293E+01  1.23755293E+01 -2.47510585E+01
  0.00000000E+00  1.23755293E+01  1.23755293E+01 -2.47510585E+01  0.00000000E+00
  1.23755293E+01  1.23755293E+01 -2.47510585E+01  0.00000000E+00  1.23755293E+01
  1.23755293E+01 -2.47510585E+01  0.00000000E+00  1.23755293E+01  1.23755293E+01
 -2.47510585E+01  0.00000000E+00  1.23755293E+01  1.23755293E+01 -2.47510585E+01
  0.00000000E+00  1.23755293E+01  1.23755293E+01 -2.47510585E+01  0.00000000E+00
  1.23755293E+01  1.23755293E+01 -2.47510585E+01  0.00000000E+00  1.23755293E+01
  1.23755293E+01 -2.47510585E+01  0.00000000E+00  1.23755293E+01  1.23755293E+01
 -2.47510585E+01  0.00000000E+00  1.23755293E+01  1.23755293E+01 -2.47510585E+01
  0.00000000E+00  1.23755293E+01  1.23755293E+01 -2.47510585E+01  0.00000000E+00
  1.23755293E+01  1.23755293E+01 -2.47510585E+01  0.00000000E+00  1.23755293E+01
  1.23755293E+01 -2.47510585E+01  0.00000000E+00  1.23755293E+01  1.23755293E+01
 -2.47510585E+01  0.00000000E+00  1.23755293E+01  1.23755293E+01 -2.47510585E+01
  0.00000000E+00  1.23755293E+01  1.23755293E+01 -2.47510585E+01  0.00000000E+00
  1.23755293E+01  1.23755293E+01 -2.47510585E+01  0.00000000E+00  1.23755293E+01
  1.23755293E+01 -2.47510585E+01  0.00000000E+00  1.23755293E+01  1.23755293E+01
 -2.47510585E+01  0.00000000E+00  1.23755293E+01  1.23755293E+01 -2.47510585E+01
  0.00000000E+00  1.23755293E+01  1.23755293E+01 -2.47510585E+01  0.00000000E+00
  1.23755293E+01  1.23755293E+01 -2.47510585E+01  0.00000000E+00  1.23755293E+01
  1.23755293E+01 -2.47510585E+01  0.00000000E+00  1.23755293E+01  1.23755293E+01
 -2.47510585E+01  0.00000000E+00  1.23755293E+01  1.23755293E+01 -2.47510585E+01
  0.00000000E+00  1.23755293E+01  1.23755293E+01 -2.47510585E+01  0.00000000E+00
  1.23755293E+01  1.23755293E+01 -2.47510585E+01  0.00000000E+00  1.23755293E+01
  1.23755293E+01 -2.47510585E+01  0.00000000E+00  1.23755293E+01  1.23755293E+01
 -2.47510585E+01  0.00000000E+00  1.23755293E+01  1.23755293E+01 -2.47510585E+01
  0.00000000E+00  1.23755293E+01  1.23755293E+01 -2.47510585E+01  0.00000000E+00
  1.23755293E+01  1.23755293E+01 -2.47510585E+01  0.00000000E+00  1.23755293E+01
  1.23755293E+01 -2.47510585E+01  0.00000000E+00  1.23755293E+01  1.23755293E+01
 -2.47510585E+01  0.00000000E+00  1.23755293E+01  1.23755293E+01 -2.47510585E+01
  0.00000000E+00  1.23755293E+01  1.23755293E+01 -2.47510585E+01  0.00000000E+00
  1.23755293E+01  1.23755293E+01 -2.47510585E+01  0.00000000E+00  1.23755293E+01
  1.23755293E+01 -2.47510585E+01  0.00000000E+00  1.23755293E+01  1.23755293E+01
 -2.47510585E+01  0.00000000E+00  1.23755293E+01  1.23755293E+01 -2.47510585E+01
  0.00000000E+00  1.23755293E+01  1.23755293E+01 -2.47510585E+01  0.00000000E+00
  1.23755293E+01  1.23755293E+01 -2.47510585E+01  0.00000000E+00  1.23755293E+01
  1.23755293E+01 -2.47510585E+01  0.00000000E+00  1.23755293E+01  1.23755293E+01
 -2.47510585E+01  0.00000000E+00  1.23755293E+01  1.23755293E+01 -2.47510585E+01
  0.00000000E+00  1.23755293E+01  1.23755293E+01 -2.47510585E+01  0.00000000E+00
  1.23755293E+01  1.23755293E+01 -2.47510585E+01  0.00000000E+00  1.23755293E+01
  1.23755293E+01 -2.47510585E+01  0.00000000E+00  1.23755293E+01  1.23755293E+01
 -2.47510585E+01  0.00000000E+00  1.23755293E+01  1.23755293E+01 -2.47510585E+01
  0.00000000E+00  1.23755293E+01  1.23755293E+01 -2.47510585E+01  0.00000000E+00
  1.23755293E+01  1.23755293E+01 -2.47510585E+01  0.00000000E+00  1.23755293E+01
  1.23755293E+01 -2.47510585E+01  0.00000000E+00  1.23755293E+01  1.23755293E+01
 -2.47510585E+01  0.00000000E+00  1.23755293E+01  1.23755293E+01 -2.47510585E+01
  0.00000000E+00  1.23755293E+01  1.23755293E+01 -2.47510585E+01  0.00000000E+00
  1.23755293E+01  1.23755293E+01 -2.47510585E+01  0.00000000E+00  1.23755293E+01
  1.23755293E+01 -2.47510585E+01  0.00000000E+00  1.23755293E+01  1.23755293E+01
 -2.47510585E+01  0.00000000E+00  1.23755293E+01  1.23755293E+01 -2.47510585E+01
  0.00000000E+00  1.23755293E+01  1.23755293E+01 -2.47510585E+01  0.00000000E+00
  1.23755293E+01  1.23755293E+01 -2.47510585E+01  0.00000000E+00  1.23755293E+01
  1.23755293E+01 -2.47510585E+01  0.00000000E+00  1.23755293E+01  1.23755293E+01
 -2.47510585E+01  0.00000000E+00  1.23755293E+01  1.23755293E+01 -2.47510585E+01
  0.00000000E+00  1.23755293E+01  1.23755293E+01 -2.47510585E+01  0.00000000E+00
  1.23755293E+01  1.23755293E+01 -2.47510585E+01  0.00000000E+00  1.23755293E+01
  1.23755293E+01 -2.47510585E+01  0.00000000E+00  1.23755293E+01  1.23755293E+01
 -2.47510585E+01  0.00000000E+00  1.23755293E+01  1.23755293E+01 -2.47510585E+01
  0.00000000E+00  1.23755293E+01  1.23755293E+01 -2.47510585E+01  0.00000000E+00
  1.23755293E+01  1.23755293E+01 -2.47510585E+01  0.00000000E+00  1.23755293E+01
  1.23755293E+01 -2.47510585E+01  0.00000000E+00  1.23755293E+01  1.23755293E+01
 -2.47510585E+01  0.00000000E+00  1.23755293E+01  1.23755293E+01 -2.47510585E+01
  0.00000000E+00  1.23755293E+01  1.23755293E+01 -2.47510585E+01  0.00000000E+00
  1.23755293E+01  1.23755293E+01 -2.47510585E+01  0.00000000E+00  1.23755293E+01
  1.23755293E+01 -2.47510585E+01  0.00000000E+00  1.23755293E+01  1.23755293E+01
 -2.47510585E+01  0.00000000E+00  1.23755293E+01  1.23755293E+01 -2.47510585E+01
  0.00000000E+00  1.23755293E+01  1.23755293E+01 -2.47510585E+01  0.00000000E+00
  1.23755293E+01  1.23755293E+01 -2.47510585E+01  0.00000000E+00  1.23755293E+01
  1.23755293E+01 -2.47510585E+01  0.00000000E+00  1.23755293E+01  1.23755293E+01
 -2.47510585E+01  0.00000000E+00  1.23755293E+01  1.23755293E+01 -2.47510585E+01
  0.00000000E+00  1.23755293E+01  1.23755293E+01 -2.47510585E+01  0.00000000E+00
  1.23755293E+01  1.23755293E+01 -2.47510585E+01  0.00000000E+00  1.23755293E+01
  1.23755293E+01 -2.47510585E+01  0.00000000E+00  1.23755293E+01  1.23755293E+01
 -2.47510585E+01  0.00000000E+00  1.23755293E+01  1.23755293E+01 -2.47510585E+01
  0.00000000E+00  1.23755293E+01  1.23755293E+01 -2.47510585E+01  0.00000000E+00
  1.23755293E+01  1.23755293E+01 -2.47510585E+01  0.00000000E+00  1.23755293E+01
  1.23755293E+01 -2.47510585E+01  0.00000000E+00  1.23755293E+01  1.23755293E+01
 -2.47510585E+01  0.00000000E+00  1.23755293E+01  1.23755293E+01 -2.47510585E+01
  0.00000000E+00  1.23755293E+01  1.23755293E+01 -2.47510585E+01  0.00000000E+00
  1.23755293E+01  1.23755293E+01 -2.47510585E+01  0.00000000E+00  1.23755293E+01
  1.23755293E+01 -2.47510585E+01  0.00000000E+00  1.23755293E+01  1.23755293E+01
 -2.47510585E+01  0.00000000E+00  1.23755293E+01  1.23755293E+01 -2.47510585E+01
  0.00000000E+00  1.23755293E+01  1.23755293E+01 -2.47510585E+01  0.00000000E+00
  1.23755293E+01  1.23755293E+01 -2.47510585E+01  0.00000000E+00  1.23755293E+01
  1.23755293E+01 -2.47510585E+01  0.00000000E+00  1.23755293E+01  1.23755293E+01
 -2.47510585E+01  0.00000000E+00  1.23755293E+01  1.23755293E+01 -2.47510585E+01
  0.00000000E+00  1.23755293E+01  1.23755293E+01 -2.47510585E+01  0.00000000E+00
  1.23755293E+01  1.23755293E+01 -2.47510585E+01  0.00000000E+00  1.23755293E+01
  1.23755293E+01 -2.47510585E+01  0.00000000E+00  1.23755293E+01  1.23755293E+01
 -2.47510585E+01  0.00000000E+00  1.23755293E+01  1.23755293E+01 -2.47510585E+01
  0.00000000E+00  1.23755293E+01  1.23755293E+01 -2.47510585E+01  0.00000000E+00
  1.23755293E+01  1.23755293E+01 -2.47510585E+01  0.00000000E+00  1.23755293E+01
  1.23755293E+01 -2.47510585E+01  0.00000000E+00  1.23755293E+01  1.23755293E+01
 -2.47510585E+01  0.00000000E+00  1.23755293E+01  1.23755293E+01 -2.47510585E+01
  0.00000000E+00  1.23755293E+01  1.23755293E+01 -2.47510585E+01  0.00000000E+00
  1.23755293E+01  1.23755293E+01 -2.47510585E+01  0.00000000E+00  1.23755293E+01
  1.23755293E+01 -2.47510585E+01  0.00000000E+00  1.23755293E+01  1.23755293E+01
 -2.47510585E+01  0.00000000E+00  1.23755293E+01  1.23755293E+01 -2.47510585E+01
  0.00000000E+00  1.23755293E+01  1.23755293E+01 -2.47510585E+01  0.00000000E+00
  1.23755293E+01  1.23755293E+01 -2.47510585E+01  0.00000000E+00  1.23755293E+01
  1.23755293E+01 -2.47510585E+01  0.00000000E+00  1.23755293E+01  1.23755293E+01
 -2.47510585E+01  0.00000000E+00  1.23755293E+01  1.23755293E+01 -2.47510585E+01
  0.00000000E+00  1.23755293E+01  1.23755293E+01 -2.47510585E+01  0.00000000E+00
  1.23755293E+01  1.23755293E+01 -2.47510585E+01  0.00000000E+00  1.23755293E+01
  1.23755293E+01 -2.47510585E+01  0.00000000E+00  1.23755293E+01  1.23755293E+01
 -2.47510585E+01  0.00000000E+00  1.23755293E+01  1.23755293E+01 -2.47510585E+01
  0.00000000E+00  1.23755293E+01  1.23755293E+01 -2.47510585E+01  0.00000000E+00
  1.23755293E+01  1.23755293E+01 -2.47510585E+01  0.00000000E+00  1.23755293E+01
  1.23755293E+01 -2.47510585E+01  0.00000000E+00  1.23755293E+01  1.23755293E+01
 -2.47510585E+01  0.00000000E+00  1.23755293E+01  1.23755293E+01 -2.47510585E+01
  0.00000000E+00  1.23755293E+01  1.23755293E+01 -2.47510585E+01  0.00000000E+00
  1.23755293E+01  1.23755293E+01 -2.47510585E+01  0.00000000E+00  1.23755293E+01
  1.23755293E+01 -2.47510585E+01  0.00000000E+00  1.23755293E+01  1.23755293E+01
 -2.47510585E+01  0.00000000E+00  1.23755293E+01  1.23755293E+01 -2.47510585E+01
  0.00000000E+00  1.23755293E+01  1.23755293E+01 -2.47510585E+01  0.00000000E+00
  1.23755293E+01  1.23755293E+01 -2.47510585E+01  0.00000000E+00  1.23755293E+01
  1.23755293E+01 -2.47510585E+01  0.00000000E+00  1.23755293E+01  1.23755293E+01
 -2.47510585E+01  0.00000000E+00  1.23755293E+01  1.23755293E+01 -2.47510585E+01
  0.00000000E+00  1.23755293E+01  1.23755293E+01 -2.47510585E+01  0.00000000E+00
  1.23755293E+01  1.23755293E+01 -2.47510585E+01  0.00000000E+00  1.23755293E+01
  1.23755293E+01 -2.47510585E+01  0.00000000E+00  1.23755293E+01  1.23755293E+01
 -2.47510585E+01  0.00000000E+00  1.23755293E+01  1.23755293E+01 -2.47510585E+01
  0.00000000E+00  1.23755293E+01  1.23755293E+01 -2.47510585E+01  0.00000000E+00
  1.23755293E+01  1.23755293E+01 -2.47510585E+01  0.00000000E+00  1.23755293E+01
  1.23755293E+01 -2.47510585E+01  0.00000000E+00  1.23755293E+01  1.23755293E+01
 -2.47510585E+01  0.00000000E+00  1.23755293E+01  1.23755293E+01 -2.47510585E+01
  0.00000000E+00  1.23755293E+01  1.23755293E+01 -2.47510585E+01  0.00000000E+00
  1.23755293E+01  1.23755293E+01 -2.47510585E+01  0.00000000E+00  1.23755293E+01
  1.23755293E+01 -2.47510585E+01  0.00000000E+00  1.23755293E+01  1.23755293E+01
 -2.47510585E+01  0.00000000E+00  1.23755293E+01  1.23755293E+01 -2.47510585E+01
  0.00000000E+00  1.23755293E+01  1.23755293E+01 -2.47510585E+01  0.00000000E+00
  1.23755293E+01  1.23755293E+01 -2.47510585E+01  0.00000000E+00  1.23755293E+01
  1.23755293E+01 -2.47510585E+01  0.00000000E+00  1.23755293E+01  1.23755293E+01
 -2.47510585E+01  0.00000000E+00  1.23755293E+01  1.23755293E+01 -2.47510585E+01
  0.00000000E+00  1.23755293E+01  1.23755293E+01 -2.47510585E+01  0.00000000E+00
  1.23755293E+01  1.23755293E+01 -2.47510585E+01  0.00000000E+00  1.23755293E+01
  1.23755293E+01 -2.47510585E+01  0.00000000E+00  1.23755293E+01  1.23755293E+01
 -2.47510585E+01  0.00000000E+00  1.23755293E+01  1.23755293E+01 -2.47510585E+01
  0.00000000E+00  1.23755293E+01  1.23755293E+01 -2.47510585E+01  0.00000000E+00
  1.23755293E+01  1.23755293E+01 -2.47510585E+01  0.00000000E+00  1.23755293E+01
  1.23755293E+01 -2.47510585E+01  0.00000000E+00  1.23755293E+01  1.23755293E+01
 -2.47510585E+01  0.00000000E+00  1.23755293E+01  1.23755293E+01 -2.47510585E+01
  0.00000000E+00  1.23755293E+01  1.23755293E+01 -2.47510585E+01  0.00000000E+00
  1.23755293E+01  1.23755293E+01 -2.47510585E+01  0.00000000E+00  1.23755293E+01
  1.23755293E+01 -2.47510585E+01  0.00000000E+00  1.23755293E+01  1.23755293E+01
 -2.47510585E+01  0.00000000E+00  1.23755293E+01  1.23755293E+01 -2.47510585E+01
  0.00000000E+00  1.23755293E+01  1.23755293E+01 -2.47510585E+01  0.00000000E+00
  1.23755293E+01  1.23755293E+01 -2.47510585E+01  0.00000000E+00  1.23755293E+01
  1.23755293E+01 -2.47510585E+01  0.00000000E+00  1.23755293E+01  1.23755293E+01
 -2.47510585E+01  0.00000000E+00  1.23755293E+01  1.23755293E+01 -2.47510585E+01
  0.00000000E+00  1.23755293E+01  1.23755293E+01 -2.47510585E+01  0.00000000E+00
  1.23755293E+01  1.23755293E+01 -2.47510585E+01  0.00000000E+00  1.23755293E+01
  1.23755293E+01 -2.47510585E+01  0.00000000E+00  1.23755293E+01  1.23755293E+01
 -2.47510585E+01  0.00000000E+00  1.23755293E+01  1.23755293E+01 -2.47510585E+01
  0.00000000E+00  1.23755293E+01  1.23755293E+01 -2.47510585E+01  0.00000000E+00
  1.23755293E+01  1.23755293E+01 -2.47510585E+01  0.00000000E+00  1.23755293E+01
  1.23755293E+01 -2.47510585E+01  0.00000000E+00  1.23755293E+01  1.23755293E+01
 -2.47510585E+01  0.00000000E+00  1.23755293E+01  1.23755293E+01 -2.47510585E+01
  0.00000000E+00  1.23755293E+01  1.23755293E+01 -2.47510585E+01  0.00000000E+00
  1.23755293E+01  1.23755293E+01 -2.47510585E+01  0.00000000E+00  1.23755293E+01
  1.23755293E+01 -2.47510585E+01  0.00000000E+00  1.23755293E+01  1.23755293E+01
 -2.47510585E+01  0.00000000E+00  1.23755293E+01  1.23755293E+01 -2.47510585E+01
  0.00000000E+00  1.23755293E+01  1.23755293E+01 -2.47510585E+01  0.00000000E+00
  1.23755293E+01  1.23755293E+01 -2.47510585E+01  0.00000000E+00  1.23755293E+01
  1.23755293E+01 -2.47510585E+01  0.00000000E+00  1.23755293E+01  1.23755293E+01
 -2.47510585E+01  0.00000000E+00  1.23755293E+01  1.23755293E+01 -2.47510585E+01
  0.00000000E+00  1.23755293E+01  1.23755293E+01 -2.47510585E+01  0.00000000E+00
  1.23755293E+01  1.23755293E+01 -2.47510585E+01  0.00000000E+00  1.23755293E+01
  1.23755293E+01 -2.47510585E+01  0.00000000E+00  1.23755293E+01  1.23755293E+01
 -2.47510585E+01  0.00000000E+00  1.23755293E+01  1.23755293E+01 -2.47510585E+01
  0.00000000E+00  1.23755293E+01  1.23755293E+01 -2.47510585E+01  0.00000000E+00
  1.23755293E+01  1.23755293E+01 -2.47510585E+01  0.00000000E+00  1.23755293E+01
  1.23755293E+01 -2.47510585E+01  0.00000000E+00  1.23755293E+01  1.23755293E+01
 -2.47510585E+01  0.00000000E+00  1.23755293E+01  1.23755293E+01 -2.47510585E+01
  0.00000000E+00  1.23755293E+01  1.23755293E+01 -2.47510585E+01  0.00000000E+00
  1.23755293E+01  1.23755293E+01 -2.47510585E+01  0.00000000E+00  1.23755293E+01
  1.23755293E+01 -2.47510585E+01  0.00000000E+00  1.23755293E+01  1.23755293E+01
 -2.47510585E+01  0.00000000E+00  1.23755293E+01  1.23755293E+01 -2.47510585E+01
  0.00000000E+00  1.23755293E+01  1.23755293E+01 -2.47510585E+01  0.00000000E+00
  1.23755293E+01  1.23755293E+01 -2.47510585E+01  0.00000000E+00  1.23755293E+01
  1.23755293E+01 -2.47510585E+01  0.00000000E+00  1.23755293E+01  1.23755293E+01
 -2.47510585E+01  0.00000000E+00  1.23755293E+01  1.23755293E+01 -2.47510585E+01
  0.00000000E+00  1.23755293E+01  1.23755293E+01 -2.47510585E+01  0.00000000E+00
  1.23755293E+01  1.23755293E+01 -2.47510585E+01  0.00000000E+00  1.23755293E+01
  1.23755293E+01 -2.47510585E+01  0.00000000E+00  1.23755293E+01  1.23755293E+01
 -2.47510585E+01  0.00000000E+00  1.23755293E+01  1.23755293E+01 -2.47510585E+01
  0.00000000E+00  1.23755293E+01  1.23755293E+01 -2.47510585E+01  0.00000000E+00
  1.23755293E+01  1.23755293E+01 -2.47510585E+01  0.00000000E+00  1.23755293E+01
  1.23755293E+01 -2.47510585E+01  0.00000000E+00  1.23755293E+01  1.23755293E+01
 -2.47510585E+01  0.00000000E+00  1.23755293E+01  1.23755293E+01 -2.47510585E+01
  0.00000000E+00  1.23755293E+01  1.23755293E+01 -2.47510585E+01  0.00000000E+00
  1.23755293E+01  1.23755293E+01 -2.47510585E+01  0.00000000E+00  1.23755293E+01
  1.23755293E+01 -2.47510585E+01  0.00000000E+00  1.23755293E+01  1.23755293E+01
 -2.47510585E+01  0.00000000E+00  1.23755293E+01  1.23755293E+01 -2.47510585E+01
  0.00000000E+00  1.23755293E+01  1.23755293E+01 -2.47510585E+01  0.00000000E+00
  1.23755293E+01  1.23755293E+01 -2.47510585E+01  0.00000000E+00  1.23755293E+01
  1.23755293E+01 -2.47510585E+01  0.00000000E+00  1.23755293E+01  1.23755293E+01
 -2.47510585E+01  0.00000000E+00  1.23755293E+01  1.23755293E+01 -2.47510585E+01
  0.00000000E+00  1.23755293E+01  1.23755293E+01 -2.47510585E+01  0.00000000E+00
  1.23755293E+01  1.23755293E+01 -2.47510585E+01  0.00000000E+00  1.23755293E+01
  1.23755293E+01 -2.47510585E+01  0.00000000E+00  1.23755293E+01  1.23755293E+01
 -2.47510585E+01  0.00000000E+00  1.23755293E+01  1.23755293E+01 -2.47510585E+01
  0.00000000E+00  1.23755293E+01  1.23755293E+01 -2.47510585E+01  0.00000000E+00
  1.23755293E+01  1.23755293E+01 -2.47510585E+01  0.00000000E+00  1.23755293E+01
  1.23755293E+01 -2.47510585E+01  0.00000000E+00  1.23755293E+01  1.23755293E+01
 -2.47510585E+01  0.00000000E+00  1.23755293E+01  1.23755293E+01 -2.47510585E+01
  0.00000000E+00  1.23755293E+01  1.23755293E+01 -2.47510585E+01  0.00000000E+00
  1.23755293E+01  1.23755293E+01 -2.47510585E+01  0.00000000E+00  1.23755293E+01
  1.23755293E+01 -2.47510585E+01  0.00000000E+00  1.23755293E+01  1.23755293E+01
 -2.47510585E+01  0.00000000E+00  1.23755293E+01  1.23755293E+01 -2.47510585E+01
  0.00000000E+00  1.23755293E+01  1.23755293E+01 -2.47510585E+01  0.00000000E+00
  1.23755293E+01  1.23755293E+01 -2.47510585E+01  0.00000000E+00  1.23755293E+01
  1.23755293E+01 -2.47510585E+01  0.00000000E+00  1.23755293E+01  1.23755293E+01
 -2.47510585E+01  0.00000000E+00  1.23755293E+01  1.23755293E+01 -2.47510585E+01
  0.00000000E+00  1.23755293E+01  1.23755293E+01 -2.47510585E+01  0.00000000E+00
  1.23755293E+01  1.23755293E+01 -2.47510585E+01  0.00000000E+00  1.23755293E+01
  1.23755293E+01 -2.47510585E+01  0.00000000E+00  1.23755293E+01  1.23755293E+01
 -2.47510585E+01  0.00000000E+00  1.23755293E+01  1.23755293E+01 -2.47510585E+01
  0.00000000E+00  1.23755293E+01  1.23755293E+01 -2.47510585E+01  0.00000000E+00
  1.23755293E+01  1.23755293E+01 -2.47510585E+01  0.00000000E+00  1.23755293E+01
  1.23755293E+01 -2.47510585E+01  0.00000000E+00  1.23755293E+01  1.23755293E+01
 -2.47510585E+01  0.00000000E+00  1.23755293E+01  1.23755293E+01 -2.47510585E+01
  0.00000000E+00  1.23755293E+01  1.23755293E+01 -2.47510585E+01  0.00000000E+00
  1.23755293E+01  1.23755293E+01 -2.47510585E+01  0.00000000E+00  1.23755293E+01
  1.23755293E+01 -2.47510585E+01  0.00000000E+00  1.23755293E+01  1.23755293E+01
 -2.47510585E+01  0.00000000E+00  1.23755293E+01  1.23755293E+01 -2.47510585E+01
  0.00000000E+00  1.23755293E+01  1.23755293E+01 -2.47510585E+01  0.00000000E+00
  1.23755293E+01  1.23755293E+01 -2.47510585E+01  0.00000000E+00  1.23755293E+01
  1.23755293E+01 -2.47510585E+01  0.00000000E+00  1.23755293E+01  1.23755293E+01
 -2.47510585E+01  0.00000000E+00  1.23755293E+01  1.23755293E+01 -2.47510585E+01
  0.00000000E+00  1.23755293E+01  1.23755293E+01 -2.47510585E+01  0.00000000E+00
  1.23755293E+01  1.23755293E+01 -2.47510585E+01  0.00000000E+00  1.23755293E+01
  1.23755293E+01 -2.47510585E+01  0.00000000E+00  1.23755293E+01  1.23755293E+01
 -2.47510585E+01  0.00000000E+00  1.23755293E+01  1.23755293E+01 -2.47510585E+01
  0.00000000E+00  1.23755293E+01  1.23755293E+01 -2.47510585E+01  0.00000000E+00
  1.23755293E+01  1.23755293E+01 -2.47510585E+01  0.00000000E+00  1.23755293E+01
  1.23755293E+01 -2.47510585E+01  0.00000000E+00  1.23755293E+01  1.23755293E+01
 -2.47510585E+01  0.00000000E+00  1.23755293E+01  1.23755293E+01 -2.47510585E+01
  0.00000000E+00  1.23755293E+01  1.23755293E+01 -2.47510585E+01  0.00000000E+00
  1.23755293E+01  1.23755293E+01 -2.47510585E+01  0.00000000E+00  1.23755293E+01
  1.23755293E+01 -2.47510585E+01  0.00000000E+00  1.23755293E+01  1.23755293E+01
 -2.47510585E+01  0.00000000E+00  1.23755293E+01  1.23755293E+01 -2.47510585E+01
  0.00000000E+00  1.23755293E+01  1.23755293E+01 -2.47510585E+01  0.00000000E+00
  1.23755293E+01  1.23755293E+01 -2.47510585E+01  0.00000000E+00  1.23755293E+01
  1.23755293E+01 -2.47510585E+01  0.00000000E+00  1.23755293E+01  1.23755293E+01
 -2.47510585E+01  0.00000000E+00  1.23755293E+01  1.23755293E+01 -2.47510585E+01
  0.00000000E+00  1.23755293E+01  1.23755293E+01 -2.47510585E+01  0.00000000E+00
  1.23755293E+01  1.23755293E+01 -2.47510585E+01  0.00000000E+00  1.23755293E+01
  1.23755293E+01 -2.47510585E+01  0.00000000E+00  1.23755293E+01  1.23755293E+01
 -2.47510585E+01  0.00000000E+00  1.23755293E+01  1.23755293E+01 -2.47510585E+01
  0.00000000E+00  1.23755293E+01  1.23755293E+01 -2.47510585E+01  0.00000000E+00
  1.23755293E+01  1.23755293E+01 -2.47510585E+01  0.00000000E+00  1.23755293E+01
  1.23755293E+01 -2.47510585E+01  0.00000000E+00  1.23755293E+01  1.23755293E+01
 -2.47510585E+01  0.00000000E+00  1.23755293E+01  1.23755293E+01 -2.47510585E+01
  0.00000000E+00  1.23755293E+01  1.23755293E+01 -2.47510585E+01  0.00000000E+00
  1.23755293E+01  1.23755293E+01 -2.47510585E+01  0.00000000E+00  1.23755293E+01
  1.23755293E+01 -2.47510585E+01  0.00000000E+00  1.23755293E+01  1.23755293E+01
 -2.47510585E+01  0.00000000E+00  1.23755293E+01  1.23755293E+01 -2.47510585E+01
  0.00000000E+00  1.23755293E+01  1.23755293E+01 -2.47510585E+01  0.00000000E+00
  1.23755293E+01  1.23755293E+01 -2.47510585E+01  0.00000000E+00  1.23755293E+01
  1.23755293E+01 -2.47510585E+01  0.00000000E+00  1.23755293E+01  1.23755293E+01
 -2.47510585E+01  0.00000000E+00  1.23755293E+01  1.23755293E+01 -2.47510585E+01
  0.00000000E+00  1.23755293E+01  1.23755293E+01 -2.47510585E+01  0.00000000E+00
  1.23755293E+01  1.23755293E+01 -2.47510585E+01  0.00000000E+00  1.23755293E+01
  1.23755293E+01 -2.47510585E+01  0.00000000E+00  1.23755293E+01  1.23755293E+01
 -2.47510585E+01  0.00000000E+00  1.23755293E+01  1.23755293E+01 -2.47510585E+01
  0.00000000E+00  1.23755293E+01  1.23755293E+01 -2.47510585E+01  0.00000000E+00
  1.23755293E+01  1.23755293E+01 -2.47510585E+01  0.00000000E+00  1.23755293E+01
  1.23755293E+01 -2.47510585E+01  0.00000000E+00  1.23755293E+01  1.23755293E+01
 -2.47510585E+01  0.00000000E+00  1.23755293E+01  1.23755293E+01 -2.47510585E+01
  0.00000000E+00  1.23755293E+01  1.23755293E+01 -2.47510585E+01  0.00000000E+00
  1.23755293E+01  1.23755293E+01 -2.47510585E+01  0.00000000E+00  1.23755293E+01
  1.23755293E+01 -2.47510585E+01  0.00000000E+00  1.23755293E+01  1.23755293E+01
 -2.47510585E+01  0.00000000E+00  1.23755293E+01  1.23755293E+01 -2.47510585E+01
  0.00000000E+00  1.23755293E+01  1.23755293E+01 -2.47510585E+01  0.00000000E+00
  1.23755293E+01  1.23755293E+01 -2.47510585E+01  0.00000000E+00  1.23755293E+01
  1.23755293E+01 -2.47510585E+01  0.00000000E+00  1.23755293E+01  1.23755293E+01
 -2.47510585E+01  0.00000000E+00  1.23755293E+01  1.23755293E+01 -2.47510585E+01
  0.00000000E+00  1.23755293E+01  1.23755293E+01 -2.47510585E+01  0.00000000E+00
  1.23755293E+01  1.23755293E+01 -2.47510585E+01  0.00000000E+00  1.23755293E+01
  1.23755293E+01 -2.47510585E+01  0.00000000E+00  1.23755293E+01  1.23755293E+01
 -2.47510585E+01  0.00000000E+00  1.23755293E+01  1.23755293E+01 -2.47510585E+01
  0.00000000E+00  1.23755293E+01  1.23755293E+01 -2.47510585E+01  0.00000000E+00
  1.23755293E+01  1.23755293E+01 -2.47510585E+01  0.00000000E+00  1.23755293E+01
  1.23755293E+01 -2.47510585E+01  0.00000000E+00  1.23755293E+01  1.23755293E+01
 -2.47510585E+01  0.00000000E+00  1.23755293E+01  1.23755293E+01 -2.47510585E+01
  0.00000000E+00  1.23755293E+01  1.23755293E+01 -2.47510585E+01  0.00000000E+00
  1.23755293E+01  1.23755293E+01 -2.47510585E+01  0.00000000E+00  1.23755293E+01
  1.23755293E+01 -2.47510585E+01  0.00000000E+00  1.23755293E+01  1.23755293E+01
 -2.47510585E+01  0.00000000E+00  1.23755293E+01  1.23755293E+01 -2.47510585E+01
  0.00000000E+00  1.23755293E+01  1.23755293E+01 -2.47510585E+01  0.00000000E+00
  1.23755293E+01  1.23755293E+01 -2.47510585E+01  0.00000000E+00  1.23755293E+01
  1.23755293E+01 -2.47510585E+01  0.00000000E+00  1.23755293E+01  1.23755293E+01
 -2.47510585E+01  0.00000000E+00  1.23755293E+01  1.23755293E+01 -2.47510585E+01
  0.00000000E+00  1.23755293E+01  1.23755293E+01 -2.47510585E+01  0.00000000E+00
  1.23755293E+01  1.23755293E+01 -2.47510585E+01  0.00000000E+00  1.23755293E+01
  1.23755293E+01 -2.47510585E+01  0.00000000E+00  1.23755293E+01  1.23755293E+01
 -2.47510585E+01  0.00000000E+00  1.23755293E+01  1.23755293E+01 -2.47510585E+01
  0.00000000E+00  1.23755293E+01  1.23755293E+01 -2.47510585E+01  0.00000000E+00
  1.23755293E+01  1.23755293E+01 -2.47510585E+01  0.00000000E+00  1.23755293E+01
  1.23755293E+01 -2.47510585E+01  0.00000000E+00  1.23755293E+01  1.23755293E+01
 -2.47510585E+01  0.00000000E+00  1.23755293E+01  1.23755293E+01 -2.47510585E+01
  0.00000000E+00  1.23755293E+01  1.23755293E+01 -2.47510585E+01  0.00000000E+00
  1.23755293E+01  1.23755293E+01 -2.47510585E+01  0.00000000E+00  1.23755293E+01
  1.23755293E+01 -2.47510585E+01  0.00000000E+00  1.23755293E+01  1.23755293E+01
 -2.47510585E+01  0.00000000E+00  1.23755293E+01  1.23755293E+01 -2.47510585E+01
  0.00000000E+00  1.23755293E+01  1.23755293E+01 -2.47510585E+01  0.00000000E+00
  1.23755293E+01  1.23755293E+01 -2.47510585E+01  0.00000000E+00  1.23755293E+01
  1.23755293E+01 -2.47510585E+01  0.00000000E+00  1.23755293E+01  1.23755293E+01
 -2.47510585E+01  0.00000000E+00  1.23755293E+01  1.23755293E+01 -2.47510585E+01
  0.00000000E+00  1.23755293E+01  1.23755293E+01 -2.47510585E+01  0.00000000E+00
  1.23755293E+01  1.23755293E+01 -2.47510585E+01  0.00000000E+00  1.23755293E+01
  1.23755293E+01 -2.47510585E+01  0.00000000E+00  1.23755293E+01  1.23755293E+01
 -2.47510585E+01  0.00000000E+00  1.23755293E+01  1.23755293E+01 -2.47510585E+01
  0.00000000E+00  1.23755293E+01  1.23755293E+01 -2.47510585E+01  0.00000000E+00
  1.23755293E+01  1.23755293E+01 -2.47510585E+01  0.00000000E+00  1.23755293E+01
  1.23755293E+01 -2.47510585E+01  0.00000000E+00  1.23755293E+01  1.23755293E+01
 -2.47510585E+01  0.00000000E+00  1.23755293E+01  1.23755293E+01 -2.47510585E+01
  0.00000000E+00  1.23755293E+01  1.23755293E+01 -2.47510585E+01  0.00000000E+00
  1.23755293E+01  1.23755293E+01 -2.47510585E+01  0.00000000E+00  1.23755293E+01
  1.23755293E+01 -2.47510585E+01  0.00000000E+00  1.23755293E+01  1.23755293E+01
 -2.47510585E+01  0.00000000E+00  1.23755293E+01  1.23755293E+01 -2.47510585E+01
  0.00000000E+00  1.23755293E+01  1.23755293E+01 -2.47510585E+01  0.00000000E+00
  1.23755293E+01  1.23755293E+01 -2.47510585E+01  0.00000000E+00  1.23755293E+01
  1.23755293E+01 -2.47510585E+01  0.00000000E+00  1.23755293E+01  1.23755293E+01
 -2.47510585E+01  0.00000000E+00  1.23755293E+01  1.23755293E+01 -2.47510585E+01
  0.00000000E+00  1.23755293E+01  1.23755293E+01 -2.47510585E+01  0.00000000E+00
  1.23755293E+01  1.23755293E+01 -2.47510585E+01  0.00000000E+00  1.23755293E+01
  1.23755293E+01 -2.47510585E+01  0.00000000E+00  1.23755293E+01  1.23755293E+01
 -2.47510585E+01  0.00000000E+00  1.23755293E+01  1.23755293E+01 -2.47510585E+01
  0.00000000E+00  1.23755293E+01  1.23755293E+01 -2.47510585E+01  0.00000000E+00
  1.23755293E+01  1.23755293E+01 -2.47510585E+01  0.00000000E+00  1.23755293E+01
  1.23755293E+01 -2.47510585E+01  0.00000000E+00  1.23755293E+01  1.23755293E+01
 -2.47510585E+01  0.00000000E+00  1.23755293E+01  1.23755293E+01 -2.47510585E+01
  0.00000000E+00  1.23755293E+01  1.23755293E+01 -2.47510585E+01  0.00000000E+00
  1.23755293E+01  1.23755293E+01 -2.47510585E+01  0.00000000E+00  1.23755293E+01
  1.23755293E+01 -2.47510585E+01  0.00000000E+00  1.23755293E+01  1.23755293E+01
 -2.47510585E+01  0.00000000E+00  1.23755293E+01  1.23755293E+01 -2.47510585E+01
  0.00000000E+00  1.23755293E+01  1.23755293E+01 -2.47510585E+01  0.00000000E+00
  1.23755293E+01  1.23755293E+01 -2.47510585E+01  0.00000000E+00  1.23755293E+01
  1.23755293E+01 -2.47510585E+01  0.00000000E+00  1.23755293E+01  1.23755293E+01
 -2.47510585E+01  0.00000000E+00  1.23755293E+01  1.23755293E+01 -2.47510585E+01
  0.00000000E+00  1.23755293E+01  1.23755293E+01 -2.47510585E+01  0.00000000E+00
  1.23755293E+01  1.23755293E+01 -2.47510585E+01  0.00000000E+00  1.23755293E+01
  1.23755293E+01 -2.47510585E+01  0.00000000E+00  1.23755293E+01  1.23755293E+01
 -2.47510585E+01  0.00000000E+00  1.23755293E+01  1.23755293E+01 -2.47510585E+01
  0.00000000E+00  1.23755293E+01  1.23755293E+01 -2.47510585E+01  0.00000000E+00
  1.23755293E+01  1.23755293E+01 -2.47510585E+01  0.00000000E+00  1.23755293E+01
  1.23755293E+01 -2.47510585E+01  0.00000000E+00  1.23755293E+01  1.23755293E+01
 -2.47510585E+01  0.00000000E+00  1.23755293E+01  1.23755293E+01 -2.47510585E+01
  0.00000000E+00  1.23755293E+01  1.23755293E+01 -2.47510585E+01  0.00000000E+00
  1.23755293E+01  1.23755293E+01 -2.47510585E+01  0.00000000E+00  1.23755293E+01
  1.23755293E+01 -2.47510585E+01  0.00000000E+00  1.23755293E+01  1.23755293E+01
 -2.47510585E+01  0.00000000E+00  1.23755293E+01  1.23755293E+01 -2.47510585E+01
  0.00000000E+00  1.23755293E+01  1.23755293E+01 -2.47510585E+01  0.00000000E+00
  1.23755293E+01  1.23755293E+01 -2.47510585E+01  0.00000000E+00  1.23755293E+01
  1.23755293E+01 -2.47510585E+01  0.00000000E+00  1.23755293E+01  1.23755293E+01
 -2.47510585E+01  0.00000000E+00  1.23755293E+01  1.23755293E+01 -2.47510585E+01
  0.00000000E+00  1.23755293E+01  1.23755293E+01 -2.47510585E+01  0.00000000E+00
  1.23755293E+01  1.23755293E+01 -2.47510585E+01  0.00000000E+00  1.23755293E+01
  1.23755293E+01 -2.47510585E+01  0.00000000E+00  1.23755293E+01  1.23755293E+01
 -2.47510585E+01  0.00000000E+00  1.23755293E+01  1.23755293E+01 -2.47510585E+01
  0.00000000E+00  1.23755293E+01  1.23755293E+01 -2.47510585E+01  0.00000000E+00
  1.23755293E+01  1.23755293E+01 -2.47510585E+01  0.00000000E+00  1.23755293E+01
  1.23755293E+01 -2.47510585E+01  0.00000000E+00  1.23755293E+01  1.23755293E+01
 -2.47510585E+01  0.00000000E+00  1.23755293E+01  1.23755293E+01 -2.47510585E+01
  0.00000000E+00  1.23755293E+01  1.23755293E+01 -2.47510585E+01  0.00000000E+00
  1.23755293E+01  1.23755293E+01 -2.47510585E+01  0.00000000E+00  1.23755293E+01
  1.23755293E+01 -2.47510585E+01  0.00000000E+00  1.23755293E+01  1.23755293E+01
 -2.47510585E+01  0.00000000E+00  1.23755293E+01  1.23755293E+01 -2.47510585E+01
  0.00000000E+00  1.23755293E+01  1.23755293E+01 -2.47510585E+01  0.00000000E+00
  1.23755293E+01  1.23755293E+01 -2.47510585E+01  0.00000000E+00  1.23755293E+01
  1.23755293E+01 -2.47510585E+01  0.00000000E+00  1.23755293E+01  1.23755293E+01
 -2.47510585E+01  0.00000000E+00  1.23755293E+01  1.23755293E+01 -2.47510585E+01
  0.00000000E+00  1.23755293E+01  1.23755293E+01 -2.47510585E+01  0.00000000E+00
  1.23755293E+01  1.23755293E+01 -2.47510585E+01  0.00000000E+00  1.23755293E+01
  1.23755293E+01 -2.47510585E+01  0.00000000E+00  1.23755293E+01  1.23755293E+01
 -2.47510585E+01  0.00000000E+00  1.23755293E+01  1.23755293E+01 -2.47510585E+01
  0.00000000E+00  1.23755293E+01  1.23755293E+01 -2.47510585E+01  0.00000000E+00
  1.23755293E+01  1.23755293E+01 -2.47510585E+01  0.00000000E+00  1.23755293E+01
  1.23755293E+01 -2.47510585E+01  0.00000000E+00  1.23755293E+01  1.23755293E+01
 -2.47510585E+01  0.00000000E+00  1.23755293E+01  1.23755293E+01 -2.47510585E+01
  0.00000000E+00  1.23755293E+01  1.23755293E+01 -2.47510585E+01  0.00000000E+00
  1.23755293E+01  1.23755293E+01 -2.47510585E+01  0.00000000E+00  1.23755293E+01
  1.23755293E+01 -2.47510585E+01  0.00000000E+00  1.23755293E+01  1.23755293E+01
 -2.47510585E+01  0.00000000E+00  1.23755293E+01  1.23755293E+01 -2.47510585E+01
  0.00000000E+00  1.23755293E+01  1.23755293E+01 -2.47510585E+01  0.00000000E+00
  1.23755293E+01  1.23755293E+01 -2.47510585E+01  0.00000000E+00  1.23755293E+01
  1.23755293E+01 -2.47510585E+01  0.00000000E+00  1.23755293E+01  1.23755293E+01
 -2.47510585E+01  0.00000000E+00  1.23755293E+01  1.23755293E+01 -2.47510585E+01
  0.00000000E+00  1.23755293E+01  1.23755293E+01 -2.47510585E+01  0.00000000E+00
  1.23755293E+01  1.23755293E+01 -2.47510585E+01  0.00000000E+00  1.23755293E+01
  1.23755293E+01 -2.47510585E+01  0.00000000E+00  1.23755293E+01  1.23755293E+01
 -2.47510585E+01  0.00000000E+00  1.23755293E+01  1.23755293E+01 -2.47510585E+01
  0.00000000E+00  1.23755293E+01  1.23755293E+01 -2.47510585E+01  0.00000000E+00
  1.23755293E+01  1.23755293E+01 -2.47510585E+01  0.00000000E+00  1.23755293E+01
  1.23755293E+01 -2.47510585E+01  0.00000000E+00  1.23755293E+01  1.23755293E+01
 -2.47510585E+01  0.00000000E+00  1.23755293E+01  1.23755293E+01 -2.47510585E+01
  0.00000000E+00  1.23755293E+01  1.23755293E+01 -2.47510585E+01  0.00000000E+00
  1.23755293E+01  1.23755293E+01 -2.47510585E+01  0.00000000E+00  1.23755293E+01
  1.23755293E+01 -2.47510585E+01  0.00000000E+00  1.23755293E+01  1.23755293E+01
 -2.47510585E+01  0.00000000E+00  1.23755293E+01  1.23755293E+01 -2.47510585E+01
  0.00000000E+00  1.23755293E+01  1.23755293E+01 -2.47510585E+01  0.00000000E+00
  1.23755293E+01  1.23755293E+01 -2.47510585E+01  0.00000000E+00  1.23755293E+01
  1.23755293E+01 -2.47510585E+01  0.00000000E+00  1.23755293E+01  1.23755293E+01
 -2.47510585E+01  0.00000000E+00  1.23755293E+01  1.23755293E+01 -2.47510585E+01
  0.00000000E+00  1.23755293E+01  1.23755293E+01 -2.47510585E+01  0.00000000E+00
  1.23755293E+01  1.23755293E+01 -2.47510585E+01  0.00000000E+00  1.23755293E+01
  1.23755293E+01 -2.47510585E+01  0.00000000E+00  1.23755293E+01  1.23755293E+01
 -2.47510585E+01  0.00000000E+00  1.23755293E+01  1.23755293E+01 -2.47510585E+01
  0.00000000E+00  1.23755293E+01  1.23755293E+01 -2.47510585E+01  0.00000000E+00
  1.23755293E+01  1.23755293E+01 -2.47510585E+01  0.00000000E+00  1.23755293E+01
  1.23755293E+01 -2.47510585E+01  0.00000000E+00  1.23755293E+01  1.23755293E+01
 -2.47510585E+01  0.00000000E+00  1.23755293E+01  1.23755293E+01 -2.47510585E+01
  0.00000000E+00  1.23755293E+01  1.23755293E+01 -2.47510585E+01  0.00000000E+00
  1.23755293E+01  1.23755293E+01 -2.47510585E+01  0.00000000E+00  1.23755293E+01
  1.23755293E+01 -2.47510585E+01  0.00000000E+00  1.23755293E+01  1.23755293E+01
 -2.47510585E+01  0.00000000E+00  1.23755293E+01  1.23755293E+01 -2.47510585E+01
  0.00000000E+00  1.23755293E+01  1.23755293E+01 -2.47510585E+01  0.00000000E+00
  1.23755293E+01  1.23755293E+01 -2.47510585E+01  0.00000000E+00  1.23755293E+01
  1.23755293E+01 -2.47510585E+01  0.00000000E+00  1.23755293E+01  1.23755293E+01
 -2.47510585E+01  0.00000000E+00  1.23755293E+01  1.23755293E+01 -2.47510585E+01
  0.00000000E+00  1.23755293E+01  1.23755293E+01 -2.47510585E+01  0.00000000E+00
  1.23755293E+01  1.23755293E+01 -2.47510585E+01  0.00000000E+00  1.23755293E+01
  1.23755293E+01 -2.47510585E+01  0.00000000E+00  1.23755293E+01  1.23755293E+01
 -2.47510585E+01  0.00000000E+00  1.23755293E+01  1.23755293E+01 -2.47510585E+01
  0.00000000E+00  1.23755293E+01  1.23755293E+01 -2.47510585E+01  0.00000000E+00
  1.23755293E+01  1.23755293E+01 -2.47510585E+01  0.00000000E+00  1.23755293E+01
  1.23755293E+01 -2.47510585E+01  0.00000000E+00  1.23755293E+01  1.23755293E+01
 -2.47510585E+01  0.00000000E+00  1.23755293E+01  1.23755293E+01 -2.47510585E+01
  0.00000000E+00  1.23755293E+01  1.23755293E+01 -2.47510585E+01  0.00000000E+00
  1.23755293E+01  1.23755293E+01 -2.47510585E+01  0.00000000E+00  1.23755293E+01
  1.23755293E+01 -2.47510585E+01  0.00000000E+00  1.23755293E+01  1.23755293E+01
 -2.47510585E+01  0.00000000E+00  1.23755293E+01  1.23755293E+01 -2.47510585E+01
  0.00000000E+00  1.23755293E+01  1.23755293E+01 -2.47510585E+01  0.00000000E+00
  1.23755293E+01  1.23755293E+01 -2.47510585E+01  0.00000000E+00  1.23755293E+01
  1.23755293E+01 -2.47510585E+01  0.00000000E+00  1.23755293E+01  1.23755293E+01
 -2.47510585E+01  0.00000000E+00  1.23755293E+01  1.23755293E+01 -2.47510585E+01
  0.00000000E+00  1.23755293E+01  1.23755293E+01 -2.47510585E+01  0.00000000E+00
  1.23755293E+01  1.23755293E+01 -2.47510585E+01  0.00000000E+00  1.23755293E+01
  1.23755293E+01 -2.47510585E+01  0.00000000E+00  1.23755293E+01  1.23755293E+01
 -2.47510585E+01  0.00000000E+00  1.23755293E+01  1.23755293E+01 -2.47510585E+01
  0.00000000E+00  1.23755293E+01  1.23755293E+01 -2.47510585E+01  0.00000000E+00
  1.23755293E+01  1.23755293E+01 -2.47510585E+01  0.00000000E+00  1.23755293E+01
  1.23755293E+01 -2.47510585E+01  0.00000000E+00  1.23755293E+01  1.23755293E+01
 -2.47510585E+01  0.00000000E+00  1.23755293E+01  1.23755293E+01 -2.47510585E+01
  0.00000000E+00  1.23755293E+01  1.23755293E+01 -2.47510585E+01  0.00000000E+00
  1.23755293E+01  1.23755293E+01 -2.47510585E+01  0.00000000E+00  1.23755293E+01
  1.23755293E+01 -2.47510585E+01  0.00000000E+00  1.23755293E+01  1.23755293E+01
 -2.47510585E+01  0.00000000E+00  1.23755293E+01  1.23755293E+01 -2.47510585E+01
  0.00000000E+00  1.23755293E+01  1.23755293E+01 -2.47510585E+01  0.00000000E+00
  1.23755293E+01  1.23755293E+01 -2.47510585E+01  0.00000000E+00  1.23755293E+01
  1.23755293E+01 -2.47510585E+01  0.00000000E+00  1.23755293E+01  1.23755293E+01
 -2.47510585E+01  0.00000000E+00  1.23755293E+01  1.23755293E+01 -2.47510585E+01
  0.00000000E+00  1.23755293E+01  1.23755293E+01 -2.47510585E+01  0.00000000E+00
  1.23755293E+01  1.23755293E+01 -2.47510585E+01  0.00000000E+00  1.23755293E+01
  1.23755293E+01 -2.47510585E+01  0.00000000E+00  1.23755293E+01  1.23755293E+01
 -2.47510585E+01  0.00000000E+00  1.23755293E+01  1.23755293E+01 -2.47510585E+01
  0.00000000E+00  1.23755293E+01  1.23755293E+01 -2.47510585E+01  0.00000000E+00
  1.23755293E+01  1.23755293E+01 -2.47510585E+01  0.00000000E+00  1.23755293E+01
  1.23755293E+01 -2.47510585E+01  0.00000000E+00  1.23755293E+01  1.23755293E+01
 -2.47510585E+01  0.00000000E+00  1.23755293E+01  1.23755293E+01 -2.47510585E+01
  0.00000000E+00  1.23755293E+01  1.23755293E+01 -2.47510585E+01  0.00000000E+00
  1.23755293E+01  1.23755293E+01 -2.47510585E+01  0.00000000E+00  1.23755293E+01
  1.23755293E+01 -2.47510585E+01  0.00000000E+00  1.23755293E+01  1.23755293E+01
 -2.47510585E+01  0.00000000E+00  1.23755293E+01  1.23755293E+01 -2.47510585E+01
  0.00000000E+00  1.23755293E+01  1.23755293E+01 -2.47510585E+01  0.00000000E+00
  1.23755293E+01  1.23755293E+01 -2.47510585E+01  0.00000000E+00  1.23755293E+01
  1.23755293E+01 -2.47510585E+01  0.00000000E+00  1.23755293E+01  1.23755293E+01
 -2.47510585E+01  0.00000000E+00  1.23755293E+01  1.23755293E+01 -2.47510585E+01
  0.00000000E+00  1.23755293E+01  1.23755293E+01 -2.47510585E+01  0.00000000E+00
  1.23755293E+01  1.23755293E+01 -2.47510585E+01  0.00000000E+00  1.23755293E+01
  1.23755293E+01 -2.47510585E+01  0.00000000E+00  1.23755293E+01  1.23755293E+01
 -2.47510585E+01  0.00000000E+00  1.23755293E+01  1.23755293E+01 -2.47510585E+01
  0.00000000E+00  1.23755293E+01  1.23755293E+01 -2.47510585E+01  0.00000000E+00
  1.23755293E+01  1.23755293E+01 -2.47510585E+01  0.00000000E+00  1.23755293E+01
  1.23755293E+01 -2.47510585E+01  0.00000000E+00  1.23755293E+01  1.23755293E+01
 -2.47510585E+01  0.00000000E+00  1.23755293E+01  1.23755293E+01 -2.47510585E+01
  0.00000000E+00  1.23755293E+01  1.23755293E+01 -2.47510585E+01  0.00000000E+00
  1.23755293E+01  1.23755293E+01 -2.47510585E+01  0.00000000E+00  1.23755293E+01
  1.23755293E+01 -2.47510585E+01  0.00000000E+00  1.23755293E+01  1.23755293E+01
 -2.47510585E+01  0.00000000E+00  1.23755293E+01  1.23755293E+01 -2.47510585E+01
  0.00000000E+00  1.23755293E+01  1.23755293E+01 -2.47510585E+01  0.00000000E+00
  1.23755293E+01  1.23755293E+01 -2.47510585E+01  0.00000000E+00  1.23755293E+01
  1.23755293E+01 -2.47510585E+01  0.00000000E+00  1.23755293E+01  1.23755293E+01
 -2.47510585E+01  0.00000000E+00  1.23755293E+01  1.23755293E+01 -2.47510585E+01
  0.00000000E+00  1.23755293E+01  1.23755293E+01 -2.47510585E+01  0.00000000E+00
  1.23755293E+01  1.23755293E+01 -2.47510585E+01  0.00000000E+00  1.23755293E+01
  1.23755293E+01 -2.47510585E+01  0.00000000E+00  1.23755293E+01  1.23755293E+01
 -2.47510585E+01  0.00000000E+00  1.23755293E+01  1.23755293E+01 -2.47510585E+01
  0.00000000E+00  1.23755293E+01  1.23755293E+01 -2.47510585E+01  0.00000000E+00
  1.23755293E+01  1.23755293E+01 -2.47510585E+01  0.00000000E+00  1.23755293E+01
  1.23755293E+01 -2.47510585E+01  0.00000000E+00  1.23755293E+01  1.23755293E+01
 -2.47510585E+01  0.00000000E+00  1.23755293E+01  1.23755293E+01 -2.47510585E+01
  0.00000000E+00  1.23755293E+01  1.23755293E+01 -2.47510585E+01  0.00000000E+00
  1.23755293E+01  1.23755293E+01 -2.47510585E+01  0.00000000E+00  1.23755293E+01
  1.23755293E+01 -2.47510585E+01  0.00000000E+00  1.23755293E+01  1.23755293E+01
 -2.47510585E+01  0.00000000E+00  1.23755293E+01  1.23755293E+01 -2.47510585E+01
  0.00000000E+00  1.23755293E+01  1.23755293E+01 -2.47510585E+01  0.00000000E+00
  1.23755293E+01  1.23755293E+01 -2.47510585E+01  0.00000000E+00  1.23755293E+01
  1.23755293E+01 -2.47510585E+01  0.00000000E+00  1.23755293E+01  1.23755293E+01
 -2.47510585E+01  0.00000000E+00  1.23755293E+01  1.23755293E+01 -2.47510585E+01
  0.00000000E+00  1.23755293E+01  1.23755293E+01 -2.47510585E+01  0.00000000E+00
  1.23755293E+01  1.23755293E+01 -2.47510585E+01  0.00000000E+00  1.23755293E+01
  1.23755293E+01 -2.47510585E+01  0.00000000E+00  1.23755293E+01  1.23755293E+01
 -2.47510585E+01  0.00000000E+00  1.23755293E+01  1.23755293E+01 -2.47510585E+01
  0.00000000E+00  1.23755293E+01  1.23755293E+01 -2.47510585E+01  0.00000000E+00
  1.23755293E+01  1.23755293E+01 -2.47510585E+01  0.00000000E+00  1.23755293E+01
  1.23755293E+01 -2.47510585E+01  0.00000000E+00  1.23755293E+01  1.23755293E+01
 -2.47510585E+01  0.00000000E+00  1.23755293E+01  1.23755293E+01 -2.47510585E+01
  0.00000000E+00  1.23755293E+01  1.23755293E+01 -2.47510585E+01  0.00000000E+00
  1.23755293E+01  1.23755293E+01 -2.47510585E+01  0.00000000E+00  1.23755293E+01
  1.23755293E+01 -2.47510585E+01  0.00000000E+00  1.23755293E+01  1.23755293E+01
 -2.47510585E+01  0.00000000E+00  1.23755293E+01  1.23755293E+01 -2.47510585E+01
  0.00000000E+00  1.23755293E+01  1.23755293E+01 -2.47510585E+01  0.00000000E+00
  1.23755293E+01  1.23755293E+01 -2.47510585E+01  0.00000000E+00  1.23755293E+01
  1.23755293E+01 -2.47510585E+01  0.00000000E+00  1.23755293E+01  1.23755293E+01
 -2.47510585E+01  0.00000000E+00  1.23755293E+01  1.23755293E+01 -2.47510585E+01
  0.00000000E+00  1.23755293E+01  1.23755293E+01 -2.47510585E+01  0.00000000E+00
  1.23755293E+01  1.23755293E+01 -2.47510585E+01  0.00000000E+00  1.23755293E+01
  1.23755293E+01 -2.47510585E+01  0.00000000E+00  1.23755293E+01  1.23755293E+01
 -2.47510585E+01  0.00000000E+00  1.23755293E+01  1.23755293E+01 -2.47510585E+01
  0.00000000E+00  1.23755293E+01  1.23755293E+01 -2.47510585E+01  0.00000000E+00
  1.23755293E+01  1.23755293E+01 -2.47510585E+01  0.00000000E+00  1.23755293E+01
  1.23755293E+01 -2.47510585E+01  0.00000000E+00  1.23755293E+01  1.23755293E+01
 -2.47510585E+01  0.00000000E+00  1.23755293E+01  1.23755293E+01 -2.47510585E+01
  0.00000000E+00  1.23755293E+01  1.23755293E+01 -2.47510585E+01  0.00000000E+00
  1.23755293E+01  1.23755293E+01 -2.47510585E+01  0.00000000E+00  1.23755293E+01
  1.23755293E+01 -2.47510585E+01  0.00000000E+00  1.23755293E+01  1.23755293E+01
 -2.47510585E+01  0.00000000E+00  1.23755293E+01  1.23755293E+01 -2.47510585E+01
  0.00000000E+00  1.23755293E+01  1.23755293E+01 -2.47510585E+01  0.00000000E+00
  1.23755293E+01  1.23755293E+01 -2.47510585E+01  0.00000000E+00  1.23755293E+01
  1.23755293E+01 -2.47510585E+01  0.00000000E+00  1.23755293E+01  1.23755293E+01
 -2.47510585E+01  0.00000000E+00  1.23755293E+01  1.23755293E+01 -2.47510585E+01
  0.00000000E+00  1.23755293E+01  1.23755293E+01 -2.47510585E+01  0.00000000E+00
  1.23755293E+01  1.23755293E+01 -2.47510585E+01  0.00000000E+00  1.23755293E+01
  1.23755293E+01 -2.47510585E+01  0.00000000E+00  1.23755293E+01  1.23755293E+01
 -2.47510585E+01  0.00000000E+00  1.23755293E+01  1.23755293E+01 -2.47510585E+01
  0.00000000E+00  1.23755293E+01  1.23755293E+01 -2.47510585E+01  0.00000000E+00
  1.23755293E+01  1.23755293E+01 -2.47510585E+01  0.00000000E+00  1.23755293E+01
  1.23755293E+01 -2.47510585E+01  0.00000000E+00  1.23755293E+01  1.23755293E+01
 -2.47510585E+01  0.00000000E+00  1.23755293E+01  1.23755293E+01 -2.47510585E+01
  0.00000000E+00  1.23755293E+01  1.23755293E+01 -2.47510585E+01  0.00000000E+00
  1.23755293E+01  1.23755293E+01 -2.47510585E+01  0.00000000E+00  1.23755293E+01
  1.23755293E+01 -2.47510585E+01  0.00000000E+00  1.23755293E+01  1.23755293E+01
 -2.47510585E+01  0.00000000E+00  1.23755293E+01  1.23755293E+01 -2.47510585E+01
  0.00000000E+00  1.23755293E+01  1.23755293E+01 -2.47510585E+01  0.00000000E+00
  1.23755293E+01  1.23755293E+01 -2.47510585E+01  0.00000000E+00  1.23755293E+01
  1.23755293E+01 -2.47510585E+01  0.00000000E+00  1.23755293E+01  1.23755293E+01
 -2.47510585E+01  0.00000000E+00  1.23755293E+01  1.23755293E+01 -2.47510585E+01
  0.00000000E+00  1.23755293E+01  1.23755293E+01 -2.47510585E+01  0.00000000E+00
  1.23755293E+01  1.23755293E+01 -2.47510585E+01  0.00000000E+00  1.23755293E+01
  1.23755293E+01 -2.47510585E+01  0.00000000E+00  1.23755293E+01  1.23755293E+01
 -2.47510585E+01  0.00000000E+00  1.23755293E+01  1.23755293E+01 -2.47510585E+01
  0.00000000E+00  1.23755293E+01  1.23755293E+01 -2.47510585E+01  0.00000000E+00
  1.23755293E+01  1.23755293E+01 -2.47510585E+01  0.00000000E+00  1.23755293E+01
  1.23755293E+01 -2.47510585E+01  0.00000000E+00  1.23755293E+01  1.23755293E+01
 -2.47510585E+01  0.00000000E+00  1.23755293E+01  1.23755293E+01 -2.47510585E+01
  0.00000000E+00  1.23755293E+01  1.23755293E+01 -2.47510585E+01  0.00000000E+00
  1.23755293E+01  1.23755293E+01 -2.47510585E+01  0.00000000E+00  1.23755293E+01
  1.23755293E+01 -2.47510585E+01  0.00000000E+00  1.23755293E+01  1.23755293E+01
 -2.47510585E+01  0.00000000E+00  1.23755293E+01  1.23755293E+01 -2.47510585E+01
  0.00000000E+00  1.23755293E+01  1.23755293E+01 -2.47510585E+01  0.00000000E+00
  1.23755293E+01  1.23755293E+01 -2.47510585E+01  0.00000000E+00  1.23755293E+01
  1.23755293E+01 -2.47510585E+01  0.00000000E+00  1.23755293E+01  1.23755293E+01
 -2.47510585E+01  0.00000000E+00  1.23755293E+01  1.23755293E+01 -2.47510585E+01
  0.00000000E+00  1.23755293E+01  1.23755293E+01 -2.47510585E+01  0.00000000E+00
  1.23755293E+01  1.23755293E+01 -2.47510585E+01  0.00000000E+00  1.23755293E+01
  1.23755293E+01 -2.47510585E+01  0.00000000E+00  1.23755293E+01  1.23755293E+01
 -2.47510585E+01  0.00000000E+00  1.23755293E+01  1.23755293E+01 -2.47510585E+01
  0.00000000E+00  1.23755293E+01  1.23755293E+01 -2.47510585E+01  0.00000000E+00
  1.23755293E+01  1.23755293E+01 -2.47510585E+01  0.00000000E+00  1.23755293E+01
  1.23755293E+01 -2.47510585E+01  0.00000000E+00  1.23755293E+01  1.23755293E+01
 -2.47510585E+01  0.00000000E+00  1.23755293E+01  1.23755293E+01 -2.47510585E+01
  0.00000000E+00  1.23755293E+01  1.23755293E+01 -2.47510585E+01  0.00000000E+00
  1.23755293E+01  1.23755293E+01 -2.47510585E+01  0.00000000E+00  1.23755293E+01
  1.23755293E+01 -2.47510585E+01  0.00000000E+00  1.23755293E+01  1.23755293E+01
 -2.47510585E+01  0.00000000E+00  1.23755293E+01  1.23755293E+01 -2.47510585E+01
  0.00000000E+00  1.23755293E+01  1.23755293E+01 -2.47510585E+01  0.00000000E+00
  1.23755293E+01  1.23755293E+01 -2.47510585E+01  0.00000000E+00  1.23755293E+01
  1.23755293E+01 -2.47510585E+01  0.00000000E+00  1.23755293E+01  1.23755293E+01
 -2.47510585E+01  0.00000000E+00  1.23755293E+01  1.23755293E+01 -2.47510585E+01
  0.00000000E+00  1.23755293E+01  1.23755293E+01 -2.47510585E+01  0.00000000E+00
  1.23755293E+01  1.23755293E+01 -2.47510585E+01  0.00000000E+00  1.23755293E+01
  1.23755293E+01 -2.47510585E+01  0.00000000E+00  1.23755293E+01  1.23755293E+01
 -2.47510585E+01  0.00000000E+00  1.23755293E+01  1.23755293E+01 -2.47510585E+01
  0.00000000E+00  1.23755293E+01  1.23755293E+01 -2.47510585E+01  0.00000000E+00
  1.23755293E+01  1.23755293E+01 -2.47510585E+01  0.00000000E+00  1.23755293E+01
  1.23755293E+01 -2.47510585E+01  0.00000000E+00  1.23755293E+01  1.23755293E+01
 -2.47510585E+01  0.00000000E+00  1.23755293E+01  1.23755293E+01 -2.47510585E+01
  0.00000000E+00  1.23755293E+01  1.23755293E+01 -2.47510585E+01  0.00000000E+00
  1.23755293E+01  1.23755293E+01 -2.47510585E+01  0.00000000E+00  1.23755293E+01
  1.23755293E+01 -2.47510585E+01  0.00000000E+00  1.23755293E+01  1.23755293E+01
 -2.47510585E+01  0.00000000E+00  1.23755293E+01  1.23755293E+01 -2.47510585E+01
  0.00000000E+00  1.23755293E+01  1.23755293E+01 -2.47510585E+01  0.00000000E+00
  1.23755293E+01  1.23755293E+01 -2.47510585E+01  0.00000000E+00  1.23755293E+01
  1.23755293E+01 -2.47510585E+01  0.00000000E+00  1.23755293E+01  1.23755293E+01
 -2.47510585E+01  0.00000000E+00  1.23755293E+01  1.23755293E+01 -2.47510585E+01
  0.00000000E+00  1.23755293E+01  1.23755293E+01 -2.47510585E+01  0.00000000E+00
  1.23755293E+01  1.23755293E+01 -2.47510585E+01  0.00000000E+00  1.23755293E+01
  1.23755293E+01 -2.47510585E+01  0.00000000E+00  1.23755293E+01  1.23755293E+01
 -2.47510585E+01  0.00000000E+00  1.23755293E+01  1.23755293E+01 -2.47510585E+01
  0.00000000E+00  1.23755293E+01  1.23755293E+01 -2.47510585E+01  0.00000000E+00
  1.23755293E+01  1.23755293E+01 -2.47510585E+01  0.00000000E+00  1.23755293E+01
  1.23755293E+01 -2.47510585E+01  0.00000000E+00  1.23755293E+01  1.23755293E+01
 -2.47510585E+01  0.00000000E+00  1.23755293E+01  1.23755293E+01 -2.47510585E+01
  0.00000000E+00  1.23755293E+01  1.23755293E+01 -2.47510585E+01  0.00000000E+00
  1.23755293E+01  1.23755293E+01 -2.47510585E+01  0.00000000E+00  1.23755293E+01
  1.23755293E+01 -2.47510585E+01  0.00000000E+00  1.23755293E+01  1.23755293E+01
 -2.47510585E+01  0.00000000E+00  1.23755293E+01  1.23755293E+01 -2.47510585E+01
  0.00000000E+00  1.23755293E+01  1.23755293E+01 -2.47510585E+01  0.00000000E+00
  1.23755293E+01  1.23755293E+01 -2.47510585E+01  0.00000000E+00  1.23755293E+01
  1.23755293E+01 -2.47510585E+01  0.00000000E+00  1.23755293E+01  1.23755293E+01
 -2.47510585E+01  0.00000000E+00  1.23755293E+01  1.23755293E+01 -2.47510585E+01
  0.00000000E+00  1.23755293E+01  1.23755293E+01 -2.47510585E+01  0.00000000E+00
  1.23755293E+01  1.23755293E+01 -2.47510585E+01  0.00000000E+00  1.23755293E+01
  1.23755293E+01 -2.47510585E+01  0.00000000E+00  1.23755293E+01  1.23755293E+01
 -2.47510585E+01  0.00000000E+00  1.23755293E+01  1.23755293E+01 -2.47510585E+01
  0.00000000E+00  1.23755293E+01  1.23755293E+01 -2.47510585E+01  0.00000000E+00
  1.23755293E+01  1.23755293E+01 -2.47510585E+01  0.00000000E+00  1.23755293E+01
  1.23755293E+01 -2.47510585E+01  0.00000000E+00  1.23755293E+01  1.23755293E+01
 -2.47510585E+01  0.00000000E+00  1.23755293E+01  1.23755293E+01 -2.47510585E+01
  0.00000000E+00  1.23755293E+01  1.23755293E+01 -2.47510585E+01  0.00000000E+00
  1.23755293E+01  1.23755293E+01 -2.47510585E+01  0.00000000E+00  1.23755293E+01
  1.23755293E+01 -2.47510585E+01  0.00000000E+00  1.23755293E+01  1.23755293E+01
 -2.47510585E+01  0.00000000E+00  1.23755293E+01  1.23755293E+01 -2.47510585E+01
  0.00000000E+00  1.23755293E+01  1.23755293E+01 -2.47510585E+01  0.00000000E+00
  1.23755293E+01  1.23755293E+01 -2.47510585E+01  0.00000000E+00  1.23755293E+01
  1.23755293E+01 -2.47510585E+01  0.00000000E+00  1.23755293E+01  1.23755293E+01
 -2.47510585E+01  0.00000000E+00  1.23755293E+01  1.23755293E+01 -2.47510585E+01
  0.00000000E+00  1.23755293E+01  1.23755293E+01 -2.47510585E+01  0.00000000E+00
  1.23755293E+01  1.23755293E+01 -2.47510585E+01  0.00000000E+00  1.23755293E+01
  1.23755293E+01 -2.47510585E+01  0.00000000E+00  1.23755293E+01  1.23755293E+01
 -2.47510585E+01  0.00000000E+00  1.23755293E+01  1.23755293E+01 -2.47510585E+01
  0.00000000E+00  1.23755293E+01  1.23755293E+01 -2.47510585E+01  0.00000000E+00
  1.23755293E+01  1.23755293E+01 -2.47510585E+01  0.00000000E+00  1.23755293E+01
  1.23755293E+01 -2.47510585E+01  0.00000000E+00  1.23755293E+01  1.23755293E+01
 -2.47510585E+01  0.00000000E+00  1.23755293E+01  1.23755293E+01 -2.47510585E+01
  0.00000000E+00  1.23755293E+01  1.23755293E+01 -2.47510585E+01  0.00000000E+00
  1.23755293E+01  1.23755293E+01 -2.47510585E+01  0.00000000E+00  1.23755293E+01
  1.23755293E+01 -2.47510585E+01  0.00000000E+00  1.23755293E+01  1.23755293E+01
 -2.47510585E+01  0.00000000E+00  1.23755293E+01  1.23755293E+01 -2.47510585E+01
  0.00000000E+00  1.23755293E+01  1.23755293E+01 -2.47510585E+01  0.00000000E+00
  1.23755293E+01  1.23755293E+01 -2.47510585E+01  0.00000000E+00  1.23755293E+01
  1.23755293E+01 -2.47510585E+01  0.00000000E+00  1.23755293E+01  1.23755293E+01
 -2.47510585E+01  0.00000000E+00  1.23755293E+01  1.23755293E+01 -2.47510585E+01
  0.00000000E+00  1.23755293E+01  1.23755293E+01 -2.47510585E+01  0.00000000E+00
  1.23755293E+01  1.23755293E+01 -2.47510585E+01  0.00000000E+00  1.23755293E+01
  1.23755293E+01 -2.47510585E+01  0.00000000E+00  1.23755293E+01  1.23755293E+01
 -2.47510585E+01  0.00000000E+00  1.23755293E+01  1.23755293E+01 -2.47510585E+01
  0.00000000E+00  1.23755293E+01  1.23755293E+01 -2.47510585E+01  0.00000000E+00
  1.23755293E+01  1.23755293E+01 -2.47510585E+01  0.00000000E+00  1.23755293E+01
  1.23755293E+01 -2.47510585E+01  0.00000000E+00  1.23755293E+01  1.23755293E+01
 -2.47510585E+01  0.00000000E+00  1.23755293E+01  1.23755293E+01 -2.47510585E+01
  0.00000000E+00  1.23755293E+01  1.23755293E+01 -2.47510585E+01  0.00000000E+00
  1.23755293E+01  1.23755293E+01 -2.47510585E+01  0.00000000E+00  1.23755293E+01
  1.23755293E+01 -2.47510585E+01  0.00000000E+00  1.23755293E+01  1.23755293E+01
 -2.47510585E+01  0.00000000E+00  1.23755293E+01  1.23755293E+01 -2.47510585E+01
  0.00000000E+00  1.23755293E+01  1.23755293E+01 -2.47510585E+01  0.00000000E+00
  1.23755293E+01  1.23755293E+01 -2.47510585E+01  0.00000000E+00  1.23755293E+01
  1.23755293E+01 -2.47510585E+01  0.00000000E+00  1.23755293E+01  1.23755293E+01
 -2.47510585E+01  0.00000000E+00  1.23755293E+01  1.23755293E+01 -2.47510585E+01
  0.00000000E+00  1.23755293E+01  1.23755293E+01 -2.47510585E+01  0.00000000E+00
  1.23755293E+01  1.23755293E+01 -2.47510585E+01  0.00000000E+00  1.23755293E+01
  1.23755293E+01 -2.47510585E+01  0.00000000E+00  1.23755293E+01  1.23755293E+01
 -2.47510585E+01  0.00000000E+00  1.23755293E+01  1.23755293E+01 -2.47510585E+01
  0.00000000E+00  1.23755293E+01  1.23755293E+01 -2.47510585E+01  0.00000000E+00
  1.23755293E+01  1.23755293E+01 -2.47510585E+01  0.00000000E+00  1.23755293E+01
  1.23755293E+01 -2.47510585E+01  0.00000000E+00  1.23755293E+01  1.23755293E+01
 -2.47510585E+01  0.00000000E+00  1.23755293E+01  1.23755293E+01 -2.47510585E+01
  0.00000000E+00  1.23755293E+01  1.23755293E+01 -2.47510585E+01  0.00000000E+00
  1.23755293E+01  1.23755293E+01 -2.47510585E+01  0.00000000E+00  1.23755293E+01
  1.23755293E+01 -2.47510585E+01  0.00000000E+00  1.23755293E+01  1.23755293E+01
 -2.47510585E+01  0.00000000E+00  1.23755293E+01  1.23755293E+01 -2.47510585E+01
  0.00000000E+00  1.23755293E+01  1.23755293E+01 -2.47510585E+01  0.00000000E+00
  1.23755293E+01  1.23755293E+01 -2.47510585E+01  0.00000000E+00  1.23755293E+01
  1.23755293E+01 -2.47510585E+01  0.00000000E+00  1.23755293E+01  1.23755293E+01
 -2.47510585E+01  0.00000000E+00  1.23755293E+01  1.23755293E+01 -2.47510585E+01
  0.00000000E+00  1.23755293E+01  1.23755293E+01 -2.47510585E+01  0.00000000E+00
  1.23755293E+01  1.23755293E+01 -2.47510585E+01  0.00000000E+00  1.23755293E+01
  1.23755293E+01 -2.47510585E+01  0.00000000E+00  1.23755293E+01  1.23755293E+01
 -2.47510585E+01  0.00000000E+00  1.23755293E+01  1.23755293E+01 -2.47510585E+01
  0.00000000E+00  1.23755293E+01  1.23755293E+01 -2.47510585E+01  0.00000000E+00
  1.23755293E+01  1.23755293E+01 -2.47510585E+01  0.00000000E+00  1.23755293E+01
  1.23755293E+01 -2.47510585E+01  0.00000000E+00  1.23755293E+01  1.23755293E+01
 -2.47510585E+01  0.00000000E+00  1.23755293E+01  1.23755293E+01 -2.47510585E+01
  0.00000000E+00  1.23755293E+01  1.23755293E+01 -2.47510585E+01  0.00000000E+00
  1.23755293E+01  1.23755293E+01 -2.47510585E+01  0.00000000E+00  1.23755293E+01
  1.23755293E+01 -2.47510585E+01  0.00000000E+00  1.23755293E+01  1.23755293E+01
 -2.47510585E+01  0.00000000E+00  1.23755293E+01  1.23755293E+01 -2.47510585E+01
  0.00000000E+00  1.23755293E+01  1.23755293E+01 -2.47510585E+01  0.00000000E+00
  1.23755293E+01  1.23755293E+01 -2.47510585E+01  0.00000000E+00  1.23755293E+01
  1.23755293E+01 -2.47510585E+01  0.00000000E+00  1.23755293E+01  1.23755293E+01
 -2.47510585E+01  0.00000000E+00  1.23755293E+01  1.23755293E+01 -2.47510585E+01
  0.00000000E+00  1.23755293E+01  1.23755293E+01 -2.47510585E+01  0.00000000E+00
  1.23755293E+01  1.23755293E+01 -2.47510585E+01  0.00000000E+00  1.23755293E+01
  1.23755293E+01 -2.47510585E+01  0.00000000E+00  1.23755293E+01  1.23755293E+01
 -2.47510585E+01  0.00000000E+00  1.23755293E+01  1.23755293E+01 -2.47510585E+01
  0.00000000E+00  1.23755293E+01  1.23755293E+01 -2.47510585E+01  0.00000000E+00
  1.23755293E+01  1.23755293E+01 -2.47510585E+01  0.00000000E+00  1.23755293E+01
  1.23755293E+01 -2.47510585E+01  0.00000000E+00  1.23755293E+01  1.23755293E+01
 -2.47510585E+01  0.00000000E+00  1.23755293E+01  1.23755293E+01 -2.47510585E+01
  0.00000000E+00  1.23755293E+01  1.23755293E+01 -2.47510585E+01  0.00000000E+00
  1.23755293E+01  1.23755293E+01 -2.47510585E+01  0.00000000E+00  1.23755293E+01
  1.23755293E+01 -2.47510585E+01  0.00000000E+00  1.23755293E+01  1.23755293E+01
 -2.47510585E+01  0.00000000E+00  1.23755293E+01  1.23755293E+01 -2.47510585E+01
  0.00000000E+00  1.23755293E+01  1.23755293E+01 -2.47510585E+01  0.00000000E+00
  1.23755293E+01  1.23755293E+01 -2.47510585E+01  0.00000000E+00  1.23755293E+01
  1.23755293E+01 -2.47510585E+01  0.00000000E+00  1.23755293E+01  1.23755293E+01
 -2.47510585E+01  0.00000000E+00  1.23755293E+01  1.23755293E+01 -2.47510585E+01
  0.00000000E+00  1.23755293E+01  1.23755293E+01 -2.47510585E+01  0.00000000E+00
  1.23755293E+01  1.23755293E+01 -2.47510585E+01  0.00000000E+00  1.23755293E+01
  1.23755293E+01 -2.47510585E+01  0.00000000E+00  1.23755293E+01  1.23755293E+01
 -2.47510585E+01  0.00000000E+00  1.23755293E+01  1.23755293E+01 -2.47510585E+01
  0.00000000E+00  1.23755293E+01  1.23755293E+01 -2.47510585E+01  0.00000000E+00
  1.23755293E+01  1.23755293E+01 -2.47510585E+01  0.00000000E+00  1.23755293E+01
  1.23755293E+01 -2.47510585E+01  0.00000000E+00  1.23755293E+01  1.23755293E+01
 -2.47510585E+01  0.00000000E+00  1.23755293E+01  1.23755293E+01 -2.47510585E+01
  0.00000000E+00  1.23755293E+01  1.23755293E+01 -2.47510585E+01  0.00000000E+00
  1.23755293E+01  1.23755293E+01 -2.47510585E+01  0.00000000E+00  1.23755293E+01
  1.23755293E+01 -2.47510585E+01  0.00000000E+00  1.23755293E+01  1.23755293E+01
 -2.47510585E+01  0.00000000E+00  1.23755293E+01  1.23755293E+01 -2.47510585E+01
  0.00000000E+00  1.23755293E+01  1.23755293E+01 -2.47510585E+01  0.00000000E+00
  1.23755293E+01  1.23755293E+01 -2.47510585E+01  0.00000000E+00  1.23755293E+01
  1.23755293E+01 -2.47510585E+01  0.00000000E+00  1.23755293E+01  1.23755293E+01
 -2.47510585E+01  0.00000000E+00  1.23755293E+01  1.23755293E+01 -2.47510585E+01
  0.00000000E+00  1.23755293E+01  1.23755293E+01 -2.47510585E+01  0.00000000E+00
  1.23755293E+01  1.23755293E+01 -2.47510585E+01  0.00000000E+00  1.23755293E+01
  1.23755293E+01 -2.47510585E+01  0.00000000E+00  1.23755293E+01  1.23755293E+01
 -2.47510585E+01  0.00000000E+00  1.23755293E+01  1.23755293E+01 -2.47510585E+01
  0.00000000E+00  1.23755293E+01  1.23755293E+01 -2.47510585E+01  0.00000000E+00
  1.23755293E+01  1.23755293E+01 -2.47510585E+01  0.00000000E+00  1.23755293E+01
  1.23755293E+01 -2.47510585E+01  0.00000000E+00  1.23755293E+01  1.23755293E+01
 -2.47510585E+01  0.00000000E+00  1.23755293E+01  1.23755293E+01 -2.47510585E+01
  0.00000000E+00  1.23755293E+01  1.23755293E+01 -2.47510585E+01  0.00000000E+00
  1.23755293E+01  1.23755293E+01 -2.47510585E+01  0.00000000E+00  1.23755293E+01
  1.23755293E+01 -2.47510585E+01  0.00000000E+00  1.23755293E+01  1.23755293E+01
 -2.47510585E+01  0.00000000E+00  1.23755293E+01  1.23755293E+01 -2.47510585E+01
  0.00000000E+00  1.23755293E+01  1.23755293E+01 -2.47510585E+01  0.00000000E+00
  1.23755293E+01  1.23755293E+01 -2.47510585E+01  0.00000000E+00  1.23755293E+01
  1.23755293E+01 -2.47510585E+01  0.00000000E+00  1.23755293E+01  1.23755293E+01
 -2.47510585E+01  0.00000000E+00  1.23755293E+01  1.23755293E+01 -2.47510585E+01
  0.00000000E+00  1.23755293E+01  1.23755293E+01 -2.47510585E+01  0.00000000E+00
  1.23755293E+01  1.23755293E+01 -2.47510585E+01  0.00000000E+00  1.23755293E+01
  1.23755293E+01 -2.47510585E+01  0.00000000E+00  1.23755293E+01  1.23755293E+01
 -2.47510585E+01  0.00000000E+00  1.23755293E+01  1.23755293E+01 -2.47510585E+01
  0.00000000E+00  1.23755293E+01  1.23755293E+01 -2.47510585E+01  0.00000000E+00
  1.23755293E+01  1.23755293E+01 -2.47510585E+01  0.00000000E+00  1.23755293E+01
  1.23755293E+01 -2.47510585E+01  0.00000000E+00  1.23755293E+01  1.23755293E+01
 -2.47510585E+01  0.00000000E+00  1.23755293E+01  1.23755293E+01 -2.47510585E+01
  0.00000000E+00  1.23755293E+01  1.23755293E+01 -2.47510585E+01  0.00000000E+00
  1.23755293E+01  1.23755293E+01 -2.47510585E+01  0.00000000E+00  1.23755293E+01
  1.23755293E+01 -2.47510585E+01  0.00000000E+00  1.23755293E+01  1.23755293E+01
 -2.47510585E+01  0.00000000E+00  1.23755293E+01  1.23755293E+01 -2.47510585E+01
  0.00000000E+00  1.23755293E+01  1.23755293E+01 -2.47510585E+01  0.00000000E+00
  1.23755293E+01  1.23755293E+01 -2.47510585E+01  0.00000000E+00  1.23755293E+01
  1.23755293E+01 -2.47510585E+01  0.00000000E+00  1.23755293E+01  1.23755293E+01
 -2.47510585E+01  0.00000000E+00  1.23755293E+01  1.23755293E+01 -2.47510585E+01
  0.00000000E+00  1.23755293E+01  1.23755293E+01 -2.47510585E+01  0.00000000E+00
  1.23755293E+01  1.23755293E+01 -2.47510585E+01  0.00000000E+00  1.23755293E+01
  1.23755293E+01 -2.47510585E+01  0.00000000E+00  1.23755293E+01  1.23755293E+01
 -2.47510585E+01  0.00000000E+00  1.23755293E+01  1.23755293E+01 -2.47510585E+01
  0.00000000E+00  1.23755293E+01  1.23755293E+01 -2.47510585E+01  0.00000000E+00
  1.23755293E+01  1.23755293E+01 -2.47510585E+01  0.00000000E+00  1.23755293E+01
  1.23755293E+01 -2.47510585E+01  0.00000000E+00  1.23755293E+01  1.23755293E+01
 -2.47510585E+01  0.00000000E+00  1.23755293E+01  1.23755293E+01 -2.47510585E+01
  0.00000000E+00  1.23755293E+01  1.23755293E+01 -2.47510585E+01  0.00000000E+00
  1.23755293E+01  1.23755293E+01 -2.47510585E+01  0.00000000E+00  1.23755293E+01
  1.23755293E+01 -2.47510585E+01  0.00000000E+00  1.23755293E+01  1.23755293E+01
 -2.47510585E+01  0.00000000E+00  1.23755293E+01  1.23755293E+01 -2.47510585E+01
  0.00000000E+00  1.23755293E+01  1.23755293E+01 -2.47510585E+01  0.00000000E+00
  1.23755293E+01  1.23755293E+01 -2.47510585E+01  0.00000000E+00  1.23755293E+01
  1.23755293E+01 -2.47510585E+01  0.00000000E+00  1.23755293E+01  1.23755293E+01
 -2.47510585E+01  0.00000000E+00  1.23755293E+01  1.23755293E+01 -2.47510585E+01
  0.00000000E+00  1.23755293E+01  1.23755293E+01 -2.47510585E+01  0.00000000E+00
  1.23755293E+01  1.23755293E+01 -2.47510585E+01  0.00000000E+00  1.23755293E+01
  1.23755293E+01 -2.47510585E+01  0.00000000E+00  1.23755293E+01  1.23755293E+01
 -2.47510585E+01  0.00000000E+00  1.23755293E+01  1.23755293E+01 -2.47510585E+01
  0.00000000E+00  1.23755293E+01  1.23755293E+01 -2.47510585E+01  0.00000000E+00
  1.23755293E+01  1.23755293E+01 -2.47510585E+01  0.00000000E+00  1.23755293E+01
  1.23755293E+01 -2.47510585E+01  0.00000000E+00  1.23755293E+01  1.23755293E+01
 -2.47510585E+01  0.00000000E+00  1.23755293E+01  1.23755293E+01 -2.47510585E+01
  0.00000000E+00  1.23755293E+01  1.23755293E+01 -2.47510585E+01  0.00000000E+00
  1.23755293E+01  1.23755293E+01 -2.47510585E+01  0.00000000E+00  1.23755293E+01
  1.23755293E+01 -2.47510585E+01  0.00000000E+00  1.23755293E+01  1.23755293E+01
 -2.47510585E+01  0.00000000E+00  1.23755293E+01  1.23755293E+01 -2.47510585E+01
  0.00000000E+00  1.23755293E+01  1.23755293E+01 -2.47510585E+01  0.00000000E+00
  1.23755293E+01  1.23755293E+01 -2.47510585E+01  0.00000000E+00  1.23755293E+01
  1.23755293E+01 -2.47510585E+01  0.00000000E+00  1.23755293E+01  1.23755293E+01
 -2.47510585E+01  0.00000000E+00  1.23755293E+01  1.23755293E+01 -2.47510585E+01
  0.00000000E+00  1.23755293E+01  1.23755293E+01 -2.47510585E+01  0.00000000E+00
  1.23755293E+01  1.23755293E+01 -2.47510585E+01  0.00000000E+00  1.23755293E+01
  1.23755293E+01 -2.47510585E+01  0.00000000E+00  1.23755293E+01  1.23755293E+01
 -2.47510585E+01  0.00000000E+00  1.23755293E+01  1.23755293E+01 -2.47510585E+01
  0.00000000E+00  1.23755293E+01  1.23755293E+01 -2.47510585E+01  0.00000000E+00
  1.23755293E+01  1.23755293E+01 -2.47510585E+01  0.00000000E+00  1.23755293E+01
  1.23755293E+01 -2.47510585E+01  0.00000000E+00  1.23755293E+01  1.23755293E+01
 -2.47510585E+01  0.00000000E+00  1.23755293E+01  1.23755293E+01 -2.47510585E+01
  0.00000000E+00  1.23755293E+01  1.23755293E+01 -2.47510585E+01  0.00000000E+00
  1.23755293E+01  1.23755293E+01 -2.47510585E+01  0.00000000E+00  1.23755293E+01
  1.23755293E+01 -2.47510585E+01  0.00000000E+00  1.23755293E+01  1.23755293E+01
 -2.47510585E+01  0.00000000E+00  1.23755293E+01  1.23755293E+01 -2.47510585E+01
  0.00000000E+00  1.23755293E+01  1.23755293E+01 -2.47510585E+01  0.00000000E+00
  1.23755293E+01  1.23755293E+01 -2.47510585E+01  0.00000000E+00  1.23755293E+01
  1.23755293E+01 -2.47510585E+01  0.00000000E+00  1.23755293E+01  1.23755293E+01
 -2.47510585E+01  0.00000000E+00  1.23755293E+01  1.23755293E+01 -2.47510585E+01
  0.00000000E+00  1.23755293E+01  1.23755293E+01 -2.47510585E+01  0.00000000E+00
  1.23755293E+01  1.23755293E+01 -2.47510585E+01  0.00000000E+00  1.23755293E+01
  1.23755293E+01 -2.47510585E+01  0.00000000E+00  1.23755293E+01  1.23755293E+01
 -2.47510585E+01  0.00000000E+00  1.23755293E+01  1.23755293E+01 -2.47510585E+01
  0.00000000E+00  1.23755293E+01  1.23755293E+01 -2.47510585E+01  0.00000000E+00
  1.23755293E+01  1.23755293E+01 -2.47510585E+01  0.00000000E+00  1.23755293E+01
  1.23755293E+01 -2.47510585E+01  0.00000000E+00  1.23755293E+01  1.23755293E+01
 -2.47510585E+01  0.00000000E+00  1.23755293E+01  1.23755293E+01 -2.47510585E+01
  0.00000000E+00  1.23755293E+01  1.23755293E+01 -2.47510585E+01  0.00000000E+00
  1.23755293E+01  1.23755293E+01 -2.47510585E+01  0.00000000E+00  1.23755293E+01
  1.23755293E+01 -2.47510585E+01  0.00000000E+00  1.23755293E+01  1.23755293E+01
 -2.47510585E+01  0.00000000E+00  1.23755293E+01  1.23755293E+01 -2.47510585E+01
  0.00000000E+00  1.23755293E+01  1.23755293E+01 -2.47510585E+01  0.00000000E+00
  1.23755293E+01  1.23755293E+01 -2.47510585E+01  0.00000000E+00  1.23755293E+01
  1.23755293E+01 -2.47510585E+01  0.00000000E+00  1.23755293E+01  1.23755293E+01
 -2.47510585E+01  0.00000000E+00  1.23755293E+01  1.23755293E+01 -2.47510585E+01
  0.00000000E+00  1.23755293E+01  1.23755293E+01 -2.47510585E+01  0.00000000E+00
  1.23755293E+01  1.23755293E+01 -2.47510585E+01  0.00000000E+00  1.23755293E+01
  1.23755293E+01 -2.47510585E+01  0.00000000E+00  1.23755293E+01  1.23755293E+01
 -2.47510585E+01  0.00000000E+00  1.23755293E+01  1.23755293E+01 -2.47510585E+01
  0.00000000E+00  1.23755293E+01  1.23755293E+01 -2.47510585E+01  0.00000000E+00
  1.23755293E+01  1.23755293E+01 -2.47510585E+01  0.00000000E+00  1.23755293E+01
  1.23755293E+01 -2.47510585E+01  0.00000000E+00  1.23755293E+01  1.23755293E+01
 -2.47510585E+01  0.00000000E+00  1.23755293E+01  1.23755293E+01 -2.47510585E+01
  0.00000000E+00  1.23755293E+01  1.23755293E+01 -2.47510585E+01  0.00000000E+00
  1.23755293E+01  1.23755293E+01 -2.47510585E+01  0.00000000E+00  1.23755293E+01
  1.23755293E+01 -2.47510585E+01  0.00000000E+00  1.23755293E+01  1.23755293E+01
 -2.47510585E+01  0.00000000E+00  1.23755293E+01  1.23755293E+01 -2.47510585E+01
  0.00000000E+00  1.23755293E+01  1.23755293E+01 -2.47510585E+01  0.00000000E+00
  1.23755293E+01  1.23755293E+01 -2.47510585E+01  0.00000000E+00  1.23755293E+01
  1.23755293E+01 -2.47510585E+01  0.00000000E+00  1.23755293E+01  1.23755293E+01
 -2.47510585E+01  0.00000000E+00  1.23755293E+01  1.23755293E+01 -2.47510585E+01
  0.00000000E+00  1.23755293E+01  1.23755293E+01 -2.47510585E+01  0.00000000E+00
  1.23755293E+01  1.23755293E+01 -2.47510585E+01  0.00000000E+00  1.23755293E+01
  1.23755293E+01 -2.47510585E+01  0.00000000E+00  1.23755293E+01  1.23755293E+01
 -2.47510585E+01  0.00000000E+00  1.23755293E+01  1.23755293E+01 -2.47510585E+01
  0.00000000E+00  1.23755293E+01  1.23755293E+01 -2.47510585E+01  0.00000000E+00
  1.23755293E+01  1.23755293E+01 -2.47510585E+01  0.00000000E+00  1.23755293E+01
  1.23755293E+01 -2.47510585E+01  0.00000000E+00  1.23755293E+01  1.23755293E+01
 -2.47510585E+01  0.00000000E+00  1.23755293E+01  1.23755293E+01 -2.47510585E+01
  0.00000000E+00  1.23755293E+01  1.23755293E+01 -2.47510585E+01  0.00000000E+00
  1.23755293E+01  1.23755293E+01 -2.47510585E+01  0.00000000E+00  1.23755293E+01
  1.23755293E+01 -2.47510585E+01  0.00000000E+00  1.23755293E+01  1.23755293E+01
 -2.47510585E+01  0.00000000E+00  1.23755293E+01  1.23755293E+01 -2.47510585E+01
  0.00000000E+00  1.23755293E+01  1.23755293E+01 -2.47510585E+01  0.00000000E+00
  1.23755293E+01  1.23755293E+01 -2.47510585E+01  0.00000000E+00  1.23755293E+01
  1.23755293E+01 -2.47510585E+01  0.00000000E+00  1.23755293E+01  1.23755293E+01
 -2.47510585E+01  0.00000000E+00  1.23755293E+01  1.23755293E+01 -2.47510585E+01
  0.00000000E+00  1.23755293E+01  1.23755293E+01 -2.47510585E+01  0.00000000E+00
  1.23755293E+01  1.23755293E+01 -2.47510585E+01  0.00000000E+00  1.23755293E+01
  1.23755293E+01 -2.47510585E+01  0.00000000E+00  1.23755293E+01  1.23755293E+01
 -2.47510585E+01  0.00000000E+00  1.23755293E+01  1.23755293E+01 -2.47510585E+01
  0.00000000E+00  1.23755293E+01  1.23755293E+01 -2.47510585E+01  0.00000000E+00
  1.23755293E+01  1.23755293E+01 -2.47510585E+01  0.00000000E+00  1.23755293E+01
  1.23755293E+01 -2.47510585E+01  0.00000000E+00  1.23755293E+01  1.23755293E+01
 -2.47510585E+01  0.00000000E+00  1.23755293E+01  1.23755293E+01 -2.47510585E+01
  0.00000000E+00  1.23755293E+01  1.23755293E+01 -2.47510585E+01  0.00000000E+00
  1.23755293E+01  1.23755293E+01 -2.47510585E+01  0.00000000E+00  1.23755293E+01
  1.23755293E+01 -2.47510585E+01  0.00000000E+00  1.23755293E+01  1.23755293E+01
 -2.47510585E+01  0.00000000E+00  1.23755293E+01  1.23755293E+01 -2.47510585E+01
  0.00000000E+00  1.23755293E+01  1.23755293E+01 -2.47510585E+01  0.00000000E+00
  1.23755293E+01  1.23755293E+01 -2.47510585E+01  0.00000000E+00  1.23755293E+01
  1.23755293E+01 -2.47510585E+01  0.00000000E+00  1.23755293E+01  1.23755293E+01
 -2.47510585E+01  0.00000000E+00  1.23755293E+01  1.23755293E+01 -2.47510585E+01
  0.00000000E+00  1.23755293E+01  1.23755293E+01 -2.47510585E+01  0.00000000E+00
  1.23755293E+01  1.23755293E+01 -2.47510585E+01  0.00000000E+00  1.23755293E+01
  1.23755293E+01 -2.47510585E+01  0.00000000E+00  1.23755293E+01  1.23755293E+01
 -2.47510585E+01  0.00000000E+00  1.23755293E+01  1.23755293E+01 -2.47510585E+01
  0.00000000E+00  1.23755293E+01  1.23755293E+01 -2.47510585E+01  0.00000000E+00
  1.23755293E+01  1.23755293E+01 -2.47510585E+01  0.00000000E+00  1.23755293E+01
  1.23755293E+01 -2.47510585E+01  0.00000000E+00  1.23755293E+01  1.23755293E+01
 -2.47510585E+01  0.00000000E+00  1.23755293E+01  1.23755293E+01 -2.47510585E+01
  0.00000000E+00  1.23755293E+01  1.23755293E+01 -2.47510585E+01  0.00000000E+00
  1.23755293E+01  1.23755293E+01 -2.47510585E+01  0.00000000E+00  1.23755293E+01
  1.23755293E+01 -2.47510585E+01  0.00000000E+00  1.23755293E+01  1.23755293E+01
 -2.47510585E+01  0.00000000E+00  1.23755293E+01  1.23755293E+01 -2.47510585E+01
  0.00000000E+00  1.23755293E+01  1.23755293E+01 -2.47510585E+01  0.00000000E+00
  1.23755293E+01  1.23755293E+01 -2.47510585E+01  0.00000000E+00  1.23755293E+01
  1.23755293E+01 -2.47510585E+01  0.00000000E+00  1.23755293E+01  1.23755293E+01
 -2.47510585E+01  0.00000000E+00  1.23755293E+01  1.23755293E+01 -2.47510585E+01
  0.00000000E+00  1.23755293E+01  1.23755293E+01 -2.47510585E+01  0.00000000E+00
  1.23755293E+01  1.23755293E+01 -2.47510585E+01  0.00000000E+00  1.23755293E+01
  1.23755293E+01 -2.47510585E+01  0.00000000E+00  1.23755293E+01  1.23755293E+01
 -2.47510585E+01  0.00000000E+00  1.23755293E+01  1.23755293E+01 -2.47510585E+01
  0.00000000E+00  1.23755293E+01  1.23755293E+01 -2.47510585E+01  0.00000000E+00
  1.23755293E+01  1.23755293E+01 -2.47510585E+01  0.00000000E+00  1.23755293E+01
  1.23755293E+01 -2.47510585E+01  0.00000000E+00  1.23755293E+01  1.23755293E+01
 -2.47510585E+01  0.00000000E+00  1.23755293E+01  1.23755293E+01 -2.47510585E+01
  0.00000000E+00  1.23755293E+01  1.23755293E+01 -2.47510585E+01  0.00000000E+00
  1.23755293E+01  1.23755293E+01 -2.47510585E+01  0.00000000E+00  1.23755293E+01
  1.23755293E+01 -2.47510585E+01  0.00000000E+00  1.23755293E+01  1.23755293E+01
 -2.47510585E+01  0.00000000E+00  1.23755293E+01  1.23755293E+01 -2.47510585E+01
  0.00000000E+00  1.23755293E+01  1.23755293E+01 -2.47510585E+01  0.00000000E+00
  1.23755293E+01  1.23755293E+01 -2.47510585E+01  0.00000000E+00  1.23755293E+01
  1.23755293E+01 -2.47510585E+01  0.00000000E+00  1.23755293E+01  1.23755293E+01
 -2.47510585E+01  0.00000000E+00  1.23755293E+01  1.23755293E+01 -2.47510585E+01
  0.00000000E+00  1.23755293E+01  1.23755293E+01 -2.47510585E+01  0.00000000E+00
  1.23755293E+01  1.23755293E+01 -2.47510585E+01  0.00000000E+00  1.23755293E+01
  1.23755293E+01 -2.47510585E+01  0.00000000E+00  1.23755293E+01  1.23755293E+01
 -2.47510585E+01  0.00000000E+00  1.23755293E+01  1.23755293E+01 -2.47510585E+01
  0.00000000E+00  1.23755293E+01  1.23755293E+01 -2.47510585E+01  0.00000000E+00
  1.23755293E+01  1.23755293E+01 -2.47510585E+01  0.00000000E+00  1.23755293E+01
  1.23755293E+01 -2.47510585E+01  0.00000000E+00  1.23755293E+01  1.23755293E+01
 -2.47510585E+01  0.00000000E+00  1.23755293E+01  1.23755293E+01 -2.47510585E+01
  0.00000000E+00  1.23755293E+01  1.23755293E+01 -2.47510585E+01  0.00000000E+00
  1.23755293E+01  1.23755293E+01 -2.47510585E+01  0.00000000E+00  1.23755293E+01
  1.23755293E+01 -2.47510585E+01  0.00000000E+00  1.23755293E+01  1.23755293E+01
 -2.47510585E+01  0.00000000E+00  1.23755293E+01  1.23755293E+01 -2.47510585E+01
  0.00000000E+00  1.23755293E+01  1.23755293E+01 -2.47510585E+01  0.00000000E+00
  1.23755293E+01  1.23755293E+01 -2.47510585E+01  0.00000000E+00  1.23755293E+01
  1.23755293E+01 -2.47510585E+01  0.00000000E+00  1.23755293E+01  1.23755293E+01
 -2.47510585E+01  0.00000000E+00  1.23755293E+01  1.23755293E+01 -2.47510585E+01
  0.00000000E+00  1.23755293E+01  1.23755293E+01 -2.47510585E+01  0.00000000E+00
  1.23755293E+01  1.23755293E+01 -2.47510585E+01  0.00000000E+00  1.23755293E+01
  1.23755293E+01 -2.47510585E+01  0.00000000E+00  1.23755293E+01  1.23755293E+01
 -2.47510585E+01  0.00000000E+00  1.23755293E+01  1.23755293E+01 -2.47510585E+01
  0.00000000E+00  1.23755293E+01  1.23755293E+01 -2.47510585E+01  0.00000000E+00
  1.23755293E+01  1.23755293E+01 -2.47510585E+01  0.00000000E+00  1.23755293E+01
  1.23755293E+01 -2.47510585E+01  0.00000000E+00  1.23755293E+01  1.23755293E+01
 -2.47510585E+01  0.00000000E+00  1.23755293E+01  1.23755293E+01 -2.47510585E+01
  0.00000000E+00  1.23755293E+01  1.23755293E+01 -2.47510585E+01  0.00000000E+00
  1.23755293E+01  1.23755293E+01 -2.47510585E+01  0.00000000E+00  1.23755293E+01
  1.23755293E+01 -2.47510585E+01  0.00000000E+00  1.23755293E+01  1.23755293E+01
 -2.47510585E+01  0.00000000E+00  1.23755293E+01  1.23755293E+01 -2.47510585E+01
  0.00000000E+00  1.23755293E+01  1.23755293E+01 -2.47510585E+01  0.00000000E+00
  1.23755293E+01  1.23755293E+01 -2.47510585E+01  0.00000000E+00  1.23755293E+01
  1.23755293E+01 -2.47510585E+01  0.00000000E+00  1.23755293E+01  1.23755293E+01
 -2.47510585E+01  0.00000000E+00  1.23755293E+01  1.23755293E+01 -2.47510585E+01
  0.00000000E+00  1.23755293E+01  1.23755293E+01 -2.47510585E+01  0.00000000E+00
  1.23755293E+01  1.23755293E+01 -2.47510585E+01  0.00000000E+00  1.23755293E+01
  1.23755293E+01 -2.47510585E+01  0.00000000E+00  1.23755293E+01  1.23755293E+01
 -2.47510585E+01  0.00000000E+00  1.23755293E+01  1.23755293E+01 -2.47510585E+01
  0.00000000E+00  1.23755293E+01  1.23755293E+01 -2.47510585E+01  0.00000000E+00
  1.23755293E+01  1.23755293E+01 -2.47510585E+01  0.00000000E+00  1.23755293E+01
  1.23755293E+01 -2.47510585E+01  0.00000000E+00  1.23755293E+01  1.23755293E+01
 -2.47510585E+01  0.00000000E+00  1.23755293E+01  1.23755293E+01 -2.47510585E+01
  0.00000000E+00  1.23755293E+01  1.23755293E+01 -2.47510585E+01  0.00000000E+00
  1.23755293E+01  1.23755293E+01 -2.47510585E+01  0.00000000E+00  1.23755293E+01
  1.23755293E+01 -2.47510585E+01  0.00000000E+00  1.23755293E+01  1.23755293E+01
 -2.47510585E+01  0.00000000E+00  1.23755293E+01  1.23755293E+01 -2.47510585E+01
  0.00000000E+00  1.23755293E+01  1.23755293E+01 -2.47510585E+01  0.00000000E+00
  1.23755293E+01  1.23755293E+01 -2.47510585E+01  0.00000000E+00  1.23755293E+01
  1.23755293E+01 -2.47510585E+01  0.00000000E+00  1.23755293E+01  1.23755293E+01
 -2.47510585E+01  0.00000000E+00  1.23755293E+01  1.23755293E+01 -2.47510585E+01
  0.00000000E+00  1.23755293E+01  1.23755293E+01 -2.47510585E+01  0.00000000E+00
  1.23755293E+01  1.23755293E+01 -2.47510585E+01  0.00000000E+00  1.23755293E+01
  1.23755293E+01 -2.47510585E+01  0.00000000E+00  1.23755293E+01  1.23755293E+01
 -2.47510585E+01  0.00000000E+00  1.23755293E+01  1.23755293E+01 -2.47510585E+01
  0.00000000E+00  1.23755293E+01  1.23755293E+01 -2.47510585E+01  0.00000000E+00
  1.23755293E+01  1.23755293E+01 -2.47510585E+01  0.00000000E+00  1.23755293E+01
  1.23755293E+01 -2.47510585E+01  0.00000000E+00  1.23755293E+01  1.23755293E+01
 -2.47510585E+01  0.00000000E+00  1.23755293E+01  1.23755293E+01 -2.47510585E+01
  0.00000000E+00  1.23755293E+01  1.23755293E+01 -2.47510585E+01  0.00000000E+00
  1.23755293E+01  1.23755293E+01 -2.47510585E+01  0.00000000E+00  1.23755293E+01
  1.23755293E+01 -2.47510585E+01  0.00000000E+00  1.23755293E+01  1.23755293E+01
 -2.47510585E+01  0.00000000E+00  1.23755293E+01  1.23755293E+01 -2.47510585E+01
  0.00000000E+00  1.23755293E+01  1.23755293E+01 -2.47510585E+01  0.00000000E+00
  1.23755293E+01  1.23755293E+01 -2.47510585E+01  0.00000000E+00  1.23755293E+01
  1.23755293E+01 -2.47510585E+01  0.00000000E+00  1.23755293E+01  1.23755293E+01
 -2.47510585E+01  0.00000000E+00  1.23755293E+01  1.23755293E+01 -2.47510585E+01
  0.00000000E+00  1.23755293E+01  1.23755293E+01 -2.47510585E+01  0.00000000E+00
  1.23755293E+01  1.23755293E+01 -2.47510585E+01  0.00000000E+00  1.23755293E+01
  1.23755293E+01 -2.47510585E+01  0.00000000E+00  1.23755293E+01  1.23755293E+01
 -2.47510585E+01  0.00000000E+00  1.23755293E+01  1.23755293E+01 -2.47510585E+01
  0.00000000E+00  1.23755293E+01  1.23755293E+01 -2.47510585E+01  0.00000000E+00
  1.23755293E+01  1.23755293E+01 -2.47510585E+01  0.00000000E+00  1.23755293E+01
  1.23755293E+01 -2.47510585E+01  0.00000000E+00  1.23755293E+01  1.23755293E+01
 -2.47510585E+01  0.00000000E+00  1.23755293E+01  1.23755293E+01 -2.47510585E+01
  0.00000000E+00  1.23755293E+01  1.23755293E+01 -2.47510585E+01  0.00000000E+00
  1.23755293E+01  1.23755293E+01 -2.47510585E+01  0.00000000E+00  1.23755293E+01
  1.23755293E+01 -2.47510585E+01  0.00000000E+00  1.23755293E+01  1.23755293E+01
 -2.47510585E+01  0.00000000E+00  1.23755293E+01  1.23755293E+01 -2.47510585E+01
  0.00000000E+00  1.23755293E+01  1.23755293E+01 -2.47510585E+01  0.00000000E+00
  1.23755293E+01  1.23755293E+01 -2.47510585E+01  0.00000000E+00  1.23755293E+01
  1.23755293E+01 -2.47510585E+01  0.00000000E+00  1.23755293E+01  1.23755293E+01
 -2.47510585E+01  0.00000000E+00  1.23755293E+01  1.23755293E+01 -2.47510585E+01
  0.00000000E+00  1.23755293E+01  1.23755293E+01 -2.47510585E+01  0.00000000E+00
  1.23755293E+01  1.23755293E+01 -2.47510585E+01  0.00000000E+00  1.23755293E+01
  1.23755293E+01 -2.47510585E+01  0.00000000E+00  1.23755293E+01  1.23755293E+01
 -2.47510585E+01  0.00000000E+00  1.23755293E+01  1.23755293E+01 -2.47510585E+01
  0.00000000E+00  1.23755293E+01  1.23755293E+01 -2.47510585E+01  0.00000000E+00
  1.23755293E+01  1.23755293E+01 -2.47510585E+01  0.00000000E+00  1.23755293E+01
  1.23755293E+01 -2.47510585E+01  0.00000000E+00  1.23755293E+01  1.23755293E+01
 -2.47510585E+01  0.00000000E+00  1.23755293E+01  1.23755293E+01 -2.47510585E+01
  0.00000000E+00  1.23755293E+01  1.23755293E+01 -2.47510585E+01  0.00000000E+00
  1.23755293E+01  1.23755293E+01 -2.47510585E+01  0.00000000E+00  1.23755293E+01
  1.23755293E+01 -2.47510585E+01  0.00000000E+00  1.23755293E+01  1.23755293E+01
 -2.47510585E+01  0.00000000E+00  1.23755293E+01  1.23755293E+01 -2.47510585E+01
  0.00000000E+00  1.23755293E+01  1.23755293E+01 -2.47510585E+01  0.00000000E+00
  1.23755293E+01  1.23755293E+01 -2.47510585E+01  0.00000000E+00  1.23755293E+01
  1.23755293E+01 -2.47510585E+01  0.00000000E+00  1.23755293E+01  1.23755293E+01
 -2.47510585E+01  0.00000000E+00  1.23755293E+01  1.23755293E+01 -2.47510585E+01
  0.00000000E+00  1.23755293E+01  1.23755293E+01 -2.47510585E+01  0.00000000E+00
  1.23755293E+01  1.23755293E+01 -2.47510585E+01  0.00000000E+00  1.23755293E+01
  1.23755293E+01 -2.47510585E+01  0.00000000E+00  1.23755293E+01  1.23755293E+01
 -2.47510585E+01  0.00000000E+00  1.23755293E+01  1.23755293E+01 -2.47510585E+01
  0.00000000E+00  1.23755293E+01  1.23755293E+01 -2.47510585E+01  0.00000000E+00
  1.23755293E+01  1.23755293E+01 -2.47510585E+01  0.00000000E+00  1.23755293E+01
  1.23755293E+01 -2.47510585E+01  0.00000000E+00  1.23755293E+01  1.23755293E+01
 -2.47510585E+01  0.00000000E+00  1.23755293E+01  1.23755293E+01 -2.47510585E+01
  0.00000000E+00  1.23755293E+01  1.23755293E+01 -2.47510585E+01  0.00000000E+00
  1.23755293E+01  1.23755293E+01 -2.47510585E+01  0.00000000E+00  1.23755293E+01
  1.23755293E+01 -2.47510585E+01  0.00000000E+00  1.23755293E+01  1.23755293E+01
 -2.47510585E+01  0.00000000E+00  1.23755293E+01  1.23755293E+01 -2.47510585E+01
  0.00000000E+00  1.23755293E+01  1.23755293E+01 -2.47510585E+01  0.00000000E+00
  1.23755293E+01  1.23755293E+01 -2.47510585E+01  0.00000000E+00  1.23755293E+01
  1.23755293E+01 -2.47510585E+01  0.00000000E+00  1.23755293E+01  1.23755293E+01
 -2.47510585E+01  0.00000000E+00  1.23755293E+01  1.23755293E+01 -2.47510585E+01
  0.00000000E+00  1.23755293E+01  1.23755293E+01 -2.47510585E+01  0.00000000E+00
  1.23755293E+01  1.23755293E+01 -2.47510585E+01  0.00000000E+00  1.23755293E+01
  1.23755293E+01 -2.47510585E+01  0.00000000E+00  1.23755293E+01  1.23755293E+01
 -2.47510585E+01  0.00000000E+00  1.23755293E+01  1.23755293E+01 -2.47510585E+01
  0.00000000E+00  1.23755293E+01  1.23755293E+01 -2.47510585E+01  0.00000000E+00
  1.23755293E+01  1.23755293E+01 -2.47510585E+01  0.00000000E+00  1.23755293E+01
  1.23755293E+01 -2.47510585E+01  0.00000000E+00  1.23755293E+01  1.23755293E+01
 -2.47510585E+01  0.00000000E+00  1.23755293E+01  1.23755293E+01 -2.47510585E+01
  0.00000000E+00  1.23755293E+01  1.23755293E+01 -2.47510585E+01  0.00000000E+00
  1.23755293E+01  1.23755293E+01 -2.47510585E+01  0.00000000E+00  1.23755293E+01
  1.23755293E+01 -2.47510585E+01  0.00000000E+00  1.23755293E+01  1.23755293E+01
 -2.47510585E+01  0.00000000E+00  1.23755293E+01  1.23755293E+01 -2.47510585E+01
  0.00000000E+00  1.23755293E+01  1.23755293E+01 -2.47510585E+01  0.00000000E+00
  1.23755293E+01  1.23755293E+01 -2.47510585E+01  0.00000000E+00  1.23755293E+01
  1.23755293E+01 -2.47510585E+01  0.00000000E+00  1.23755293E+01  1.23755293E+01
 -2.47510585E+01  0.00000000E+00  1.23755293E+01  1.23755293E+01 -2.47510585E+01
  0.00000000E+00  1.23755293E+01  1.23755293E+01 -2.47510585E+01  0.00000000E+00
  1.23755293E+01  1.23755293E+01 -2.47510585E+01  0.00000000E+00  1.23755293E+01
  1.23755293E+01 -2.47510585E+01  0.00000000E+00  1.23755293E+01  1.23755293E+01
 -2.47510585E+01  0.00000000E+00  1.23755293E+01  1.23755293E+01 -2.47510585E+01
  0.00000000E+00  1.23755293E+01  1.23755293E+01 -2.47510585E+01  0.00000000E+00
  1.23755293E+01  1.23755293E+01 -2.47510585E+01  0.00000000E+00  1.23755293E+01
  1.23755293E+01 -2.47510585E+01  0.00000000E+00  1.23755293E+01  1.23755293E+01
 -2.47510585E+01  0.00000000E+00  1.23755293E+01  1.23755293E+01 -2.47510585E+01
  0.00000000E+00  1.23755293E+01  1.23755293E+01 -2.47510585E+01  0.00000000E+00
  1.23755293E+01  1.23755293E+01 -2.47510585E+01  0.00000000E+00  1.23755293E+01
  1.23755293E+01 -2.47510585E+01  0.00000000E+00  1.23755293E+01  1.23755293E+01
 -2.47510585E+01  0.00000000E+00  1.23755293E+01  1.23755293E+01 -2.47510585E+01
  0.00000000E+00  1.23755293E+01  1.23755293E+01 -2.47510585E+01  0.00000000E+00
  1.23755293E+01  1.23755293E+01 -2.47510585E+01  0.00000000E+00  1.23755293E+01
  1.23755293E+01 -2.47510585E+01  0.00000000E+00  1.23755293E+01  1.23755293E+01
 -2.47510585E+01  0.00000000E+00  1.23755293E+01  1.23755293E+01 -2.47510585E+01
  0.00000000E+00  1.23755293E+01  1.23755293E+01 -2.47510585E+01  0.00000000E+00
  1.23755293E+01  1.23755293E+01 -2.47510585E+01  0.00000000E+00  1.23755293E+01
  1.23755293E+01 -2.47510585E+01  0.00000000E+00  1.23755293E+01  1.23755293E+01
 -2.47510585E+01  0.00000000E+00  1.23755293E+01  1.23755293E+01 -2.47510585E+01
  0.00000000E+00  1.23755293E+01  1.23755293E+01 -2.47510585E+01  0.00000000E+00
  1.23755293E+01  1.23755293E+01 -2.47510585E+01  0.00000000E+00  1.23755293E+01
  1.23755293E+01 -2.47510585E+01  0.00000000E+00  1.23755293E+01  1.23755293E+01
 -2.47510585E+01  0.00000000E+00  1.23755293E+01  1.23755293E+01 -2.47510585E+01
  0.00000000E+00  1.23755293E+01  1.23755293E+01 -2.47510585E+01  0.00000000E+00
  1.23755293E+01  1.23755293E+01 -2.47510585E+01  0.00000000E+00  1.23755293E+01
  1.23755293E+01 -2.47510585E+01  0.00000000E+00  1.23755293E+01  1.23755293E+01
 -2.47510585E+01  0.00000000E+00  1.23755293E+01  1.23755293E+01 -2.47510585E+01
  0.00000000E+00  1.23755293E+01  1.23755293E+01 -2.47510585E+01  0.00000000E+00
  1.23755293E+01  1.23755293E+01 -2.47510585E+01  0.00000000E+00  1.23755293E+01
  1.23755293E+01 -2.47510585E+01  0.00000000E+00  1.23755293E+01  1.23755293E+01
 -2.47510585E+01  0.00000000E+00  1.23755293E+01  1.23755293E+01 -2.47510585E+01
  0.00000000E+00  1.23755293E+01  1.23755293E+01 -2.47510585E+01  0.00000000E+00
  1.23755293E+01  1.23755293E+01 -2.47510585E+01  0.00000000E+00  1.23755293E+01
  1.23755293E+01 -2.47510585E+01  0.00000000E+00  1.23755293E+01  1.23755293E+01
 -2.47510585E+01  0.00000000E+00  1.23755293E+01  1.23755293E+01 -2.47510585E+01
  0.00000000E+00  1.23755293E+01  1.23755293E+01 -2.47510585E+01  0.00000000E+00
  1.23755293E+01  1.23755293E+01 -2.47510585E+01  0.00000000E+00  1.23755293E+01
  1.23755293E+01 -2.47510585E+01  0.00000000E+00  1.23755293E+01  1.23755293E+01
 -2.47510585E+01  0.00000000E+00  1.23755293E+01  1.23755293E+01 -2.47510585E+01
  0.00000000E+00  1.23755293E+01  1.23755293E+01 -2.47510585E+01  0.00000000E+00
  1.23755293E+01  1.23755293E+01 -2.47510585E+01  0.00000000E+00  1.23755293E+01
  1.23755293E+01 -2.47510585E+01  0.00000000E+00  1.23755293E+01  1.23755293E+01
 -2.47510585E+01  0.00000000E+00  1.23755293E+01  1.23755293E+01 -2.47510585E+01
  0.00000000E+00  1.23755293E+01  1.23755293E+01 -2.47510585E+01  0.00000000E+00
  1.23755293E+01  1.23755293E+01 -2.47510585E+01  0.00000000E+00  1.23755293E+01
  1.23755293E+01 -2.47510585E+01  0.00000000E+00  1.23755293E+01  1.23755293E+01
 -2.47510585E+01  0.00000000E+00  1.23755293E+01  1.23755293E+01 -2.47510585E+01
  0.00000000E+00  1.23755293E+01  1.23755293E+01 -2.47510585E+01  0.00000000E+00
  1.23755293E+01  1.23755293E+01 -2.47510585E+01  0.00000000E+00  1.23755293E+01
  1.23755293E+01 -2.47510585E+01  0.00000000E+00  1.23755293E+01  1.23755293E+01
 -2.47510585E+01  0.00000000E+00  1.23755293E+01  1.23755293E+01 -2.47510585E+01
  0.00000000E+00  1.23755293E+01  1.23755293E+01 -2.47510585E+01  0.00000000E+00
  1.23755293E+01  1.23755293E+01 -2.47510585E+01  0.00000000E+00  1.23755293E+01
  1.23755293E+01 -2.47510585E+01  0.00000000E+00  1.23755293E+01  1.23755293E+01
 -2.47510585E+01  0.00000000E+00  1.23755293E+01  1.23755293E+01 -2.47510585E+01
  0.00000000E+00  1.23755293E+01  1.23755293E+01 -2.47510585E+01  0.00000000E+00
  1.23755293E+01  1.23755293E+01 -2.47510585E+01  0.00000000E+00  1.23755293E+01
  1.23755293E+01 -2.47510585E+01  0.00000000E+00  1.23755293E+01  1.23755293E+01
 -2.47510585E+01  0.00000000E+00  1.23755293E+01  1.23755293E+01 -2.47510585E+01
  0.00000000E+00  1.23755293E+01  1.23755293E+01 -2.47510585E+01  0.00000000E+00
  1.23755293E+01  1.23755293E+01 -2.47510585E+01  0.00000000E+00  1.23755293E+01
  1.23755293E+01 -2.47510585E+01  0.00000000E+00  1.23755293E+01  1.23755293E+01
 -2.47510585E+01  0.00000000E+00  1.23755293E+01  1.23755293E+01 -2.47510585E+01
  0.00000000E+00  1.23755293E+01  1.23755293E+01 -2.47510585E+01  0.00000000E+00
  1.23755293E+01  1.23755293E+01 -2.47510585E+01  0.00000000E+00  1.23755293E+01
  1.23755293E+01 -2.47510585E+01  0.00000000E+00  1.23755293E+01  1.23755293E+01
 -2.47510585E+01  0.00000000E+00  1.23755293E+01  1.23755293E+01 -2.47510585E+01
  0.00000000E+00  1.23755293E+01  1.23755293E+01 -2.47510585E+01  0.00000000E+00
  1.23755293E+01  1.23755293E+01 -2.47510585E+01  0.00000000E+00  1.23755293E+01
  1.23755293E+01 -2.47510585E+01  0.00000000E+00  1.23755293E+01  1.23755293E+01
 -2.47510585E+01  0.00000000E+00  1.23755293E+01  1.23755293E+01 -2.47510585E+01
  0.00000000E+00  1.23755293E+01  1.23755293E+01 -2.47510585E+01  0.00000000E+00
  1.23755293E+01  1.23755293E+01 -2.47510585E+01  0.00000000E+00  1.23755293E+01
  1.23755293E+01 -2.47510585E+01  0.00000000E+00  1.23755293E+01  1.23755293E+01
 -2.47510585E+01  0.00000000E+00  1.23755293E+01  1.23755293E+01 -2.47510585E+01
  0.00000000E+00  1.23755293E+01  1.23755293E+01 -2.47510585E+01  0.00000000E+00
  1.23755293E+01  1.23755293E+01 -2.47510585E+01  0.00000000E+00  1.23755293E+01
  1.23755293E+01 -2.47510585E+01  0.00000000E+00  1.23755293E+01  1.23755293E+01
 -2.47510585E+01  0.00000000E+00  1.23755293E+01  1.23755293E+01 -2.47510585E+01
  0.00000000E+00  1.23755293E+01  1.23755293E+01 -2.47510585E+01  0.00000000E+00
  1.23755293E+01  1.23755293E+01 -2.47510585E+01  0.00000000E+00  1.23755293E+01
  1.23755293E+01 -2.47510585E+01  0.00000000E+00  1.23755293E+01  1.23755293E+01
 -2.47510585E+01  0.00000000E+00  1.23755293E+01  1.23755293E+01 -2.47510585E+01
  0.00000000E+00  1.23755293E+01  1.23755293E+01 -2.47510585E+01  0.00000000E+00
  1.23755293E+01  1.23755293E+01 -2.47510585E+01  0.00000000E+00  1.23755293E+01
  1.23755293E+01 -2.47510585E+01  0.00000000E+00  1.23755293E+01  1.23755293E+01
 -2.47510585E+01  0.00000000E+00  1.23755293E+01  1.23755293E+01 -2.47510585E+01
  0.00000000E+00  1.23755293E+01  1.23755293E+01 -2.47510585E+01  0.00000000E+00
  1.23755293E+01  1.23755293E+01 -2.47510585E+01  0.00000000E+00  1.23755293E+01
  1.23755293E+01 -2.47510585E+01  0.00000000E+00  1.23755293E+01  1.23755293E+01
 -2.47510585E+01  0.00000000E+00  1.23755293E+01  1.23755293E+01 -2.47510585E+01
  0.00000000E+00  1.23755293E+01  1.23755293E+01 -2.47510585E+01  0.00000000E+00
  1.23755293E+01  1.23755293E+01 -2.47510585E+01  0.00000000E+00  1.23755293E+01
  1.23755293E+01 -2.47510585E+01  0.00000000E+00  1.23755293E+01  1.23755293E+01
 -2.47510585E+01  0.00000000E+00  1.23755293E+01  1.23755293E+01 -2.47510585E+01
  0.00000000E+00  1.23755293E+01  1.23755293E+01 -2.47510585E+01  0.00000000E+00
  1.23755293E+01  1.23755293E+01 -2.47510585E+01  0.00000000E+00  1.23755293E+01
  1.23755293E+01 -2.47510585E+01  0.00000000E+00  1.23755293E+01  1.23755293E+01
 -2.47510585E+01  0.00000000E+00  1.23755293E+01  1.23755293E+01 -2.47510585E+01
  0.00000000E+00  1.23755293E+01  1.23755293E+01 -2.47510585E+01  0.00000000E+00
  1.23755293E+01  1.23755293E+01 -2.47510585E+01  0.00000000E+00  1.23755293E+01
  1.23755293E+01 -2.47510585E+01  0.00000000E+00  1.23755293E+01  1.23755293E+01
 -2.47510585E+01  0.00000000E+00  1.23755293E+01  1.23755293E+01 -2.47510585E+01
  0.00000000E+00  1.23755293E+01  1.23755293E+01 -2.47510585E+01  0.00000000E+00
  1.23755293E+01  1.23755293E+01 -2.47510585E+01  0.00000000E+00  1.23755293E+01
  1.23755293E+01 -2.47510585E+01  0.00000000E+00  1.23755293E+01  1.23755293E+01
 -2.47510585E+01  0.00000000E+00  1.23755293E+01  1.23755293E+01 -2.47510585E+01
  0.00000000E+00  1.23755293E+01  1.23755293E+01 -2.47510585E+01  0.00000000E+00
  1.23755293E+01  1.23755293E+01 -2.47510585E+01  0.00000000E+00  1.23755293E+01
  1.23755293E+01 -2.47510585E+01  0.00000000E+00  1.23755293E+01  1.23755293E+01
 -2.47510585E+01  0.00000000E+00  1.23755293E+01  1.23755293E+01 -2.47510585E+01
  0.00000000E+00  1.23755293E+01  1.23755293E+01 -2.47510585E+01  0.00000000E+00
  1.23755293E+01  1.23755293E+01 -2.47510585E+01  0.00000000E+00  1.23755293E+01
  1.23755293E+01 -2.47510585E+01  0.00000000E+00  1.23755293E+01  1.23755293E+01
 -2.47510585E+01  0.00000000E+00  1.23755293E+01  1.23755293E+01 -2.47510585E+01
  0.00000000E+00  1.23755293E+01  1.23755293E+01 -2.47510585E+01  0.00000000E+00
  1.23755293E+01  1.23755293E+01 -2.47510585E+01  0.00000000E+00  1.23755293E+01
  1.23755293E+01 -2.47510585E+01  0.00000000E+00  1.23755293E+01  1.23755293E+01
 -2.47510585E+01  0.00000000E+00  1.23755293E+01  1.23755293E+01 -2.47510585E+01
  0.00000000E+00  1.23755293E+01  1.23755293E+01 -2.47510585E+01  0.00000000E+00
  1.23755293E+01  1.23755293E+01 -2.47510585E+01  0.00000000E+00  1.23755293E+01
  1.23755293E+01 -2.47510585E+01  0.00000000E+00  1.23755293E+01  1.23755293E+01
 -2.47510585E+01  0.00000000E+00  1.23755293E+01  1.23755293E+01 -2.47510585E+01
  0.00000000E+00  1.23755293E+01  1.23755293E+01 -2.47510585E+01  0.00000000E+00
  1.23755293E+01  1.23755293E+01 -2.47510585E+01  0.00000000E+00  1.23755293E+01
  1.23755293E+01 -2.47510585E+01  0.00000000E+00  1.23755293E+01  1.23755293E+01
 -2.47510585E+01  0.00000000E+00  1.23755293E+01  1.23755293E+01 -2.47510585E+01
  0.00000000E+00  1.23755293E+01  1.23755293E+01 -2.47510585E+01  0.00000000E+00
  1.23755293E+01  1.23755293E+01 -2.47510585E+01  0.00000000E+00  1.23755293E+01
  1.23755293E+01 -2.47510585E+01  0.00000000E+00  1.23755293E+01  1.23755293E+01
 -2.47510585E+01  0.00000000E+00  1.23755293E+01  1.23755293E+01 -2.47510585E+01
  0.00000000E+00  1.23755293E+01  1.23755293E+01 -2.47510585E+01  0.00000000E+00
  1.23755293E+01  1.23755293E+01 -2.47510585E+01  0.00000000E+00  1.23755293E+01
  1.23755293E+01 -2.47510585E+01  0.00000000E+00  1.23755293E+01  1.23755293E+01
 -2.47510585E+01  0.00000000E+00  1.23755293E+01  1.23755293E+01 -2.47510585E+01
  0.00000000E+00  1.23755293E+01  1.23755293E+01 -2.47510585E+01  0.00000000E+00
  1.23755293E+01  1.23755293E+01 -2.47510585E+01  0.00000000E+00  1.23755293E+01
  1.23755293E+01 -2.47510585E+01  0.00000000E+00  1.23755293E+01  1.23755293E+01
 -2.47510585E+01  0.00000000E+00  1.23755293E+01  1.23755293E+01 -2.47510585E+01
  0.00000000E+00  1.23755293E+01  1.23755293E+01 -2.47510585E+01  0.00000000E+00
  1.23755293E+01  1.23755293E+01 -2.47510585E+01  0.00000000E+00  1.23755293E+01
  1.23755293E+01 -2.47510585E+01  0.00000000E+00  1.23755293E+01  1.23755293E+01
 -2.47510585E+01  0.00000000E+00  1.23755293E+01  1.23755293E+01 -2.47510585E+01
  0.00000000E+00  1.23755293E+01  1.23755293E+01 -2.47510585E+01  0.00000000E+00
  1.23755293E+01  1.23755293E+01 -2.47510585E+01  0.00000000E+00  1.23755293E+01
  1.23755293E+01 -2.47510585E+01  0.00000000E+00  1.23755293E+01  1.23755293E+01
 -2.47510585E+01  0.00000000E+00  1.23755293E+01  1.23755293E+01 -2.47510585E+01
  0.00000000E+00  1.23755293E+01  1.23755293E+01 -2.47510585E+01  0.00000000E+00
  1.23755293E+01  1.23755293E+01 -2.47510585E+01  0.00000000E+00  1.23755293E+01
  1.23755293E+01 -2.47510585E+01  0.00000000E+00  1.23755293E+01  1.23755293E+01
 -2.47510585E+01  0.00000000E+00  1.23755293E+01  1.23755293E+01 -2.47510585E+01
  0.00000000E+00  1.23755293E+01  1.23755293E+01 -2.47510585E+01  0.00000000E+00
  1.23755293E+01  1.23755293E+01 -2.47510585E+01  0.00000000E+00  1.23755293E+01
  1.23755293E+01 -2.47510585E+01  0.00000000E+00  1.23755293E+01  1.23755293E+01
 -2.47510585E+01  0.00000000E+00  1.23755293E+01  1.23755293E+01 -2.47510585E+01
  0.00000000E+00  1.23755293E+01  1.23755293E+01 -2.47510585E+01  0.00000000E+00
  1.23755293E+01  1.23755293E+01 -2.47510585E+01  0.00000000E+00  1.23755293E+01
  1.23755293E+01 -2.47510585E+01  0.00000000E+00  1.23755293E+01  1.23755293E+01
 -2.47510585E+01  0.00000000E+00  1.23755293E+01  1.23755293E+01 -2.47510585E+01
  0.00000000E+00  1.23755293E+01  1.23755293E+01 -2.47510585E+01  0.00000000E+00
  1.23755293E+01  1.23755293E+01 -2.47510585E+01  0.00000000E+00  1.23755293E+01
  1.23755293E+01 -2.47510585E+01  0.00000000E+00  1.23755293E+01  1.23755293E+01
 -2.47510585E+01  0.00000000E+00  1.23755293E+01  1.23755293E+01 -2.47510585E+01
  0.00000000E+00  1.23755293E+01  1.23755293E+01 -2.47510585E+01  0.00000000E+00
  1.23755293E+01  1.23755293E+01 -2.47510585E+01  0.00000000E+00  1.23755293E+01
  1.23755293E+01 -2.47510585E+01  0.00000000E+00  1.23755293E+01  1.23755293E+01
 -2.47510585E+01  0.00000000E+00  1.23755293E+01  1.23755293E+01 -2.47510585E+01
  0.00000000E+00  1.23755293E+01  1.23755293E+01 -2.47510585E+01  0.00000000E+00
  1.23755293E+01  1.23755293E+01 -2.47510585E+01  0.00000000E+00  1.23755293E+01
  1.23755293E+01 -2.47510585E+01  0.00000000E+00  1.23755293E+01  1.23755293E+01
 -2.47510585E+01  0.00000000E+00  1.23755293E+01  1.23755293E+01 -2.47510585E+01
  0.00000000E+00  1.23755293E+01  1.23755293E+01 -2.47510585E+01  0.00000000E+00
  1.23755293E+01  1.23755293E+01 -2.47510585E+01  0.00000000E+00  1.23755293E+01
  1.23755293E+01 -2.47510585E+01  0.00000000E+00  1.23755293E+01  1.23755293E+01
 -2.47510585E+01  0.00000000E+00  1.23755293E+01  1.23755293E+01 -2.47510585E+01
  0.00000000E+00  1.23755293E+01  1.23755293E+01 -2.47510585E+01  0.00000000E+00
  1.23755293E+01  1.23755293E+01 -2.47510585E+01  0.00000000E+00  1.23755293E+01
  1.23755293E+01 -2.47510585E+01  0.00000000E+00  1.23755293E+01  1.23755293E+01
 -2.47510585E+01  0.00000000E+00  1.23755293E+01  1.23755293E+01 -2.47510585E+01
  0.00000000E+00  1.23755293E+01  1.23755293E+01 -2.47510585E+01  0.00000000E+00
  1.23755293E+01  1.23755293E+01 -2.47510585E+01  0.00000000E+00  1.23755293E+01
  1.23755293E+01 -2.47510585E+01  0.00000000E+00  1.23755293E+01  1.23755293E+01
 -2.47510585E+01  0.00000000E+00  1.23755293E+01  1.23755293E+01 -2.47510585E+01
  0.00000000E+00  1.23755293E+01  1.23755293E+01 -2.47510585E+01  0.00000000E+00
  1.23755293E+01  1.23755293E+01 -2.47510585E+01  0.00000000E+00  1.23755293E+01
  1.23755293E+01 -2.47510585E+01  0.00000000E+00  1.23755293E+01  1.23755293E+01
 -2.47510585E+01  0.00000000E+00  1.23755293E+01  1.23755293E+01 -2.47510585E+01
  0.00000000E+00  1.23755293E+01  1.23755293E+01 -2.47510585E+01  0.00000000E+00
  1.23755293E+01  1.23755293E+01 -2.47510585E+01  0.00000000E+00  1.23755293E+01
  1.23755293E+01 -2.47510585E+01  0.00000000E+00  1.23755293E+01  1.23755293E+01
 -2.47510585E+01  0.00000000E+00  1.23755293E+01  1.23755293E+01 -2.47510585E+01
  0.00000000E+00  1.23755293E+01  1.23755293E+01 -2.47510585E+01  0.00000000E+00
  1.23755293E+01  1.23755293E+01 -2.47510585E+01  0.00000000E+00  1.23755293E+01
  1.23755293E+01 -2.47510585E+01  0.00000000E+00  1.23755293E+01  1.23755293E+01
 -2.47510585E+01  0.00000000E+00  1.23755293E+01  1.23755293E+01 -2.47510585E+01
  0.00000000E+00  1.23755293E+01  1.23755293E+01 -2.47510585E+01  0.00000000E+00
  1.23755293E+01  1.23755293E+01 -2.47510585E+01  0.00000000E+00  1.23755293E+01
  1.23755293E+01 -2.47510585E+01  0.00000000E+00  1.23755293E+01  1.23755293E+01
 -2.47510585E+01  0.00000000E+00  1.23755293E+01  1.23755293E+01 -2.47510585E+01
  0.00000000E+00  1.23755293E+01  1.23755293E+01 -2.47510585E+01  0.00000000E+00
  1.23755293E+01  1.23755293E+01 -2.47510585E+01  0.00000000E+00  1.23755293E+01
  1.23755293E+01 -2.47510585E+01  0.00000000E+00  1.23755293E+01  1.23755293E+01
 -2.47510585E+01  0.00000000E+00  1.23755293E+01  1.23755293E+01 -2.47510585E+01
  0.00000000E+00  1.23755293E+01  1.23755293E+01 -2.47510585E+01  0.00000000E+00
  1.23755293E+01  1.23755293E+01 -2.47510585E+01  0.00000000E+00  1.23755293E+01
  1.23755293E+01 -2.47510585E+01  0.00000000E+00  1.23755293E+01  1.23755293E+01
 -2.47510585E+01  0.00000000E+00  1.23755293E+01  1.23755293E+01 -2.47510585E+01
  0.00000000E+00  1.23755293E+01  1.23755293E+01 -2.47510585E+01  0.00000000E+00
  1.23755293E+01  1.23755293E+01 -2.47510585E+01  0.00000000E+00  1.23755293E+01
  1.23755293E+01 -2.47510585E+01  0.00000000E+00  1.23755293E+01  1.23755293E+01
 -2.47510585E+01  0.00000000E+00  1.23755293E+01  1.23755293E+01 -2.47510585E+01
  0.00000000E+00  1.23755293E+01  1.23755293E+01 -2.47510585E+01  0.00000000E+00
  1.23755293E+01  1.23755293E+01 -2.47510585E+01  0.00000000E+00  1.23755293E+01
  1.23755293E+01 -2.47510585E+01  0.00000000E+00  1.23755293E+01  1.23755293E+01
 -2.47510585E+01  0.00000000E+00  1.23755293E+01  1.23755293E+01 -2.47510585E+01
  0.00000000E+00  1.23755293E+01  1.23755293E+01 -2.47510585E+01  0.00000000E+00
  1.23755293E+01  1.23755293E+01 -2.47510585E+01  0.00000000E+00  1.23755293E+01
  1.23755293E+01 -2.47510585E+01  0.00000000E+00  1.23755293E+01  1.23755293E+01
 -2.47510585E+01  0.00000000E+00  1.23755293E+01  1.23755293E+01 -2.47510585E+01
  0.00000000E+00  1.23755293E+01  1.23755293E+01 -2.47510585E+01  0.00000000E+00
  1.23755293E+01  1.23755293E+01 -2.47510585E+01  0.00000000E+00  1.23755293E+01
  1.23755293E+01 -2.47510585E+01  0.00000000E+00  1.23755293E+01  1.23755293E+01
 -2.47510585E+01  0.00000000E+00  1.23755293E+01  1.23755293E+01 -2.47510585E+01
  0.00000000E+00  1.23755293E+01  1.23755293E+01 -2.47510585E+01  0.00000000E+00
  1.23755293E+01  1.23755293E+01 -2.47510585E+01  0.00000000E+00  1.23755293E+01
  1.23755293E+01 -2.47510585E+01  0.00000000E+00  1.23755293E+01  1.23755293E+01
 -2.47510585E+01  0.00000000E+00  1.23755293E+01  1.23755293E+01 -2.47510585E+01
  0.00000000E+00  1.23755293E+01  1.23755293E+01 -2.47510585E+01  0.00000000E+00
  1.23755293E+01  1.23755293E+01 -2.47510585E+01  0.00000000E+00  1.23755293E+01
  1.23755293E+01 -2.47510585E+01  0.00000000E+00  1.23755293E+01  1.23755293E+01
 -2.47510585E+01  0.00000000E+00  1.23755293E+01  1.23755293E+01 -2.47510585E+01
  0.00000000E+00  1.23755293E+01  1.23755293E+01 -2.47510585E+01  0.00000000E+00
  1.23755293E+01  1.23755293E+01 -2.47510585E+01  0.00000000E+00  1.23755293E+01
  1.23755293E+01 -2.47510585E+01  0.00000000E+00  1.23755293E+01  1.23755293E+01
 -2.47510585E+01  0.00000000E+00  1.23755293E+01  1.23755293E+01 -2.47510585E+01
  0.00000000E+00  1.23755293E+01  1.23755293E+01 -2.47510585E+01
%FLAG ATOMIC_NUMBER                                                             
%FORMAT(10I8)                                                                   
       1       6       1       1       6       8       7       1       6       1
       6       1       1       6       1       1       6       1       1       6
       1       1       7       1       1       1       6       8       7       1
       6       1       6       1       1       1       6       8       7       1
       6       1       6       1       1       6       1       1       6       8
       8       6       8       7       1       6       1       1       1       8
       1       1       0       8       1       1       0       8       1       1
       0       8       1       1       0       8       1       1       0       8
       1       1       0       8       1       1       0       8       1       1
       0       8       1       1       0       8       1       1       0       8
       1       1       0       8       1       1       0       8       1       1
       0       8       1       1       0       8       1       1       0       8
       1       1       0       8       1       1       0       8       1       1
       0       8       1       1       0       8       1       1       0       8
       1       1       0       8       1       1       0       8       1       1
       0       8       1       1       0       8       1       1       0       8
       1       1       0       8       1       1       0       8       1       1
       0       8       1       1       0       8       1       1       0       8
       1       1       0       8       1       1       0       8       1       1
       0       8       1       1       0       8       1       1       0       8
       1       1       0       8       1       1       0       8       1       1
       0       8       1       1       0       8       1       1       0       8
       1       1       0       8       1       1       0       8       1       1
       0       8       1       1       0       8       1       1       0       8
       1       1       0       8       1       1       0       8       1       1
       0       8       1       1       0       8       1       1       0       8
       1       1       0       8       1       1       0       8       1       1
       0       8       1       1       0       8       1       1       0       8
       1       1       0       8       1       1       0       8       1       1
       0       8       1       1       0       8       1       1       0       8
       1       1       0       8       1       1       0       8       1       1
       0       8       1       1       0       8       1       1       0       8
       1       1       0       8       1       1       0       8       1       1
       0       8       1       1       0       8       1       1       0       8
       1       1       0       8       1       1       0       8       1       1
       0       8       1       1       0       8       1       1       0       8
       1       1       0       8       1       1       0       8       1       1
       0       8       1       1       0       8       1       1       0       8
       1       1       0       8       1       1       0       8       1       1
       0       8       1       1       0       8       1       1       0       8
       1       1       0       8       1       1       0       8       1       1
       0       8       1       1       0       8       1       1       0       8
       1       1       0       8       1       1       0       8       1       1
       0       8       1       1       0       8       1       1       0       8
       1       1       0       8       1       1       0       8       1       1
       0       8       1       1       0       8       1       1       0       8
       1       1       0       8       1       1       0       8       1       1
       0       8       1       1       0       8       1       1       0       8
       1       1       0       8       1       1       0       8       1       1
       0       8       1       1       0       8       1       1       0       8
       1       1       0       8       1       1       0       8       1       1
       0       8       1       1       0       8       1       1       0       8
       1       1       0       8       1       1       0       8       1       1
       0       8       1       1       0       8       1       1       0       8
       1       1       0       8       1       1       0       8       1       1
       0       8       1       1       0       8       1       1       0       8
       1       1       0       8       1       1       0       8       1       1
       0       8       1       1       0       8       1       1       0       8
       1       1       0       8       1       1       0       8       1       1
       0       8       1       1       0       8       1       1       0       8
       1       1       0       8       1       1       0       8       1       1
       0       8       1       1       0       8       1       1       0       8
       1       1       0       8       1       1       0       8       1       1
       0       8       1       1       0       8       1       1       0       8
       1       1       0       8       1       1       0       8       1       1
       0       8       1       1       0       8       1       1       0       8
       1       1       0       8       1       1       0       8       1       1
       0       8       1       1       0       8       1       1       0       8
       1       1       0       8       1       1       0       8       1       1
       0       8       1       1       0       8       1       1       0       8
       1       1       0       8       1       1       0       8       1       1
       0       8       1       1       0       8       1       1       0       8
       1       1       0       8       1       1       0       8       1       1
       0       8       1       1       0       8       1       1       0       8
       1       1       0       8       1       1       0       8       1       1
       0       8       1       1       0       8       1       1       0       8
       1       1       0       8       1       1       0       8       1       1
       0       8       1       1       0       8       1       1       0       8
       1       1       0       8       1       1       0       8       1       1
       0       8       1       1       0       8       1       1       0       8
       1       1       0       8       1       1       0       8       1       1
       0       8       1       1       0       8       1       1       0       8
       1       1       0       8       1       1       0       8       1       1
       0       8       1       1       0       8       1       1       0       8
       1       1       0       8       1       1       0       8       1       1
       0       8       1       1       0       8       1       1       0       8
       1       1       0       8       1       1       0       8       1       1
       0       8       1       1       0       8       1       1       0       8
       1       1       0       8       1       1       0       8       1       1
       0       8       1       1       0       8       1       1       0       8
       1       1       0       8       1       1       0       8       1       1
       0       8       1       1       0       8       1       1       0       8
       1       1       0       8       1       1       0       8       1       1
       0       8       1       1       0       8       1       1       0       8
       1       1       0       8       1       1       0       8       1       1
       0       8       1       1       0       8       1       1       0       8
       1       1       0       8       1       1       0       8       1       1
       0       8       1       1       0       8       1       1       0       8
       1       1       0       8       1       1       0       8       1       1
       0       8       1       1       0       8       1       1       0       8
       1       1       0       8       1       1       0       8       1       1
       0       8       1       1       0       8       1       1       0       8
       1       1       0       8       1       1       0       8       1       1
       0       8       1       1       0       8       1       1       0       8
       1       1       0       8       1       1       0       8       1       1
       0       8       1       1       0       8       1       1       0       8
       1       1       0       8       1       1       0       8       1       1
       0       8       1       1       0       8       1       1       0       8
       1       1       0       8       1       1       0       8       1       1
       0       8       1       1       0       8       1       1       0       8
       1       1       0       8       1       1       0       8       1       1
       0       8       1       1       0       8       1       1       0       8
       1       1       0       8       1       1       0       8       1       1
       0       8       1       1       0       8       1       1       0       8
       1       1       0       8       1       1       0       8       1       1
       0       8       1       1       0       8       1       1       0       8
       1       1       0       8       1       1       0       8       1       1
       0       8       1       1       0       8       1       1       0       8
       1       1       0       8       1       1       0       8       1       1
       0       8       1       1       0       8       1       1       0       8
       1       1       0       8       1       1       0       8       1       1
       0       8       1       1       0       8       1       1       0       8
       1       1       0       8       1       1       0       8       1       1
       0       8       1       1       0       8       1       1       0       8
       1       1       0       8       1       1       0       8       1       1
       0       8       1       1       0       8       1       1       0       8
       1       1       0       8       1       1       0       8       1       1
       0       8       1       1       0       8       1       1       0       8
       1       1       0       8       1       1       0       8       1       1
       0       8       1       1       0       8       1       1       0       8
       1       1       0       8       1       1       0       8       1       1
       0       8       1       1       0       8       1       1       0       8
       1       1       0       8       1       1       0       8       1       1
       0       8       1       1       0       8       1       1       0       8
       1       1       0       8       1       1       0       8       1       1
       0       8       1       1       0       8       1       1       0       8
       1       1       0       8       1       1       0       8       1       1
       0       8       1       1       0       8       1       1       0       8
       1       1       0       8       1       1       0       8       1       1
       0       8       1       1       0       8       1       1       0       8
       1       1       0       8       1       1       0       8       1       1
       0       8       1       1       0       8       1       1       0       8
       1       1       0       8       1       1       0       8       1       1
       0       8       1       1       0       8       1       1       0       8
       1       1       0       8       1       1       0       8       1       1
       0       8       1       1       0       8       1       1       0       8
       1       1       0       8       1       1       0       8       1       1
       0       8       1       1       0       8       1       1       0       8
       1       1       0       8       1       1       0       8       1       1
       0       8       1       1       0       8       1       1       0       8
       1       1       0       8       1       1       0       8       1       1
       0       8       1       1       0       8       1       1       0       8
       1       1       0       8       1       1       0       8       1       1
       0       8       1       1       0       8       1       1       0       8
       1       1       0       8       1       1       0       8       1       1
       0       8       1       1       0       8       1       1       0       8
       1       1       0       8       1       1       0       8       1       1
       0       8       1       1       0       8       1       1       0       8
       1       1       0       8       1       1       0       8       1       1
       0       8       1       1       0       8       1       1       0       8
       1       1       0       8       1       1       0       8       1       1
       0       8       1       1       0       8       1       1       0       8
       1       1       0       8       1       1       0       8       1       1
       0       8       1       1       0       8       1       1       0       8
       1       1       0       8       1       1       0       8       1       1
       0       8       1       1       0       8       1       1       0       8
       1       1       0       8       1       1       0       8       1       1
       0       8       1       1       0       8       1       1       0       8
       1       1       0       8       1       1       0       8       1       1
       0       8       1       1       0       8       1       1       0       8
       1       1       0       8       1       1       0       8       1       1
       0       8       1       1       0       8       1       1       0       8
       1       1       0       8       1       1       0       8       1       1
       0       8       1       1       0       8       1       1       0       8
       1       1       0       8       1       1       0       8       1       1
       0       8       1       1       0       8       1       1       0       8
       1       1       0       8       1       1       0       8       1       1
       0       8       1       1       0       8       1       1       0       8
       1       1       0       8       1       1       0       8       1       1
       0       8       1       1       0       8       1       1       0       8
       1       1       0       8       1       1       0       8       1       1
       0       8       1       1       0       8       1       1       0       8
       1       1       0       8       1       1       0       8       1       1
       0       8       1       1       0       8       1       1       0       8
       1       1       0       8       1       1       0       8       1       1
       0       8       1       1       0       8       1       1       0       8
       1       1       0       8       1       1       0       8       1       1
       0       8       1       1       0       8       1       1       0       8
       1       1       0       8       1       1       0       8       1       1
       0       8       1       1       0       8       1       1       0       8
       1       1       0       8       1       1       0       8       1       1
       0       8       1       1       0       8       1       1       0       8
       1       1       0       8       1       1       0       8       1       1
       0       8       1       1       0       8       1       1       0       8
       1       1       0       8       1       1       0       8       1       1
       0       8       1       1       0       8       1       1       0       8
       1       1       0       8       1       1       0       8       1       1
       0       8       1       1       0       8       1       1       0       8
       1       1       0       8       1       1       0       8       1       1
       0       8       1       1       0       8       1       1       0       8
       1       1       0       8       1       1       0       8       1       1
       0       8       1       1       0       8       1       1       0       8
       1       1       0       8       1       1       0       8       1       1
       0       8       1       1       0       8       1       1       0       8
       1       1       0       8       1       1       0       8       1       1
       0       8       1       1       0       8       1       1       0       8
       1       1       0       8       1       1       0       8       1       1
       0       8       1       1       0       8       1       1       0       8
       1       1       0       8       1       1       0       8       1       1
       0       8       1       1       0       8       1       1       0       8
       1       1       0       8       1       1       0       8       1       1
       0       8       1       1       0       8       1       1       0       8
       1       1       0       8       1       1       0       8       1       1
       0       8       1       1       0       8       1       1       0       8
       1       1       0       8       1       1       0       8       1       1
       0       8       1       1       0       8       1       1       0       8
       1       1       0       8       1       1       0       8       1       1
       0       8       1       1       0       8       1       1       0       8
       1       1       0       8       1       1       0       8       1       1
       0       8       1       1       0       8       1       1       0       8
       1       1       0       8       1       1       0       8       1       1
       0       8       1       1       0       8       1       1       0       8
       1       1       0       8       1       1       0       8       1       1
       0       8       1       1       0       8       1       1       0       8
       1       1       0       8       1       1       0       8       1       1
       0       8       1       1       0       8       1       1       0       8
       1       1       0       8       1       1       0       8       1       1
       0       8       1       1       0       8       1       1       0       8
       1       1       0       8       1       1       0       8       1       1
       0       8       1       1       0       8       1       1       0       8
       1       1       0       8       1       1       0       8       1       1
       0       8       1       1       0       8       1       1       0       8
       1       1       0       8       1       1       0       8       1       1
       0       8       1       1       0       8       1       1       0       8
       1       1       0       8       1       1       0       8       1       1
       0       8       1       1       0       8       1       1       0       8
       1       1       0       8       1       1       0       8       1       1
       0       8       1       1       0       8       1       1       0       8
       1       1       0       8       1       1       0       8       1       1
       0       8       1       1       0       8       1       1       0       8
       1       1       0       8       1       1       0       8       1       1
       0       8       1       1       0       8       1       1       0       8
       1       1       0       8       1       1       0       8       1       1
       0       8       1       1       0       8       1       1       0       8
       1       1       0       8       1       1       0       8       1       1
       0       8       1       1       0       8       1       1       0       8
       1       1       0       8       1       1       0       8       1       1
       0       8       1       1       0       8       1       1       0       8
       1       1       0       8       1       1       0       8       1       1
       0       8       1       1       0       8       1       1       0       8
       1       1       0       8       1       1       0       8       1       1
       0       8       1       1       0       8       1       1       0       8
       1       1       0       8       1       1       0       8       1       1
       0       8       1       1       0       8       1       1       0       8
       1       1       0       8       1       1       0       8       1       1
       0       8       1       1       0       8       1       1       0       8
       1       1       0       8       1       1       0       8       1       1
       0       8       1       1       0       8       1       1       0       8
       1       1       0       8       1       1       0       8       1       1
       0       8       1       1       0       8       1       1       0       8
       1       1       0       8       1       1       0       8       1       1
       0       8       1       1       0       8       1       1       0       8
       1       1       0       8       1       1       0       8       1       1
       0       8       1       1       0       8       1       1       0       8
       1       1       0       8       1       1       0       8       1       1
       0       8       1       1       0       8       1       1       0       8
       1       1       0       8       1       1       0       8       1       1
       0       8       1       1       0       8       1       1       0       8
       1       1       0       8       1       1       0       8       1       1
       0       8       1       1       0       8       1       1       0       8
       1       1       0       8       1       1       0       8       1       1
       0       8       1       1       0       8       1       1       0       8
       1       1       0       8       1       1       0       8       1       1
       0       8       1       1       0       8       1       1       0       8
       1       1       0       8       1       1       0       8       1       1
       0       8       1       1       0       8       1       1       0       8
       1       1       0       8       1       1       0       8       1       1
       0       8       1       1       0       8       1       1       0       8
       1       1       0       8       1       1       0       8       1       1
       0       8       1       1       0       8       1       1       0       8
       1       1       0       8       1       1       0       8       1       1
       0       8       1       1       0       8       1       1       0       8
       1       1       0       8       1       1       0       8       1       1
       0       8       1       1       0       8       1       1       0       8
       1       1       0       8       1       1       0       8       1       1
       0       8       1       1       0       8       1       1       0       8
       1       1       0       8       1       1       0       8       1       1
       0       8       1       1       0       8       1       1       0       8
       1       1       0       8       1       1       0       8       1       1
       0       8       1       1       0       8       1       1       0       8
       1       1       0       8       1       1       0       8       1       1
       0       8       1       1       0       8       1       1       0       8
       1       1       0       8       1       1       0       8       1       1
       0       8       1       1       0       8       1       1       0       8
       1       1       0       8       1       1       0       8       1       1
       0       8       1       1       0       8       1       1       0       8
       1       1       0       8       1       1       0       8       1       1
       0       8       1       1       0       8       1       1       0       8
       1       1       0       8       1       1       0       8       1       1
       0       8       1       1       0       8       1       1       0       8
       1       1       0       8       1       1       0       8       1       1
       0       8       1       1       0       8       1       1       0       8
       1       1       0       8       1       1       0       8       1       1
       0       8       1       1       0       8       1       1       0       8
       1       1       0       8       1       1       0       8       1       1
       0       8       1       1       0       8       1       1       0       8
       1       1       0       8       1       1       0       8       1       1
       0       8       1       1       0       8       1       1       0       8
       1       1       0       8       1       1       0       8       1       1
       0       8       1       1       0       8       1       1       0       8
       1       1       0       8       1       1       0       8       1       1
       0       8       1       1       0       8       1       1       0       8
       1       1       0       8       1       1       0       8       1       1
       0       8       1       1       0       8       1       1       0       8
       1       1       0       8       1       1       0       8       1       1
       0       8       1       1       0       8       1       1       0       8
       1       1       0       8       1       1       0       8       1       1
       0       8       1       1       0       8       1       1       0       8
       1       1       0       8       1       1       0       8       1       1
       0       8       1       1       0       8       1       1       0       8
       1       1       0       8       1       1       0       8       1       1
       0       8       1       1       0       8       1       1       0       8
       1       1       0       8       1       1       0       8       1       1
       0       8       1       1       0       8       1       1       0       8
       1       1       0       8       1       1       0       8       1       1
       0       8       1       1       0       8       1       1       0       8
       1       1       0       8       1       1       0       8       1       1
       0       8       1       1       0       8       1       1       0       8
       1       1       0       8       1       1       0       8       1       1
       0       8       1       1       0       8       1       1       0       8
       1       1       0       8       1       1       0       8       1       1
       0       8       1       1       0       8       1       1       0       8
       1       1       0       8       1       1       0       8       1       1
       0       8       1       1       0       8       1       1       0       8
       1       1       0       8       1       1       0       8       1       1
       0       8       1       1       0       8       1       1       0       8
       1       1       0       8       1       1       0       8       1       1
       0       8       1       1       0       8       1       1       0       8
       1       1       0       8       1       1       0       8       1       1
       0       8       1       1       0       8       1       1       0       8
       1       1       0       8       1       1       0       8       1       1
       0       8       1       1       0       8       1       1       0       8
       1       1       0       8       1       1       0       8       1       1
       0       8       1       1       0       8       1       1       0       8
       1       1       0       8       1       1       0       8       1       1
       0       8       1       1       0       8       1       1       0       8
       1       1       0       8       1       1       0       8       1       1
       0       8       1       1       0       8       1       1       0       8
       1       1       0       8       1       1       0       8       1       1
       0       8       1       1       0       8       1       1       0       8
       1       1       0       8       1       1       0       8       1       1
       0       8       1       1       0       8       1       1       0       8
       1       1       0       8       1       1       0       8       1       1
       0       8       1       1       0       8       1       1       0       8
       1       1       0       8       1       1       0       8       1       1
       0       8       1       1       0       8       1       1       0       8
       1       1       0       8       1       1       0       8       1       1
       0       8       1       1       0       8       1       1       0       8
       1       1       0       8       1       1       0       8       1       1
       0       8       1       1       0       8       1       1       0       8
       1       1       0       8       1       1       0       8       1       1
       0       8       1       1       0       8       1       1       0       8
       1       1       0       8       1       1       0       8       1       1
       0       8       1       1       0       8       1       1       0       8
       1       1       0       8       1       1       0       8       1       1
       0       8       1       1       0       8       1       1       0       8
       1       1       0       8       1       1       0       8       1       1
       0       8       1       1       0       8       1       1       0       8
       1       1       0       8       1       1       0       8       1       1
       0       8       1       1       0       8       1       1       0       8
       1       1       0       8       1       1       0       8       1       1
       0       8       1       1       0       8       1       1       0       8
       1       1       0       8       1       1       0       8       1       1
       0       8       1       1       0       8       1       1       0       8
       1       1       0       8       1       1       0       8       1       1
       0       8       1       1       0       8       1       1       0       8
       1       1       0       8       1       1       0       8       1       1
       0       8       1       1       0       8       1       1       0       8
       1       1       0       8       1       1       0       8       1       1
       0       8       1       1       0       8       1       1       0       8
       1       1       0       8       1       1       0       8       1       1
       0       8       1       1       0       8       1       1       0       8
       1       1       0       8       1       1       0       8       1       1
       0       8       1       1       0       8       1       1       0       8
       1       1       0       8       1       1       0       8       1       1
       0       8       1       1       0       8       1       1       0       8
       1       1       0       8       1       1       0       8       1       1
       0       8       1       1       0       8       1       1       0       8
       1       1       0       8       1       1       0       8       1       1
       0       8       1       1       0       8       1       1       0       8
       1       1       0       8       1       1       0       8       1       1
       0       8       1       1       0       8       1       1       0       8
       1       1       0       8       1       1       0       8       1       1
       0       8       1       1       0       8       1       1       0       8
       1       1       0       8       1       1       0       8       1       1
       0       8       1       1       0       8       1       1       0       8
       1       1       0       8       1       1       0       8       1       1
       0       8       1       1       0       8       1       1       0       8
       1       1       0       8       1       1       0       8       1       1
       0       8       1       1       0       8       1       1       0       8
       1       1       0       8       1       1       0       8       1       1
       0       8       1       1       0       8       1       1       0       8
       1       1       0       8       1       1       0       8       1       1
       0       8       1       1       0       8       1       1       0       8
       1       1       0       8       1       1       0       8       1       1
       0       8       1       1       0       8       1       1       0       8
       1       1       0       8       1       1       0       8       1       1
       0       8       1       1       0       8       1       1       0       8
       1       1       0       8       1       1       0       8       1       1
       0       8       1       1       0       8       1       1       0       8
       1       1       0       8       1       1       0       8       1       1
       0       8       1       1       0       8       1       1       0       8
       1       1       0       8       1       1       0       8       1       1
       0       8       1       1       0       8       1       1       0       8
       1       1       0       8       1       1       0       8       1       1
       0       8       1       1       0       8       1       1       0       8
       1       1       0       8       1       1       0       8       1       1
       0       8       1       1       0       8       1       1       0       8
       1       1       0       8       1       1       0       8       1       1
       0       8       1       1       0       8       1       1       0       8
       1       1       0       8       1       1       0       8       1       1
       0       8       1       1       0       8       1       1       0       8
       1       1       0       8       1       1       0       8       1       1
       0       8       1       1       0       8       1       1       0       8
       1       1       0       8       1       1       0       8       1       1
       0       8       1       1       0       8       1       1       0       8
       1       1       0       8       1       1       0       8       1       1
       0       8       1       1       0       8       1       1       0       8
       1       1       0       8       1       1       0       8       1       1
       0       8       1       1       0       8       1       1       0       8
       1       1       0       8       1       1       0       8       1       1
       0       8       1       1       0       8       1       1       0       8
       1       1       0       8       1       1       0       8       1       1
       0       8       1       1       0       8       1       1       0       8
       1       1       0       8       1       1       0       8       1       1
       0       8       1       1       0       8       1       1       0       8
       1       1       0       8       1       1       0       8       1       1
       0       8       1       1       0       8       1       1       0       8
       1       1       0       8       1       1       0       8       1       1
       0       8       1       1       0       8       1       1       0       8
       1       1       0       8       1       1       0       8       1       1
       0       8       1       1       0       8       1       1       0       8
       1       1       0       8       1       1       0       8       1       1
       0       8       1       1       0       8       1       1       0       8
       1       1       0       8       1       1       0       8       1       1
       0       8       1       1       0       8       1       1       0       8
       1       1       0       8       1       1       0       8       1       1
       0       8       1       1       0       8       1       1       0       8
       1       1       0       8       1       1       0       8       1       1
       0       8       1       1       0       8       1       1       0       8
       1       1       0       8       1       1       0       8       1       1
       0       8       1       1       0       8       1       1       0       8
       1       1       0       8       1       1       0       8       1       1
       0       8       1       1       0       8       1       1       0       8
       1       1       0       8       1       1       0       8       1       1
       0       8       1       1       0       8       1       1       0       8
       1       1       0       8       1       1       0       8       1       1
       0       8       1       1       0       8       1       1       0       8
       1       1       0       8       1       1       0       8       1       1
       0       8       1       1       0       8       1       1       0       8
       1       1       0       8       1       1       0       8       1       1
       0       8       1       1       0       8       1       1       0       8
       1       1       0       8       1       1       0       8       1       1
       0       8       1       1       0       8       1       1       0       8
       1       1       0       8       1       1       0       8       1       1
       0       8       1       1       0       8       1       1       0       8
       1       1       0       8       1       1       0       8       1       1
       0       8       1       1       0       8       1       1       0       8
       1       1       0       8       1       1       0       8       1       1
       0       8       1       1       0       8       1       1       0       8
       1       1       0       8       1       1       0       8       1       1
       0       8       1       1       0       8       1       1       0       8
       1       1       0       8       1       1       0       8       1       1
       0       8       1       1       0       8       1       1       0       8
       1       1       0       8       1       1       0       8       1       1
       0       8       1       1       0       8       1       1       0       8
       1       1       0       8       1       1       0       8       1       1
       0       8       1       1       0       8       1       1       0       8
       1       1       0       8       1       1       0       8       1       1
       0       8       1       1       0       8       1       1       0       8
       1       1       0       8       1       1       0       8       1       1
       0       8       1       1       0       8       1       1       0       8
       1       1       0       8       1       1       0       8       1       1
       0       8       1       1       0       8       1       1       0       8
       1       1       0       8       1       1       0       8       1       1
       0       8       1       1       0       8       1       1       0       8
       1       1       0       8       1       1       0       8       1       1
       0       8       1       1       0       8       1       1       0       8
       1       1       0       8       1       1       0       8       1       1
       0       8       1       1       0       8       1       1       0       8
       1       1       0       8       1       1       0       8       1       1
       0       8       1       1       0       8       1       1       0       8
       1       1       0       8       1       1       0       8       1       1
       0       8       1       1       0       8       1       1       0       8
       1       1       0       8       1       1       0       8       1       1
       0       8       1       1       0       8       1       1       0       8
       1       1       0       8       1       1       0       8       1       1
       0       8       1       1       0       8       1       1       0       8
       1       1       0       8       1       1       0       8       1       1
       0       8       1       1       0       8       1       1       0       8
       1       1       0       8       1       1       0       8       1       1
       0       8       1       1       0       8       1       1       0       8
       1       1       0       8       1       1       0       8       1       1
       0       8       1       1       0       8       1       1       0       8
       1       1       0       8       1       1       0       8       1       1
       0       8       1       1       0       8       1       1       0       8
       1       1       0       8       1       1       0       8       1       1
       0       8       1       1       0       8       1       1       0       8
       1       1       0       8       1       1       0       8       1       1
       0       8       1       1       0       8       1       1       0       8
       1       1       0       8       1       1       0       8       1       1
       0       8       1       1       0       8       1       1       0       8
       1       1       0       8       1       1       0       8       1       1
       0       8       1       1       0       8       1       1       0       8
       1       1       0       8       1       1       0       8       1       1
       0       8       1       1       0       8       1       1       0       8
       1       1       0       8       1       1       0       8       1       1
       0       8       1       1       0       8       1       1       0       8
       1       1       0       8       1       1       0       8       1       1
       0       8       1       1       0       8       1       1       0       8
       1       1       0       8       1       1       0       8       1       1
       0       8       1       1       0       8       1       1       0       8
       1       1       0       8       1       1       0       8       1       1
       0       8       1       1       0       8       1       1       0       8
       1       1       0       8       1       1       0       8       1       1
       0       8       1       1       0       8       1       1       0       8
       1       1       0       8       1       1       0       8       1       1
       0       8       1       1       0       8       1       1       0       8
       1       1       0       8       1       1       0       8       1       1
       0       8       1       1       0       8       1       1       0       8
       1       1       0       8       1       1       0       8       1       1
       0       8       1       1       0       8       1       1       0       8
       1       1       0       8       1       1       0       8       1       1
       0       8       1       1       0       8       1       1       0       8
       1       1       0       8       1       1       0       8       1       1
       0       8       1       1       0       8       1       1       0       8
       1       1       0       8       1       1       0       8       1       1
       0       8       1       1       0       8       1       1       0       8
       1       1       0       8       1       1       0       8       1       1
       0       8       1       1       0       8       1       1       0       8
       1       1       0       8       1       1       0       8       1       1
       0       8       1       1       0       8       1       1       0       8
       1       1       0       8       1       1       0       8       1       1
       0       8       1       1       0       8       1       1       0       8
       1       1       0       8       1       1       0       8       1       1
       0       8       1       1       0       8       1       1       0       8
       1       1       0       8       1       1       0       8       1       1
       0       8       1       1       0       8       1       1       0       8
       1       1       0       8       1       1       0       8       1       1
       0       8       1       1       0       8       1       1       0       8
       1       1       0       8       1       1       0       8       1       1
       0       8       1       1       0       8       1       1       0       8
       1       1       0       8       1       1       0       8       1       1
       0       8       1       1       0       8       1       1       0       8
       1       1       0       8       1       1       0       8       1       1
       0       8       1       1       0       8       1       1       0       8
       1       1       0       8       1       1       0       8       1       1
       0       8       1       1       0       8       1       1       0       8
       1       1       0       8       1       1       0       8       1       1
       0       8       1       1       0       8       1       1       0       8
       1       1       0       8       1       1       0       8       1       1
       0       8       1       1       0       8       1       1       0       8
       1       1       0       8       1       1       0       8       1       1
       0       8       1       1       0       8       1       1       0       8
       1       1       0       8       1       1       0       8       1       1
       0       8       1       1       0       8       1       1       0       8
       1       1       0       8       1       1       0       8       1       1
       0       8       1       1       0       8       1       1       0       8
       1       1       0       8       1       1       0       8       1       1
       0       8       1       1       0       8       1       1       0       8
       1       1       0       8       1       1       0       8       1       1
       0       8       1       1       0       8       1       1       0       8
       1       1       0       8       1       1       0       8       1       1
       0       8       1       1       0       8       1       1       0       8
       1       1       0       8       1       1       0       8       1       1
       0       8       1       1       0       8       1       1       0       8
       1       1       0       8       1       1       0       8       1       1
       0       8       1       1       0       8       1       1       0       8
       1       1       0       8       1       1       0       8       1       1
       0       8       1       1       0       8       1       1       0       8
       1       1       0       8       1       1       0       8       1       1
       0       8       1       1       0       8       1       1       0       8
       1       1       0       8       1       1       0       8       1       1
       0       8       1       1       0       8       1       1       0       8
       1       1       0       8       1       1       0       8       1       1
       0       8       1       1       0       8       1       1       0       8
       1       1       0       8       1       1       0       8       1       1
       0       8       1       1       0       8       1       1       0       8
       1       1       0       8       1       1       0       8       1       1
       0       8       1       1       0       8       1       1       0       8
       1       1       0       8       1       1       0       8       1       1
       0       8       1       1       0       8       1       1       0       8
       1       1       0       8       1       1       0       8       1       1
       0       8       1       1       0       8       1       1       0       8
       1       1       0       8       1       1       0       8       1       1
       0       8       1       1       0       8       1       1       0       8
       1       1       0       8       1       1       0       8       1       1
       0       8       1       1       0       8       1       1       0       8
       1       1       0       8       1       1       0       8       1       1
       0       8       1       1       0       8       1       1       0       8
       1       1       0       8       1       1       0       8       1       1
       0       8       1       1       0       8       1       1       0       8
       1       1       0       8       1       1       0       8       1       1
       0       8       1       1       0       8       1       1       0       8
       1       1       0       8       1       1       0       8       1       1
       0       8       1       1       0       8       1       1       0       8
       1       1       0       8       1       1       0       8       1       1
       0       8       1       1       0       8       1       1       0       8
       1       1       0       8       1       1       0       8       1       1
       0       8       1       1       0       8       1       1       0       8
       1       1       0       8       1       1       0       8       1       1
       0       8       1       1       0       8       1       1       0       8
       1       1       0       8       1       1       0       8       1       1
       0       8       1       1       0       8       1       1       0       8
       1       1       0       8       1       1       0       8       1       1
       0       8       1       1       0       8       1       1       0       8
       1       1       0       8       1       1       0       8       1       1
       0       8       1       1       0       8       1       1       0       8
       1       1       0       8       1       1       0       8       1       1
       0       8       1       1       0       8       1       1       0       8
       1       1       0       8       1       1       0       8       1       1
       0       8       1       1       0       8       1       1       0       8
       1       1       0       8       1       1       0       8       1       1
       0       8       1       1       0       8       1       1       0       8
       1       1       0       8       1       1       0       8       1       1
       0       8       1       1       0       8       1       1       0       8
       1       1       0       8       1       1       0       8       1       1
       0       8       1       1       0       8       1       1       0       8
       1       1       0       8       1       1       0       8       1       1
       0       8       1       1       0       8       1       1       0       8
       1       1       0       8       1       1       0       8       1       1
       0       8       1       1       0       8       1       1       0       8
       1       1       0       8       1       1       0       8       1       1
       0       8       1       1       0       8       1       1       0       8
       1       1       0       8       1       1       0       8       1       1
       0       8       1       1       0       8       1       1       0       8
       1       1       0       8       1       1       0       8       1       1
       0       8       1       1       0       8       1       1       0       8
       1       1       0       8       1       1       0       8       1       1
       0       8       1       1       0       8       1       1       0       8
       1       1       0       8       1       1       0       8       1       1
       0       8       1       1       0       8       1       1       0       8
       1       1       0       8       1       1       0       8       1       1
       0       8       1       1       0       8       1       1       0       8
       1       1       0       8       1       1       0       8       1       1
       0       8       1       1       0       8       1       1       0       8
       1       1       0       8       1       1       0       8       1       1
       0       8       1       1       0       8       1       1       0       8
       1       1       0       8       1       1       0       8       1       1
       0       8       1       1       0       8       1       1       0       8
       1       1       0       8       1       1       0       8       1       1
       0       8       1       1       0       8       1       1       0       8
       1       1       0       8       1       1       0       8       1       1
       0       8       1       1       0       8       1       1       0       8
       1       1       0       8       1       1       0       8       1       1
       0       8       1       1       0       8       1       1       0       8
       1       1       0       8       1       1       0       8       1       1
       0       8       1       1       0       8       1       1       0       8
       1       1       0       8       1       1       0       8       1       1
       0       8       1       1       0       8       1       1       0       8
       1       1       0       8       1       1       0       8       1       1
       0       8       1       1       0       8       1       1       0       8
       1       1       0       8       1       1       0       8       1       1
       0       8       1       1       0       8       1       1       0       8
       1       1       0       8       1       1       0       8       1       1
       0       8       1       1       0       8       1       1       0       8
       1       1       0       8       1       1       0       8       1       1
       0       8       1       1       0       8       1       1       0       8
       1       1       0       8       1       1       0       8       1       1
       0       8       1       1       0       8       1       1       0       8
       1       1       0       8       1       1       0       8       1       1
       0       8       1       1       0       8       1       1       0       8
       1       1       0       8       1       1       0       8       1       1
       0       8       1       1       0       8       1       1       0       8
       1       1       0       8       1       1       0       8       1       1
       0       8       1       1       0       8       1       1       0       8
       1       1       0       8       1       1       0       8       1       1
       0       8       1       1       0       8       1       1       0
%FLAG MASS                                                                      
%FORMAT(5E16.8)                                                                 
  1.00800000E+00  1.20100000E+01  1.00800000E+00  1.00800000E+00  1.20100000E+01
  1.60000000E+01  1.40100000E+01  1.00800000E+00  1.20100000E+01  1.00800000E+00
  1.20100000E+01  1.00800000E+00  1.00800000E+00  1.20100000E+01  1.00800000E+00
  1.00800000E+00  1.20100000E+01  1.00800000E+00  1.00800000E+00  1.20100000E+01
  1.00800000E+00  1.00800000E+00  1.40100000E+01  1.00800000E+00  1.00800000E+00
  1.00800000E+00  1.20100000E+01  1.60000000E+01  1.40100000E+01  1.00800000E+00
  1.20100000E+01  1.00800000E+00  1.20100000E+01  1.00800000E+00  1.00800000E+00
  1.00800000E+00  1.20100000E+01  1.60000000E+01  1.40100000E+01  1.00800000E+00
  1.20100000E+01  1.00800000E+00  1.20100000E+01  1.00800000E+00  1.00800000E+00
  1.20100000E+01  1.00800000E+00  1.00800000E+00  1.20100000E+01  1.60000000E+01
  1.60000000E+01  1.20100000E+01  1.60000000E+01  1.40100000E+01  1.00800000E+00
  1.20100000E+01  1.00800000E+00  1.00800000E+00  1.00800000E+00  1.60000000E+01
  1.00800000E+00  1.00800000E+00  0.00000000E+00  1.60000000E+01  1.00800000E+00
  1.00800000E+00  0.00000000E+00  1.60000000E+01  1.00800000E+00  1.00800000E+00
  0.00000000E+00  1.60000000E+01  1.00800000E+00  1.00800000E+00  0.00000000E+00
  1.60000000E+01  1.00800000E+00  1.00800000E+00  0.00000000E+00  1.60000000E+01
  1.00800000E+00  1.00800000E+00  0.00000000E+00  1.60000000E+01  1.00800000E+00
  1.00800000E+00  0.00000000E+00  1.60000000E+01  1.00800000E+00  1.00800000E+00
  0.00000000E+00  1.60000000E+01  1.00800000E+00  1.00800000E+00  0.00000000E+00
  1.60000000E+01  1.00800000E+00  1.00800000E+00  0.00000000E+00  1.60000000E+01
  1.00800000E+00  1.00800000E+00  0.00000000E+00  1.60000000E+01  1.00800000E+00
  1.00800000E+00  0.00000000E+00  1.60000000E+01  1.00800000E+00  1.00800000E+00
  0.00000000E+00  1.60000000E+01  1.00800000E+00  1.00800000E+00  0.00000000E+00
  1.60000000E+01  1.00800000E+00  1.00800000E+00  0.00000000E+00  1.60000000E+01
  1.00800000E+00  1.00800000E+00  0.00000000E+00  1.60000000E+01  1.00800000E+00
  1.00800000E+00  0.00000000E+00  1.60000000E+01  1.00800000E+00  1.00800000E+00
  0.00000000E+00  1.60000000E+01  1.00800000E+00  1.00800000E+00  0.00000000E+00
  1.60000000E+01  1.00800000E+00  1.00800000E+00  0.00000000E+00  1.60000000E+01
  1.00800000E+00  1.00800000E+00  0.00000000E+00  1.60000000E+01  1.00800000E+00
  1.00800000E+00  0.00000000E+00  1.60000000E+01  1.00800000E+00  1.00800000E+00
  0.00000000E+00  1.60000000E+01  1.00800000E+00  1.00800000E+00  0.00000000E+00
  1.60000000E+01  1.00800000E+00  1.00800000E+00  0.00000000E+00  1.60000000E+01
  1.00800000E+00  1.00800000E+00  0.00000000E+00  1.60000000E+01  1.00800000E+00
  1.00800000E+00  0.00000000E+00  1.60000000E+01  1.00800000E+00  1.00800000E+00
  0.00000000E+00  1.60000000E+01  1.00800000E+00  1.00800000E+00  0.00000000E+00
  1.60000000E+01  1.00800000E+00  1.00800000E+00  0.00000000E+00  1.60000000E+01
  1.00800000E+00  1.00800000E+00  0.00000000E+00  1.60000000E+01  1.00800000E+00
  1.00800000E+00  0.00000000E+00  1.60000000E+01  1.00800000E+00  1.00800000E+00
  0.00000000E+00  1.60000000E+01  1.00800000E+00  1.00800000E+00  0.00000000E+00
  1.60000000E+01  1.00800000E+00  1.00800000E+00  0.00000000E+00  1.60000000E+01
  1.00800000E+00  1.00800000E+00  0.00000000E+00  1.60000000E+01  1.00800000E+00
  1.00800000E+00  0.00000000E+00  1.60000000E+01  1.00800000E+00  1.00800000E+00
  0.00000000E+00  1.60000000E+01  1.00800000E+00  1.00800000E+00  0.00000000E+00
  1.60000000E+01  1.00800000E+00  1.00800000E+00  0.00000000E+00  1.60000000E+01
  1.00800000E+00  1.00800000E+00  0.00000000E+00  1.60000000E+01  1.00800000E+00
  1.00800000E+00  0.00000000E+00  1.60000000E+01  1.00800000E+00  1.00800000E+00
  0.00000000E+00  1.60000000E+01  1.00800000E+00  1.00800000E+00  0.00000000E+00
  1.60000000E+01  1.00800000E+00  1.00800000E+00  0.00000000E+00  1.60000000E+01
  1.00800000E+00  1.00800000E+00  0.00000000E+00  1.60000000E+01  1.00800000E+00
  1.00800000E+00  0.00000000E+00  1.60000000E+01  1.00800000E+00  1.00800000E+00
  0.00000000E+00  1.60000000E+01  1.00800000E+00  1.00800000E+00  0.00000000E+00
  1.60000000E+01  1.00800000E+00  1.00800000E+00  0.00000000E+00  1.60000000E+01
  1.00800000E+00  1.00800000E+00  0.00000000E+00  1.60000000E+01  1.00800000E+00
  1.00800000E+00  0.00000000E+00  1.60000000E+01  1.00800000E+00  1.00800000E+00
  0.00000000E+00  1.60000000E+01  1.00800000E+00  1.00800000E+00  0.00000000E+00
  1.60000000E+01  1.00800000E+00  1.00800000E+00  0.00000000E+00  1.60000000E+01
  1.00800000E+00  1.00800000E+00  0.00000000E+00  1.60000000E+01  1.00800000E+00
  1.00800000E+00  0.00000000E+00  1.60000000E+01  1.00800000E+00  1.00800000E+00
  0.00000000E+00  1.60000000E+01  1.00800000E+00  1.00800000E+00  0.00000000E+00
  1.60000000E+01  1.00800000E+00  1.00800000E+00  0.00000000E+00  1.60000000E+01
  1.00800000E+00  1.00800000E+00  0.00000000E+00  1.60000000E+01  1.00800000E+00
  1.00800000E+00  0.00000000E+00  1.60000000E+01  1.00800000E+00  1.00800000E+00
  0.00000000E+00  1.60000000E+01  1.00800000E+00  1.00800000E+00  0.00000000E+00
  1.60000000E+01  1.00800000E+00  1.00800000E+00  0.00000000E+00  1.60000000E+01
  1.00800000E+00  1.00800000E+00  0.00000000E+00  1.60000000E+01  1.00800000E+00
  1.00800000E+00  0.00000000E+00  1.60000000E+01  1.00800000E+00  1.00800000E+00
  0.00000000E+00  1.60000000E+01  1.00800000E+00  1.00800000E+00  0.00000000E+00
  1.60000000E+01  1.00800000E+00  1.00800000E+00  0.00000000E+00  1.60000000E+01
  1.00800000E+00  1.00800000E+00  0.00000000E+00  1.60000000E+01  1.00800000E+00
  1.00800000E+00  0.00000000E+00  1.60000000E+01  1.00800000E+00  1.00800000E+00
  0.00000000E+00  1.60000000E+01  1.00800000E+00  1.00800000E+00  0.00000000E+00
  1.60000000E+01  1.00800000E+00  1.00800000E+00  0.00000000E+00  1.60000000E+01
  1.00800000E+00  1.00800000E+00  0.00000000E+00  1.60000000E+01  1.00800000E+00
  1.00800000E+00  0.00000000E+00  1.60000000E+01  1.00800000E+00  1.00800000E+00
  0.00000000E+00  1.60000000E+01  1.00800000E+00  1.00800000E+00  0.00000000E+00
  1.60000000E+01  1.00800000E+00  1.00800000E+00  0.00000000E+00  1.60000000E+01
  1.00800000E+00  1.00800000E+00  0.00000000E+00  1.60000000E+01  1.00800000E+00
  1.00800000E+00  0.00000000E+00  1.60000000E+01  1.00800000E+00  1.00800000E+00
  0.00000000E+00  1.60000000E+01  1.00800000E+00  1.00800000E+00  0.00000000E+00
  1.60000000E+01  1.00800000E+00  1.00800000E+00  0.00000000E+00  1.60000000E+01
  1.00800000E+00  1.00800000E+00  0.00000000E+00  1.60000000E+01  1.00800000E+00
  1.00800000E+00  0.00000000E+00  1.60000000E+01  1.00800000E+00  1.00800000E+00
  0.00000000E+00  1.60000000E+01  1.00800000E+00  1.00800000E+00  0.00000000E+00
  1.60000000E+01  1.00800000E+00  1.00800000E+00  0.00000000E+00  1.60000000E+01
  1.00800000E+00  1.00800000E+00  0.00000000E+00  1.60000000E+01  1.00800000E+00
  1.00800000E+00  0.00000000E+00  1.60000000E+01  1.00800000E+00  1.00800000E+00
  0.00000000E+00  1.60000000E+01  1.00800000E+00  1.00800000E+00  0.00000000E+00
  1.60000000E+01  1.00800000E+00  1.00800000E+00  0.00000000E+00  1.60000000E+01
  1.00800000E+00  1.00800000E+00  0.00000000E+00  1.60000000E+01  1.00800000E+00
  1.00800000E+00  0.00000000E+00  1.60000000E+01  1.00800000E+00  1.00800000E+00
  0.00000000E+00  1.60000000E+01  1.00800000E+00  1.00800000E+00  0.00000000E+00
  1.60000000E+01  1.00800000E+00  1.00800000E+00  0.00000000E+00  1.60000000E+01
  1.00800000E+00  1.00800000E+00  0.00000000E+00  1.60000000E+01  1.00800000E+00
  1.00800000E+00  0.00000000E+00  1.60000000E+01  1.00800000E+00  1.00800000E+00
  0.00000000E+00  1.60000000E+01  1.00800000E+00  1.00800000E+00  0.00000000E+00
  1.60000000E+01  1.00800000E+00  1.00800000E+00  0.00000000E+00  1.60000000E+01
  1.00800000E+00  1.00800000E+00  0.00000000E+00  1.60000000E+01  1.00800000E+00
  1.00800000E+00  0.00000000E+00  1.60000000E+01  1.00800000E+00  1.00800000E+00
  0.00000000E+00  1.60000000E+01  1.00800000E+00  1.00800000E+00  0.00000000E+00
  1.60000000E+01  1.00800000E+00  1.00800000E+00  0.00000000E+00  1.60000000E+01
  1.00800000E+00  1.00800000E+00  0.00000000E+00  1.60000000E+01  1.00800000E+00
  1.00800000E+00  0.00000000E+00  1.60000000E+01  1.00800000E+00  1.00800000E+00
  0.00000000E+00  1.60000000E+01  1.00800000E+00  1.00800000E+00  0.00000000E+00
  1.60000000E+01  1.00800000E+00  1.00800000E+00  0.00000000E+00  1.60000000E+01
  1.00800000E+00  1.00800000E+00  0.00000000E+00  1.60000000E+01  1.00800000E+00
  1.00800000E+00  0.00000000E+00  1.60000000E+01  1.00800000E+00  1.00800000E+00
  0.00000000E+00  1.60000000E+01  1.00800000E+00  1.00800000E+00  0.00000000E+00
  1.60000000E+01  1.00800000E+00  1.00800000E+00  0.00000000E+00  1.60000000E+01
  1.00800000E+00  1.00800000E+00  0.00000000E+00  1.60000000E+01  1.00800000E+00
  1.00800000E+00  0.00000000E+00  1.60000000E+01  1.00800000E+00  1.00800000E+00
  0.00000000E+00  1.60000000E+01  1.00800000E+00  1.00800000E+00  0.00000000E+00
  1.60000000E+01  1.00800000E+00  1.00800000E+00  0.00000000E+00  1.60000000E+01
  1.00800000E+00  1.00800000E+00  0.00000000E+00  1.60000000E+01  1.00800000E+00
  1.00800000E+00  0.00000000E+00  1.60000000E+01  1.00800000E+00  1.00800000E+00
  0.00000000E+00  1.60000000E+01  1.00800000E+00  1.00800000E+00  0.00000000E+00
  1.60000000E+01  1.00800000E+00  1.00800000E+00  0.00000000E+00  1.60000000E+01
  1.00800000E+00  1.00800000E+00  0.00000000E+00  1.60000000E+01  1.00800000E+00
  1.00800000E+00  0.00000000E+00  1.60000000E+01  1.00800000E+00  1.00800000E+00
  0.00000000E+00  1.60000000E+01  1.00800000E+00  1.00800000E+00  0.00000000E+00
  1.60000000E+01  1.00800000E+00  1.00800000E+00  0.00000000E+00  1.60000000E+01
  1.00800000E+00  1.00800000E+00  0.00000000E+00  1.60000000E+01  1.00800000E+00
  1.00800000E+00  0.00000000E+00  1.60000000E+01  1.00800000E+00  1.00800000E+00
  0.00000000E+00  1.60000000E+01  1.00800000E+00  1.00800000E+00  0.00000000E+00
  1.60000000E+01  1.00800000E+00  1.00800000E+00  0.00000000E+00  1.60000000E+01
  1.00800000E+00  1.00800000E+00  0.00000000E+00  1.60000000E+01  1.00800000E+00
  1.00800000E+00  0.00000000E+00  1.60000000E+01  1.00800000E+00  1.00800000E+00
  0.00000000E+00  1.60000000E+01  1.00800000E+00  1.00800000E+00  0.00000000E+00
  1.60000000E+01  1.00800000E+00  1.00800000E+00  0.00000000E+00  1.60000000E+01
  1.00800000E+00  1.00800000E+00  0.00000000E+00  1.60000000E+01  1.00800000E+00
  1.00800000E+00  0.00000000E+00  1.60000000E+01  1.00800000E+00  1.00800000E+00
  0.00000000E+00  1.60000000E+01  1.00800000E+00  1.00800000E+00  0.00000000E+00
  1.60000000E+01  1.00800000E+00  1.00800000E+00  0.00000000E+00  1.60000000E+01
  1.00800000E+00  1.00800000E+00  0.00000000E+00  1.60000000E+01  1.00800000E+00
  1.00800000E+00  0.00000000E+00  1.60000000E+01  1.00800000E+00  1.00800000E+00
  0.00000000E+00  1.60000000E+01  1.00800000E+00  1.00800000E+00  0.00000000E+00
  1.60000000E+01  1.00800000E+00  1.00800000E+00  0.00000000E+00  1.60000000E+01
  1.00800000E+00  1.00800000E+00  0.00000000E+00  1.60000000E+01  1.00800000E+00
  1.00800000E+00  0.00000000E+00  1.60000000E+01  1.00800000E+00  1.00800000E+00
  0.00000000E+00  1.60000000E+01  1.00800000E+00  1.00800000E+00  0.00000000E+00
  1.60000000E+01  1.00800000E+00  1.00800000E+00  0.00000000E+00  1.60000000E+01
  1.00800000E+00  1.00800000E+00  0.00000000E+00  1.60000000E+01  1.00800000E+00
  1.00800000E+00  0.00000000E+00  1.60000000E+01  1.00800000E+00  1.00800000E+00
  0.00000000E+00  1.60000000E+01  1.00800000E+00  1.00800000E+00  0.00000000E+00
  1.60000000E+01  1.00800000E+00  1.00800000E+00  0.00000000E+00  1.60000000E+01
  1.00800000E+00  1.00800000E+00  0.00000000E+00  1.60000000E+01  1.00800000E+00
  1.00800000E+00  0.00000000E+00  1.60000000E+01  1.00800000E+00  1.00800000E+00
  0.00000000E+00  1.60000000E+01  1.00800000E+00  1.00800000E+00  0.00000000E+00
  1.60000000E+01  1.00800000E+00  1.00800000E+00  0.00000000E+00  1.60000000E+01
  1.00800000E+00  1.00800000E+00  0.00000000E+00  1.60000000E+01  1.00800000E+00
  1.00800000E+00  0.00000000E+00  1.60000000E+01  1.00800000E+00  1.00800000E+00
  0.00000000E+00  1.60000000E+01  1.00800000E+00  1.00800000E+00  0.00000000E+00
  1.60000000E+01  1.00800000E+00  1.00800000E+00  0.00000000E+00  1.60000000E+01
  1.00800000E+00  1.00800000E+00  0.00000000E+00  1.60000000E+01  1.00800000E+00
  1.00800000E+00  0.00000000E+00  1.60000000E+01  1.00800000E+00  1.00800000E+00
  0.00000000E+00  1.60000000E+01  1.00800000E+00  1.00800000E+00  0.00000000E+00
  1.60000000E+01  1.00800000E+00  1.00800000E+00  0.00000000E+00  1.60000000E+01
  1.00800000E+00  1.00800000E+00  0.00000000E+00  1.60000000E+01  1.00800000E+00
  1.00800000E+00  0.00000000E+00  1.60000000E+01  1.00800000E+00  1.00800000E+00
  0.00000000E+00  1.60000000E+01  1.00800000E+00  1.00800000E+00  0.00000000E+00
  1.60000000E+01  1.00800000E+00  1.00800000E+00  0.00000000E+00  1.60000000E+01
  1.00800000E+00  1.00800000E+00  0.00000000E+00  1.60000000E+01  1.00800000E+00
  1.00800000E+00  0.00000000E+00  1.60000000E+01  1.00800000E+00  1.00800000E+00
  0.00000000E+00  1.60000000E+01  1.00800000E+00  1.00800000E+00  0.00000000E+00
  1.60000000E+01  1.00800000E+00  1.00800000E+00  0.00000000E+00  1.60000000E+01
  1.00800000E+00  1.00800000E+00  0.00000000E+00  1.60000000E+01  1.00800000E+00
  1.00800000E+00  0.00000000E+00  1.60000000E+01  1.00800000E+00  1.00800000E+00
  0.00000000E+00  1.60000000E+01  1.00800000E+00  1.00800000E+00  0.00000000E+00
  1.60000000E+01  1.00800000E+00  1.00800000E+00  0.00000000E+00  1.60000000E+01
  1.00800000E+00  1.00800000E+00  0.00000000E+00  1.60000000E+01  1.00800000E+00
  1.00800000E+00  0.00000000E+00  1.60000000E+01  1.00800000E+00  1.00800000E+00
  0.00000000E+00  1.60000000E+01  1.00800000E+00  1.00800000E+00  0.00000000E+00
  1.60000000E+01  1.00800000E+00  1.00800000E+00  0.00000000E+00  1.60000000E+01
  1.00800000E+00  1.00800000E+00  0.00000000E+00  1.60000000E+01  1.00800000E+00
  1.00800000E+00  0.00000000E+00  1.60000000E+01  1.00800000E+00  1.00800000E+00
  0.00000000E+00  1.60000000E+01  1.00800000E+00  1.00800000E+00  0.00000000E+00
  1.60000000E+01  1.00800000E+00  1.00800000E+00  0.00000000E+00  1.60000000E+01
  1.00800000E+00  1.00800000E+00  0.00000000E+00  1.60000000E+01  1.00800000E+00
  1.00800000E+00  0.00000000E+00  1.60000000E+01  1.00800000E+00  1.00800000E+00
  0.00000000E+00  1.60000000E+01  1.00800000E+00  1.00800000E+00  0.00000000E+00
  1.60000000E+01  1.00800000E+00  1.00800000E+00  0.00000000E+00  1.60000000E+01
  1.00800000E+00  1.00800000E+00  0.00000000E+00  1.60000000E+01  1.00800000E+00
  1.00800000E+00  0.00000000E+00  1.60000000E+01  1.00800000E+00  1.00800000E+00
  0.00000000E+00  1.60000000E+01  1.00800000E+00  1.00800000E+00  0.00000000E+00
  1.60000000E+01  1.00800000E+00  1.00800000E+00  0.00000000E+00  1.60000000E+01
  1.00800000E+00  1.00800000E+00  0.00000000E+00  1.60000000E+01  1.00800000E+00
  1.00800000E+00  0.00000000E+00  1.60000000E+01  1.00800000E+00  1.00800000E+00
  0.00000000E+00  1.60000000E+01  1.00800000E+00  1.00800000E+00  0.00000000E+00
  1.60000000E+01  1.00800000E+00  1.00800000E+00  0.00000000E+00  1.60000000E+01
  1.00800000E+00  1.00800000E+00  0.00000000E+00  1.60000000E+01  1.00800000E+00
  1.00800000E+00  0.00000000E+00  1.60000000E+01  1.00800000E+00  1.00800000E+00
  0.00000000E+00  1.60000000E+01  1.00800000E+00  1.00800000E+00  0.00000000E+00
  1.60000000E+01  1.00800000E+00  1.00800000E+00  0.00000000E+00  1.60000000E+01
  1.00800000E+00  1.00800000E+00  0.00000000E+00  1.60000000E+01  1.00800000E+00
  1.00800000E+00  0.00000000E+00  1.60000000E+01  1.00800000E+00  1.00800000E+00
  0.00000000E+00  1.60000000E+01  1.00800000E+00  1.00800000E+00  0.00000000E+00
  1.60000000E+01  1.00800000E+00  1.00800000E+00  0.00000000E+00  1.60000000E+01
  1.00800000E+00  1.00800000E+00  0.00000000E+00  1.60000000E+01  1.00800000E+00
  1.00800000E+00  0.00000000E+00  1.60000000E+01  1.00800000E+00  1.00800000E+00
  0.00000000E+00  1.60000000E+01  1.00800000E+00  1.00800000E+00  0.00000000E+00
  1.60000000E+01  1.00800000E+00  1.00800000E+00  0.00000000E+00  1.60000000E+01
  1.00800000E+00  1.00800000E+00  0.00000000E+00  1.60000000E+01  1.00800000E+00
  1.00800000E+00  0.00000000E+00  1.60000000E+01  1.00800000E+00  1.00800000E+00
  0.00000000E+00  1.60000000E+01  1.00800000E+00  1.00800000E+00  0.00000000E+00
  1.60000000E+01  1.00800000E+00  1.00800000E+00  0.00000000E+00  1.60000000E+01
  1.00800000E+00  1.00800000E+00  0.00000000E+00  1.60000000E+01  1.00800000E+00
  1.00800000E+00  0.00000000E+00  1.60000000E+01  1.00800000E+00  1.00800000E+00
  0.00000000E+00  1.60000000E+01  1.00800000E+00  1.00800000E+00  0.00000000E+00
  1.60000000E+01  1.00800000E+00  1.00800000E+00  0.00000000E+00  1.60000000E+01
  1.00800000E+00  1.00800000E+00  0.00000000E+00  1.60000000E+01  1.00800000E+00
  1.00800000E+00  0.00000000E+00  1.60000000E+01  1.00800000E+00  1.00800000E+00
  0.00000000E+00  1.60000000E+01  1.00800000E+00  1.00800000E+00  0.00000000E+00
  1.60000000E+01  1.00800000E+00  1.00800000E+00  0.00000000E+00  1.60000000E+01
  1.00800000E+00  1.00800000E+00  0.00000000E+00  1.60000000E+01  1.00800000E+00
  1.00800000E+00  0.00000000E+00  1.60000000E+01  1.00800000E+00  1.00800000E+00
  0.00000000E+00  1.60000000E+01  1.00800000E+00  1.00800000E+00  0.00000000E+00
  1.60000000E+01  1.00800000E+00  1.00800000E+00  0.00000000E+00  1.60000000E+01
  1.00800000E+00  1.00800000E+00  0.00000000E+00  1.60000000E+01  1.00800000E+00
  1.00800000E+00  0.00000000E+00  1.60000000E+01  1.00800000E+00  1.00800000E+00
  0.00000000E+00  1.60000000E+01  1.00800000E+00  1.00800000E+00  0.00000000E+00
  1.60000000E+01  1.00800000E+00  1.00800000E+00  0.00000000E+00  1.60000000E+01
  1.00800000E+00  1.00800000E+00  0.00000000E+00  1.60000000E+01  1.00800000E+00
  1.00800000E+00  0.00000000E+00  1.60000000E+01  1.00800000E+00  1.00800000E+00
  0.00000000E+00  1.60000000E+01  1.00800000E+00  1.00800000E+00  0.00000000E+00
  1.60000000E+01  1.00800000E+00  1.00800000E+00  0.00000000E+00  1.60000000E+01
  1.00800000E+00  1.00800000E+00  0.00000000E+00  1.60000000E+01  1.00800000E+00
  1.00800000E+00  0.00000000E+00  1.60000000E+01  1.00800000E+00  1.00800000E+00
  0.00000000E+00  1.60000000E+01  1.00800000E+00  1.00800000E+00  0.00000000E+00
  1.60000000E+01  1.00800000E+00  1.00800000E+00  0.00000000E+00  1.60000000E+01
  1.00800000E+00  1.00800000E+00  0.00000000E+00  1.60000000E+01  1.00800000E+00
  1.00800000E+00  0.00000000E+00  1.60000000E+01  1.00800000E+00  1.00800000E+00
  0.00000000E+00  1.60000000E+01  1.00800000E+00  1.00800000E+00  0.00000000E+00
  1.60000000E+01  1.00800000E+00  1.00800000E+00  0.00000000E+00  1.60000000E+01
  1.00800000E+00  1.00800000E+00  0.00000000E+00  1.60000000E+01  1.00800000E+00
  1.00800000E+00  0.00000000E+00  1.60000000E+01  1.00800000E+00  1.00800000E+00
  0.00000000E+00  1.60000000E+01  1.00800000E+00  1.00800000E+00  0.00000000E+00
  1.60000000E+01  1.00800000E+00  1.00800000E+00  0.00000000E+00  1.60000000E+01
  1.00800000E+00  1.00800000E+00  0.00000000E+00  1.60000000E+01  1.00800000E+00
  1.00800000E+00  0.00000000E+00  1.60000000E+01  1.00800000E+00  1.00800000E+00
  0.00000000E+00  1.60000000E+01  1.00800000E+00  1.00800000E+00  0.00000000E+00
  1.60000000E+01  1.00800000E+00  1.00800000E+00  0.00000000E+00  1.60000000E+01
  1.00800000E+00  1.00800000E+00  0.00000000E+00  1.60000000E+01  1.00800000E+00
  1.00800000E+00  0.00000000E+00  1.60000000E+01  1.00800000E+00  1.00800000E+00
  0.00000000E+00  1.60000000E+01  1.00800000E+00  1.00800000E+00  0.00000000E+00
  1.60000000E+01  1.00800000E+00  1.00800000E+00  0.00000000E+00  1.60000000E+01
  1.00800000E+00  1.00800000E+00  0.00000000E+00  1.60000000E+01  1.00800000E+00
  1.00800000E+00  0.00000000E+00  1.60000000E+01  1.00800000E+00  1.00800000E+00
  0.00000000E+00  1.60000000E+01  1.00800000E+00  1.00800000E+00  0.00000000E+00
  1.60000000E+01  1.00800000E+00  1.00800000E+00  0.00000000E+00  1.60000000E+01
  1.00800000E+00  1.00800000E+00  0.00000000E+00  1.60000000E+01  1.00800000E+00
  1.00800000E+00  0.00000000E+00  1.60000000E+01  1.00800000E+00  1.00800000E+00
  0.00000000E+00  1.60000000E+01  1.00800000E+00  1.00800000E+00  0.00000000E+00
  1.60000000E+01  1.00800000E+00  1.00800000E+00  0.00000000E+00  1.60000000E+01
  1.00800000E+00  1.00800000E+00  0.00000000E+00  1.60000000E+01  1.00800000E+00
  1.00800000E+00  0.00000000E+00  1.60000000E+01  1.00800000E+00  1.00800000E+00
  0.00000000E+00  1.60000000E+01  1.00800000E+00  1.00800000E+00  0.00000000E+00
  1.60000000E+01  1.00800000E+00  1.00800000E+00  0.00000000E+00  1.60000000E+01
  1.00800000E+00  1.00800000E+00  0.00000000E+00  1.60000000E+01  1.00800000E+00
  1.00800000E+00  0.00000000E+00  1.60000000E+01  1.00800000E+00  1.00800000E+00
  0.00000000E+00  1.60000000E+01  1.00800000E+00  1.00800000E+00  0.00000000E+00
  1.60000000E+01  1.00800000E+00  1.00800000E+00  0.00000000E+00  1.60000000E+01
  1.00800000E+00  1.00800000E+00  0.00000000E+00  1.60000000E+01  1.00800000E+00
  1.00800000E+00  0.00000000E+00  1.60000000E+01  1.00800000E+00  1.00800000E+00
  0.00000000E+00  1.60000000E+01  1.00800000E+00  1.00800000E+00  0.00000000E+00
  1.60000000E+01  1.00800000E+00  1.00800000E+00  0.00000000E+00  1.60000000E+01
  1.00800000E+00  1.00800000E+00  0.00000000E+00  1.60000000E+01  1.00800000E+00
  1.00800000E+00  0.00000000E+00  1.60000000E+01  1.00800000E+00  1.00800000E+00
  0.00000000E+00  1.60000000E+01  1.00800000E+00  1.00800000E+00  0.00000000E+00
  1.60000000E+01  1.00800000E+00  1.00800000E+00  0.00000000E+00  1.60000000E+01
  1.00800000E+00  1.00800000E+00  0.00000000E+00  1.60000000E+01  1.00800000E+00
  1.00800000E+00  0.00000000E+00  1.60000000E+01  1.00800000E+00  1.00800000E+00
  0.00000000E+00  1.60000000E+01  1.00800000E+00  1.00800000E+00  0.00000000E+00
  1.60000000E+01  1.00800000E+00  1.00800000E+00  0.00000000E+00  1.60000000E+01
  1.00800000E+00  1.00800000E+00  0.00000000E+00  1.60000000E+01  1.00800000E+00
  1.00800000E+00  0.00000000E+00  1.60000000E+01  1.00800000E+00  1.00800000E+00
  0.00000000E+00  1.60000000E+01  1.00800000E+00  1.00800000E+00  0.00000000E+00
  1.60000000E+01  1.00800000E+00  1.00800000E+00  0.00000000E+00  1.60000000E+01
  1.00800000E+00  1.00800000E+00  0.00000000E+00  1.60000000E+01  1.00800000E+00
  1.00800000E+00  0.00000000E+00  1.60000000E+01  1.00800000E+00  1.00800000E+00
  0.00000000E+00  1.60000000E+01  1.00800000E+00  1.00800000E+00  0.00000000E+00
  1.60000000E+01  1.00800000E+00  1.00800000E+00  0.00000000E+00  1.60000000E+01
  1.00800000E+00  1.00800000E+00  0.00000000E+00  1.60000000E+01  1.00800000E+00
  1.00800000E+00  0.00000000E+00  1.60000000E+01  1.00800000E+00  1.00800000E+00
  0.00000000E+00  1.60000000E+01  1.00800000E+00  1.00800000E+00  0.00000000E+00
  1.60000000E+01  1.00800000E+00  1.00800000E+00  0.00000000E+00  1.60000000E+01
  1.00800000E+00  1.00800000E+00  0.00000000E+00  1.60000000E+01  1.00800000E+00
  1.00800000E+00  0.00000000E+00  1.60000000E+01  1.00800000E+00  1.00800000E+00
  0.00000000E+00  1.60000000E+01  1.00800000E+00  1.00800000E+00  0.00000000E+00
  1.60000000E+01  1.00800000E+00  1.00800000E+00  0.00000000E+00  1.60000000E+01
  1.00800000E+00  1.00800000E+00  0.00000000E+00  1.60000000E+01  1.00800000E+00
  1.00800000E+00  0.00000000E+00  1.60000000E+01  1.00800000E+00  1.00800000E+00
  0.00000000E+00  1.60000000E+01  1.00800000E+00  1.00800000E+00  0.00000000E+00
  1.60000000E+01  1.00800000E+00  1.00800000E+00  0.00000000E+00  1.60000000E+01
  1.00800000E+00  1.00800000E+00  0.00000000E+00  1.60000000E+01  1.00800000E+00
  1.00800000E+00  0.00000000E+00  1.60000000E+01  1.00800000E+00  1.00800000E+00
  0.00000000E+00  1.60000000E+01  1.00800000E+00  1.00800000E+00  0.00000000E+00
  1.60000000E+01  1.00800000E+00  1.00800000E+00  0.00000000E+00  1.60000000E+01
  1.00800000E+00  1.00800000E+00  0.00000000E+00  1.60000000E+01  1.00800000E+00
  1.00800000E+00  0.00000000E+00  1.60000000E+01  1.00800000E+00  1.00800000E+00
  0.00000000E+00  1.60000000E+01  1.00800000E+00  1.00800000E+00  0.00000000E+00
  1.60000000E+01  1.00800000E+00  1.00800000E+00  0.00000000E+00  1.60000000E+01
  1.00800000E+00  1.00800000E+00  0.00000000E+00  1.60000000E+01  1.00800000E+00
  1.00800000E+00  0.00000000E+00  1.60000000E+01  1.00800000E+00  1.00800000E+00
  0.00000000E+00  1.60000000E+01  1.00800000E+00  1.00800000E+00  0.00000000E+00
  1.60000000E+01  1.00800000E+00  1.00800000E+00  0.00000000E+00  1.60000000E+01
  1.00800000E+00  1.00800000E+00  0.00000000E+00  1.60000000E+01  1.00800000E+00
  1.00800000E+00  0.00000000E+00  1.60000000E+01  1.00800000E+00  1.00800000E+00
  0.00000000E+00  1.60000000E+01  1.00800000E+00  1.00800000E+00  0.00000000E+00
  1.60000000E+01  1.00800000E+00  1.00800000E+00  0.00000000E+00  1.60000000E+01
  1.00800000E+00  1.00800000E+00  0.00000000E+00  1.60000000E+01  1.00800000E+00
  1.00800000E+00  0.00000000E+00  1.60000000E+01  1.00800000E+00  1.00800000E+00
  0.00000000E+00  1.60000000E+01  1.00800000E+00  1.00800000E+00  0.00000000E+00
  1.60000000E+01  1.00800000E+00  1.00800000E+00  0.00000000E+00  1.60000000E+01
  1.00800000E+00  1.00800000E+00  0.00000000E+00  1.60000000E+01  1.00800000E+00
  1.00800000E+00  0.00000000E+00  1.60000000E+01  1.00800000E+00  1.00800000E+00
  0.00000000E+00  1.60000000E+01  1.00800000E+00  1.00800000E+00  0.00000000E+00
  1.60000000E+01  1.00800000E+00  1.00800000E+00  0.00000000E+00  1.60000000E+01
  1.00800000E+00  1.00800000E+00  0.00000000E+00  1.60000000E+01  1.00800000E+00
  1.00800000E+00  0.00000000E+00  1.60000000E+01  1.00800000E+00  1.00800000E+00
  0.00000000E+00  1.60000000E+01  1.00800000E+00  1.00800000E+00  0.00000000E+00
  1.60000000E+01  1.00800000E+00  1.00800000E+00  0.00000000E+00  1.60000000E+01
  1.00800000E+00  1.00800000E+00  0.00000000E+00  1.60000000E+01  1.00800000E+00
  1.00800000E+00  0.00000000E+00  1.60000000E+01  1.00800000E+00  1.00800000E+00
  0.00000000E+00  1.60000000E+01  1.00800000E+00  1.00800000E+00  0.00000000E+00
  1.60000000E+01  1.00800000E+00  1.00800000E+00  0.00000000E+00  1.60000000E+01
  1.00800000E+00  1.00800000E+00  0.00000000E+00  1.60000000E+01  1.00800000E+00
  1.00800000E+00  0.00000000E+00  1.60000000E+01  1.00800000E+00  1.00800000E+00
  0.00000000E+00  1.60000000E+01  1.00800000E+00  1.00800000E+00  0.00000000E+00
  1.60000000E+01  1.00800000E+00  1.00800000E+00  0.00000000E+00  1.60000000E+01
  1.00800000E+00  1.00800000E+00  0.00000000E+00  1.60000000E+01  1.00800000E+00
  1.00800000E+00  0.00000000E+00  1.60000000E+01  1.00800000E+00  1.00800000E+00
  0.00000000E+00  1.60000000E+01  1.00800000E+00  1.00800000E+00  0.00000000E+00
  1.60000000E+01  1.00800000E+00  1.00800000E+00  0.00000000E+00  1.60000000E+01
  1.00800000E+00  1.00800000E+00  0.00000000E+00  1.60000000E+01  1.00800000E+00
  1.00800000E+00  0.00000000E+00  1.60000000E+01  1.00800000E+00  1.00800000E+00
  0.00000000E+00  1.60000000E+01  1.00800000E+00  1.00800000E+00  0.00000000E+00
  1.60000000E+01  1.00800000E+00  1.00800000E+00  0.00000000E+00  1.60000000E+01
  1.00800000E+00  1.00800000E+00  0.00000000E+00  1.60000000E+01  1.00800000E+00
  1.00800000E+00  0.00000000E+00  1.60000000E+01  1.00800000E+00  1.00800000E+00
  0.00000000E+00  1.60000000E+01  1.00800000E+00  1.00800000E+00  0.00000000E+00
  1.60000000E+01  1.00800000E+00  1.00800000E+00  0.00000000E+00  1.60000000E+01
  1.00800000E+00  1.00800000E+00  0.00000000E+00  1.60000000E+01  1.00800000E+00
  1.00800000E+00  0.00000000E+00  1.60000000E+01  1.00800000E+00  1.00800000E+00
  0.00000000E+00  1.60000000E+01  1.00800000E+00  1.00800000E+00  0.00000000E+00
  1.60000000E+01  1.00800000E+00  1.00800000E+00  0.00000000E+00  1.60000000E+01
  1.00800000E+00  1.00800000E+00  0.00000000E+00  1.60000000E+01  1.00800000E+00
  1.00800000E+00  0.00000000E+00  1.60000000E+01  1.00800000E+00  1.00800000E+00
  0.00000000E+00  1.60000000E+01  1.00800000E+00  1.00800000E+00  0.00000000E+00
  1.60000000E+01  1.00800000E+00  1.00800000E+00  0.00000000E+00  1.60000000E+01
  1.00800000E+00  1.00800000E+00  0.00000000E+00  1.60000000E+01  1.00800000E+00
  1.00800000E+00  0.00000000E+00  1.60000000E+01  1.00800000E+00  1.00800000E+00
  0.00000000E+00  1.60000000E+01  1.00800000E+00  1.00800000E+00  0.00000000E+00
  1.60000000E+01  1.00800000E+00  1.00800000E+00  0.00000000E+00  1.60000000E+01
  1.00800000E+00  1.00800000E+00  0.00000000E+00  1.60000000E+01  1.00800000E+00
  1.00800000E+00  0.00000000E+00  1.60000000E+01  1.00800000E+00  1.00800000E+00
  0.00000000E+00  1.60000000E+01  1.00800000E+00  1.00800000E+00  0.00000000E+00
  1.60000000E+01  1.00800000E+00  1.00800000E+00  0.00000000E+00  1.60000000E+01
  1.00800000E+00  1.00800000E+00  0.00000000E+00  1.60000000E+01  1.00800000E+00
  1.00800000E+00  0.00000000E+00  1.60000000E+01  1.00800000E+00  1.00800000E+00
  0.00000000E+00  1.60000000E+01  1.00800000E+00  1.00800000E+00  0.00000000E+00
  1.60000000E+01  1.00800000E+00  1.00800000E+00  0.00000000E+00  1.60000000E+01
  1.00800000E+00  1.00800000E+00  0.00000000E+00  1.60000000E+01  1.00800000E+00
  1.00800000E+00  0.00000000E+00  1.60000000E+01  1.00800000E+00  1.00800000E+00
  0.00000000E+00  1.60000000E+01  1.00800000E+00  1.00800000E+00  0.00000000E+00
  1.60000000E+01  1.00800000E+00  1.00800000E+00  0.00000000E+00  1.60000000E+01
  1.00800000E+00  1.00800000E+00  0.00000000E+00  1.60000000E+01  1.00800000E+00
  1.00800000E+00  0.00000000E+00  1.60000000E+01  1.00800000E+00  1.00800000E+00
  0.00000000E+00  1.60000000E+01  1.00800000E+00  1.00800000E+00  0.00000000E+00
  1.60000000E+01  1.00800000E+00  1.00800000E+00  0.00000000E+00  1.60000000E+01
  1.00800000E+00  1.00800000E+00  0.00000000E+00  1.60000000E+01  1.00800000E+00
  1.00800000E+00  0.00000000E+00  1.60000000E+01  1.00800000E+00  1.00800000E+00
  0.00000000E+00  1.60000000E+01  1.00800000E+00  1.00800000E+00  0.00000000E+00
  1.60000000E+01  1.00800000E+00  1.00800000E+00  0.00000000E+00  1.60000000E+01
  1.00800000E+00  1.00800000E+00  0.00000000E+00  1.60000000E+01  1.00800000E+00
  1.00800000E+00  0.00000000E+00  1.60000000E+01  1.00800000E+00  1.00800000E+00
  0.00000000E+00  1.60000000E+01  1.00800000E+00  1.00800000E+00  0.00000000E+00
  1.60000000E+01  1.00800000E+00  1.00800000E+00  0.00000000E+00  1.60000000E+01
  1.00800000E+00  1.00800000E+00  0.00000000E+00  1.60000000E+01  1.00800000E+00
  1.00800000E+00  0.00000000E+00  1.60000000E+01  1.00800000E+00  1.00800000E+00
  0.00000000E+00  1.60000000E+01  1.00800000E+00  1.00800000E+00  0.00000000E+00
  1.60000000E+01  1.00800000E+00  1.00800000E+00  0.00000000E+00  1.60000000E+01
  1.00800000E+00  1.00800000E+00  0.00000000E+00  1.60000000E+01  1.00800000E+00
  1.00800000E+00  0.00000000E+00  1.60000000E+01  1.00800000E+00  1.00800000E+00
  0.00000000E+00  1.60000000E+01  1.00800000E+00  1.00800000E+00  0.00000000E+00
  1.60000000E+01  1.00800000E+00  1.00800000E+00  0.00000000E+00  1.60000000E+01
  1.00800000E+00  1.00800000E+00  0.00000000E+00  1.60000000E+01  1.00800000E+00
  1.00800000E+00  0.00000000E+00  1.60000000E+01  1.00800000E+00  1.00800000E+00
  0.00000000E+00  1.60000000E+01  1.00800000E+00  1.00800000E+00  0.00000000E+00
  1.60000000E+01  1.00800000E+00  1.00800000E+00  0.00000000E+00  1.60000000E+01
  1.00800000E+00  1.00800000E+00  0.00000000E+00  1.60000000E+01  1.00800000E+00
  1.00800000E+00  0.00000000E+00  1.60000000E+01  1.00800000E+00  1.00800000E+00
  0.00000000E+00  1.60000000E+01  1.00800000E+00  1.00800000E+00  0.00000000E+00
  1.60000000E+01  1.00800000E+00  1.00800000E+00  0.00000000E+00  1.60000000E+01
  1.00800000E+00  1.00800000E+00  0.00000000E+00  1.60000000E+01  1.00800000E+00
  1.00800000E+00  0.00000000E+00  1.60000000E+01  1.00800000E+00  1.00800000E+00
  0.00000000E+00  1.60000000E+01  1.00800000E+00  1.00800000E+00  0.00000000E+00
  1.60000000E+01  1.00800000E+00  1.00800000E+00  0.00000000E+00  1.60000000E+01
  1.00800000E+00  1.00800000E+00  0.00000000E+00  1.60000000E+01  1.00800000E+00
  1.00800000E+00  0.00000000E+00  1.60000000E+01  1.00800000E+00  1.00800000E+00
  0.00000000E+00  1.60000000E+01  1.00800000E+00  1.00800000E+00  0.00000000E+00
  1.60000000E+01  1.00800000E+00  1.00800000E+00  0.00000000E+00  1.60000000E+01
  1.00800000E+00  1.00800000E+00  0.00000000E+00  1.60000000E+01  1.00800000E+00
  1.00800000E+00  0.00000000E+00  1.60000000E+01  1.00800000E+00  1.00800000E+00
  0.00000000E+00  1.60000000E+01  1.00800000E+00  1.00800000E+00  0.00000000E+00
  1.60000000E+01  1.00800000E+00  1.00800000E+00  0.00000000E+00  1.60000000E+01
  1.00800000E+00  1.00800000E+00  0.00000000E+00  1.60000000E+01  1.00800000E+00
  1.00800000E+00  0.00000000E+00  1.60000000E+01  1.00800000E+00  1.00800000E+00
  0.00000000E+00  1.60000000E+01  1.00800000E+00  1.00800000E+00  0.00000000E+00
  1.60000000E+01  1.00800000E+00  1.00800000E+00  0.00000000E+00  1.60000000E+01
  1.00800000E+00  1.00800000E+00  0.00000000E+00  1.60000000E+01  1.00800000E+00
  1.00800000E+00  0.00000000E+00  1.60000000E+01  1.00800000E+00  1.00800000E+00
  0.00000000E+00  1.60000000E+01  1.00800000E+00  1.00800000E+00  0.00000000E+00
  1.60000000E+01  1.00800000E+00  1.00800000E+00  0.00000000E+00  1.60000000E+01
  1.00800000E+00  1.00800000E+00  0.00000000E+00  1.60000000E+01  1.00800000E+00
  1.00800000E+00  0.00000000E+00  1.60000000E+01  1.00800000E+00  1.00800000E+00
  0.00000000E+00  1.60000000E+01  1.00800000E+00  1.00800000E+00  0.00000000E+00
  1.60000000E+01  1.00800000E+00  1.00800000E+00  0.00000000E+00  1.60000000E+01
  1.00800000E+00  1.00800000E+00  0.00000000E+00  1.60000000E+01  1.00800000E+00
  1.00800000E+00  0.00000000E+00  1.60000000E+01  1.00800000E+00  1.00800000E+00
  0.00000000E+00  1.60000000E+01  1.00800000E+00  1.00800000E+00  0.00000000E+00
  1.60000000E+01  1.00800000E+00  1.00800000E+00  0.00000000E+00  1.60000000E+01
  1.00800000E+00  1.00800000E+00  0.00000000E+00  1.60000000E+01  1.00800000E+00
  1.00800000E+00  0.00000000E+00  1.60000000E+01  1.00800000E+00  1.00800000E+00
  0.00000000E+00  1.60000000E+01  1.00800000E+00  1.00800000E+00  0.00000000E+00
  1.60000000E+01  1.00800000E+00  1.00800000E+00  0.00000000E+00  1.60000000E+01
  1.00800000E+00  1.00800000E+00  0.00000000E+00  1.60000000E+01  1.00800000E+00
  1.00800000E+00  0.00000000E+00  1.60000000E+01  1.00800000E+00  1.00800000E+00
  0.00000000E+00  1.60000000E+01  1.00800000E+00  1.00800000E+00  0.00000000E+00
  1.60000000E+01  1.00800000E+00  1.00800000E+00  0.00000000E+00  1.60000000E+01
  1.00800000E+00  1.00800000E+00  0.00000000E+00  1.60000000E+01  1.00800000E+00
  1.00800000E+00  0.00000000E+00  1.60000000E+01  1.00800000E+00  1.00800000E+00
  0.00000000E+00  1.60000000E+01  1.00800000E+00  1.00800000E+00  0.00000000E+00
  1.60000000E+01  1.00800000E+00  1.00800000E+00  0.00000000E+00  1.60000000E+01
  1.00800000E+00  1.00800000E+00  0.00000000E+00  1.60000000E+01  1.00800000E+00
  1.00800000E+00  0.00000000E+00  1.60000000E+01  1.00800000E+00  1.00800000E+00
  0.00000000E+00  1.60000000E+01  1.00800000E+00  1.00800000E+00  0.00000000E+00
  1.60000000E+01  1.00800000E+00  1.00800000E+00  0.00000000E+00  1.60000000E+01
  1.00800000E+00  1.00800000E+00  0.00000000E+00  1.60000000E+01  1.00800000E+00
  1.00800000E+00  0.00000000E+00  1.60000000E+01  1.00800000E+00  1.00800000E+00
  0.00000000E+00  1.60000000E+01  1.00800000E+00  1.00800000E+00  0.00000000E+00
  1.60000000E+01  1.00800000E+00  1.00800000E+00  0.00000000E+00  1.60000000E+01
  1.00800000E+00  1.00800000E+00  0.00000000E+00  1.60000000E+01  1.00800000E+00
  1.00800000E+00  0.00000000E+00  1.60000000E+01  1.00800000E+00  1.00800000E+00
  0.00000000E+00  1.60000000E+01  1.00800000E+00  1.00800000E+00  0.00000000E+00
  1.60000000E+01  1.00800000E+00  1.00800000E+00  0.00000000E+00  1.60000000E+01
  1.00800000E+00  1.00800000E+00  0.00000000E+00  1.60000000E+01  1.00800000E+00
  1.00800000E+00  0.00000000E+00  1.60000000E+01  1.00800000E+00  1.00800000E+00
  0.00000000E+00  1.60000000E+01  1.00800000E+00  1.00800000E+00  0.00000000E+00
  1.60000000E+01  1.00800000E+00  1.00800000E+00  0.00000000E+00  1.60000000E+01
  1.00800000E+00  1.00800000E+00  0.00000000E+00  1.60000000E+01  1.00800000E+00
  1.00800000E+00  0.00000000E+00  1.60000000E+01  1.00800000E+00  1.00800000E+00
  0.00000000E+00  1.60000000E+01  1.00800000E+00  1.00800000E+00  0.00000000E+00
  1.60000000E+01  1.00800000E+00  1.00800000E+00  0.00000000E+00  1.60000000E+01
  1.00800000E+00  1.00800000E+00  0.00000000E+00  1.60000000E+01  1.00800000E+00
  1.00800000E+00  0.00000000E+00  1.60000000E+01  1.00800000E+00  1.00800000E+00
  0.00000000E+00  1.60000000E+01  1.00800000E+00  1.00800000E+00  0.00000000E+00
  1.60000000E+01  1.00800000E+00  1.00800000E+00  0.00000000E+00  1.60000000E+01
  1.00800000E+00  1.00800000E+00  0.00000000E+00  1.60000000E+01  1.00800000E+00
  1.00800000E+00  0.00000000E+00  1.60000000E+01  1.00800000E+00  1.00800000E+00
  0.00000000E+00  1.60000000E+01  1.00800000E+00  1.00800000E+00  0.00000000E+00
  1.60000000E+01  1.00800000E+00  1.00800000E+00  0.00000000E+00  1.60000000E+01
  1.00800000E+00  1.00800000E+00  0.00000000E+00  1.60000000E+01  1.00800000E+00
  1.00800000E+00  0.00000000E+00  1.60000000E+01  1.00800000E+00  1.00800000E+00
  0.00000000E+00  1.60000000E+01  1.00800000E+00  1.00800000E+00  0.00000000E+00
  1.60000000E+01  1.00800000E+00  1.00800000E+00  0.00000000E+00  1.60000000E+01
  1.00800000E+00  1.00800000E+00  0.00000000E+00  1.60000000E+01  1.00800000E+00
  1.00800000E+00  0.00000000E+00  1.60000000E+01  1.00800000E+00  1.00800000E+00
  0.00000000E+00  1.60000000E+01  1.00800000E+00  1.00800000E+00  0.00000000E+00
  1.60000000E+01  1.00800000E+00  1.00800000E+00  0.00000000E+00  1.60000000E+01
  1.00800000E+00  1.00800000E+00  0.00000000E+00  1.60000000E+01  1.00800000E+00
  1.00800000E+00  0.00000000E+00  1.60000000E+01  1.00800000E+00  1.00800000E+00
  0.00000000E+00  1.60000000E+01  1.00800000E+00  1.00800000E+00  0.00000000E+00
  1.60000000E+01  1.00800000E+00  1.00800000E+00  0.00000000E+00  1.60000000E+01
  1.00800000E+00  1.00800000E+00  0.00000000E+00  1.60000000E+01  1.00800000E+00
  1.00800000E+00  0.00000000E+00  1.60000000E+01  1.00800000E+00  1.00800000E+00
  0.00000000E+00  1.60000000E+01  1.00800000E+00  1.00800000E+00  0.00000000E+00
  1.60000000E+01  1.00800000E+00  1.00800000E+00  0.00000000E+00  1.60000000E+01
  1.00800000E+00  1.00800000E+00  0.00000000E+00  1.60000000E+01  1.00800000E+00
  1.00800000E+00  0.00000000E+00  1.60000000E+01  1.00800000E+00  1.00800000E+00
  0.00000000E+00  1.60000000E+01  1.00800000E+00  1.00800000E+00  0.00000000E+00
  1.60000000E+01  1.00800000E+00  1.00800000E+00  0.00000000E+00  1.60000000E+01
  1.00800000E+00  1.00800000E+00  0.00000000E+00  1.60000000E+01  1.00800000E+00
  1.00800000E+00  0.00000000E+00  1.60000000E+01  1.00800000E+00  1.00800000E+00
  0.00000000E+00  1.60000000E+01  1.00800000E+00  1.00800000E+00  0.00000000E+00
  1.60000000E+01  1.00800000E+00  1.00800000E+00  0.00000000E+00  1.60000000E+01
  1.00800000E+00  1.00800000E+00  0.00000000E+00  1.60000000E+01  1.00800000E+00
  1.00800000E+00  0.00000000E+00  1.60000000E+01  1.00800000E+00  1.00800000E+00
  0.00000000E+00  1.60000000E+01  1.00800000E+00  1.00800000E+00  0.00000000E+00
  1.60000000E+01  1.00800000E+00  1.00800000E+00  0.00000000E+00  1.60000000E+01
  1.00800000E+00  1.00800000E+00  0.00000000E+00  1.60000000E+01  1.00800000E+00
  1.00800000E+00  0.00000000E+00  1.60000000E+01  1.00800000E+00  1.00800000E+00
  0.00000000E+00  1.60000000E+01  1.00800000E+00  1.00800000E+00  0.00000000E+00
  1.60000000E+01  1.00800000E+00  1.00800000E+00  0.00000000E+00  1.60000000E+01
  1.00800000E+00  1.00800000E+00  0.00000000E+00  1.60000000E+01  1.00800000E+00
  1.00800000E+00  0.00000000E+00  1.60000000E+01  1.00800000E+00  1.00800000E+00
  0.00000000E+00  1.60000000E+01  1.00800000E+00  1.00800000E+00  0.00000000E+00
  1.60000000E+01  1.00800000E+00  1.00800000E+00  0.00000000E+00  1.60000000E+01
  1.00800000E+00  1.00800000E+00  0.00000000E+00  1.60000000E+01  1.00800000E+00
  1.00800000E+00  0.00000000E+00  1.60000000E+01  1.00800000E+00  1.00800000E+00
  0.00000000E+00  1.60000000E+01  1.00800000E+00  1.00800000E+00  0.00000000E+00
  1.60000000E+01  1.00800000E+00  1.00800000E+00  0.00000000E+00  1.60000000E+01
  1.00800000E+00  1.00800000E+00  0.00000000E+00  1.60000000E+01  1.00800000E+00
  1.00800000E+00  0.00000000E+00  1.60000000E+01  1.00800000E+00  1.00800000E+00
  0.00000000E+00  1.60000000E+01  1.00800000E+00  1.00800000E+00  0.00000000E+00
  1.60000000E+01  1.00800000E+00  1.00800000E+00  0.00000000E+00  1.60000000E+01
  1.00800000E+00  1.00800000E+00  0.00000000E+00  1.60000000E+01  1.00800000E+00
  1.00800000E+00  0.00000000E+00  1.60000000E+01  1.00800000E+00  1.00800000E+00
  0.00000000E+00  1.60000000E+01  1.00800000E+00  1.00800000E+00  0.00000000E+00
  1.60000000E+01  1.00800000E+00  1.00800000E+00  0.00000000E+00  1.60000000E+01
  1.00800000E+00  1.00800000E+00  0.00000000E+00  1.60000000E+01  1.00800000E+00
  1.00800000E+00  0.00000000E+00  1.60000000E+01  1.00800000E+00  1.00800000E+00
  0.00000000E+00  1.60000000E+01  1.00800000E+00  1.00800000E+00  0.00000000E+00
  1.60000000E+01  1.00800000E+00  1.00800000E+00  0.00000000E+00  1.60000000E+01
  1.00800000E+00  1.00800000E+00  0.00000000E+00  1.60000000E+01  1.00800000E+00
  1.00800000E+00  0.00000000E+00  1.60000000E+01  1.00800000E+00  1.00800000E+00
  0.00000000E+00  1.60000000E+01  1.00800000E+00  1.00800000E+00  0.00000000E+00
  1.60000000E+01  1.00800000E+00  1.00800000E+00  0.00000000E+00  1.60000000E+01
  1.00800000E+00  1.00800000E+00  0.00000000E+00  1.60000000E+01  1.00800000E+00
  1.00800000E+00  0.00000000E+00  1.60000000E+01  1.00800000E+00  1.00800000E+00
  0.00000000E+00  1.60000000E+01  1.00800000E+00  1.00800000E+00  0.00000000E+00
  1.60000000E+01  1.00800000E+00  1.00800000E+00  0.00000000E+00  1.60000000E+01
  1.00800000E+00  1.00800000E+00  0.00000000E+00  1.60000000E+01  1.00800000E+00
  1.00800000E+00  0.00000000E+00  1.60000000E+01  1.00800000E+00  1.00800000E+00
  0.00000000E+00  1.60000000E+01  1.00800000E+00  1.00800000E+00  0.00000000E+00
  1.60000000E+01  1.00800000E+00  1.00800000E+00  0.00000000E+00  1.60000000E+01
  1.00800000E+00  1.00800000E+00  0.00000000E+00  1.60000000E+01  1.00800000E+00
  1.00800000E+00  0.00000000E+00  1.60000000E+01  1.00800000E+00  1.00800000E+00
  0.00000000E+00  1.60000000E+01  1.00800000E+00  1.00800000E+00  0.00000000E+00
  1.60000000E+01  1.00800000E+00  1.00800000E+00  0.00000000E+00  1.60000000E+01
  1.00800000E+00  1.00800000E+00  0.00000000E+00  1.60000000E+01  1.00800000E+00
  1.00800000E+00  0.00000000E+00  1.60000000E+01  1.00800000E+00  1.00800000E+00
  0.00000000E+00  1.60000000E+01  1.00800000E+00  1.00800000E+00  0.00000000E+00
  1.60000000E+01  1.00800000E+00  1.00800000E+00  0.00000000E+00  1.60000000E+01
  1.00800000E+00  1.00800000E+00  0.00000000E+00  1.60000000E+01  1.00800000E+00
  1.00800000E+00  0.00000000E+00  1.60000000E+01  1.00800000E+00  1.00800000E+00
  0.00000000E+00  1.60000000E+01  1.00800000E+00  1.00800000E+00  0.00000000E+00
  1.60000000E+01  1.00800000E+00  1.00800000E+00  0.00000000E+00  1.60000000E+01
  1.00800000E+00  1.00800000E+00  0.00000000E+00  1.60000000E+01  1.00800000E+00
  1.00800000E+00  0.00000000E+00  1.60000000E+01  1.00800000E+00  1.00800000E+00
  0.00000000E+00  1.60000000E+01  1.00800000E+00  1.00800000E+00  0.00000000E+00
  1.60000000E+01  1.00800000E+00  1.00800000E+00  0.00000000E+00  1.60000000E+01
  1.00800000E+00  1.00800000E+00  0.00000000E+00  1.60000000E+01  1.00800000E+00
  1.00800000E+00  0.00000000E+00  1.60000000E+01  1.00800000E+00  1.00800000E+00
  0.00000000E+00  1.60000000E+01  1.00800000E+00  1.00800000E+00  0.00000000E+00
  1.60000000E+01  1.00800000E+00  1.00800000E+00  0.00000000E+00  1.60000000E+01
  1.00800000E+00  1.00800000E+00  0.00000000E+00  1.60000000E+01  1.00800000E+00
  1.00800000E+00  0.00000000E+00  1.60000000E+01  1.00800000E+00  1.00800000E+00
  0.00000000E+00  1.60000000E+01  1.00800000E+00  1.00800000E+00  0.00000000E+00
  1.60000000E+01  1.00800000E+00  1.00800000E+00  0.00000000E+00  1.60000000E+01
  1.00800000E+00  1.00800000E+00  0.00000000E+00  1.60000000E+01  1.00800000E+00
  1.00800000E+00  0.00000000E+00  1.60000000E+01  1.00800000E+00  1.00800000E+00
  0.00000000E+00  1.60000000E+01  1.00800000E+00  1.00800000E+00  0.00000000E+00
  1.60000000E+01  1.00800000E+00  1.00800000E+00  0.00000000E+00  1.60000000E+01
  1.00800000E+00  1.00800000E+00  0.00000000E+00  1.60000000E+01  1.00800000E+00
  1.00800000E+00  0.00000000E+00  1.60000000E+01  1.00800000E+00  1.00800000E+00
  0.00000000E+00  1.60000000E+01  1.00800000E+00  1.00800000E+00  0.00000000E+00
  1.60000000E+01  1.00800000E+00  1.00800000E+00  0.00000000E+00  1.60000000E+01
  1.00800000E+00  1.00800000E+00  0.00000000E+00  1.60000000E+01  1.00800000E+00
  1.00800000E+00  0.00000000E+00  1.60000000E+01  1.00800000E+00  1.00800000E+00
  0.00000000E+00  1.60000000E+01  1.00800000E+00  1.00800000E+00  0.00000000E+00
  1.60000000E+01  1.00800000E+00  1.00800000E+00  0.00000000E+00  1.60000000E+01
  1.00800000E+00  1.00800000E+00  0.00000000E+00  1.60000000E+01  1.00800000E+00
  1.00800000E+00  0.00000000E+00  1.60000000E+01  1.00800000E+00  1.00800000E+00
  0.00000000E+00  1.60000000E+01  1.00800000E+00  1.00800000E+00  0.00000000E+00
  1.60000000E+01  1.00800000E+00  1.00800000E+00  0.00000000E+00  1.60000000E+01
  1.00800000E+00  1.00800000E+00  0.00000000E+00  1.60000000E+01  1.00800000E+00
  1.00800000E+00  0.00000000E+00  1.60000000E+01  1.00800000E+00  1.00800000E+00
  0.00000000E+00  1.60000000E+01  1.00800000E+00  1.00800000E+00  0.00000000E+00
  1.60000000E+01  1.00800000E+00  1.00800000E+00  0.00000000E+00  1.60000000E+01
  1.00800000E+00  1.00800000E+00  0.00000000E+00  1.60000000E+01  1.00800000E+00
  1.00800000E+00  0.00000000E+00  1.60000000E+01  1.00800000E+00  1.00800000E+00
  0.00000000E+00  1.60000000E+01  1.00800000E+00  1.00800000E+00  0.00000000E+00
  1.60000000E+01  1.00800000E+00  1.00800000E+00  0.00000000E+00  1.60000000E+01
  1.00800000E+00  1.00800000E+00  0.00000000E+00  1.60000000E+01  1.00800000E+00
  1.00800000E+00  0.00000000E+00  1.60000000E+01  1.00800000E+00  1.00800000E+00
  0.00000000E+00  1.60000000E+01  1.00800000E+00  1.00800000E+00  0.00000000E+00
  1.60000000E+01  1.00800000E+00  1.00800000E+00  0.00000000E+00  1.60000000E+01
  1.00800000E+00  1.00800000E+00  0.00000000E+00  1.60000000E+01  1.00800000E+00
  1.00800000E+00  0.00000000E+00  1.60000000E+01  1.00800000E+00  1.00800000E+00
  0.00000000E+00  1.60000000E+01  1.00800000E+00  1.00800000E+00  0.00000000E+00
  1.60000000E+01  1.00800000E+00  1.00800000E+00  0.00000000E+00  1.60000000E+01
  1.00800000E+00  1.00800000E+00  0.00000000E+00  1.60000000E+01  1.00800000E+00
  1.00800000E+00  0.00000000E+00  1.60000000E+01  1.00800000E+00  1.00800000E+00
  0.00000000E+00  1.60000000E+01  1.00800000E+00  1.00800000E+00  0.00000000E+00
  1.60000000E+01  1.00800000E+00  1.00800000E+00  0.00000000E+00  1.60000000E+01
  1.00800000E+00  1.00800000E+00  0.00000000E+00  1.60000000E+01  1.00800000E+00
  1.00800000E+00  0.00000000E+00  1.60000000E+01  1.00800000E+00  1.00800000E+00
  0.00000000E+00  1.60000000E+01  1.00800000E+00  1.00800000E+00  0.00000000E+00
  1.60000000E+01  1.00800000E+00  1.00800000E+00  0.00000000E+00  1.60000000E+01
  1.00800000E+00  1.00800000E+00  0.00000000E+00  1.60000000E+01  1.00800000E+00
  1.00800000E+00  0.00000000E+00  1.60000000E+01  1.00800000E+00  1.00800000E+00
  0.00000000E+00  1.60000000E+01  1.00800000E+00  1.00800000E+00  0.00000000E+00
  1.60000000E+01  1.00800000E+00  1.00800000E+00  0.00000000E+00  1.60000000E+01
  1.00800000E+00  1.00800000E+00  0.00000000E+00  1.60000000E+01  1.00800000E+00
  1.00800000E+00  0.00000000E+00  1.60000000E+01  1.00800000E+00  1.00800000E+00
  0.00000000E+00  1.60000000E+01  1.00800000E+00  1.00800000E+00  0.00000000E+00
  1.60000000E+01  1.00800000E+00  1.00800000E+00  0.00000000E+00  1.60000000E+01
  1.00800000E+00  1.00800000E+00  0.00000000E+00  1.60000000E+01  1.00800000E+00
  1.00800000E+00  0.00000000E+00  1.60000000E+01  1.00800000E+00  1.00800000E+00
  0.00000000E+00  1.60000000E+01  1.00800000E+00  1.00800000E+00  0.00000000E+00
  1.60000000E+01  1.00800000E+00  1.00800000E+00  0.00000000E+00  1.60000000E+01
  1.00800000E+00  1.00800000E+00  0.00000000E+00  1.60000000E+01  1.00800000E+00
  1.00800000E+00  0.00000000E+00  1.60000000E+01  1.00800000E+00  1.00800000E+00
  0.00000000E+00  1.60000000E+01  1.00800000E+00  1.00800000E+00  0.00000000E+00
  1.60000000E+01  1.00800000E+00  1.00800000E+00  0.00000000E+00  1.60000000E+01
  1.00800000E+00  1.00800000E+00  0.00000000E+00  1.60000000E+01  1.00800000E+00
  1.00800000E+00  0.00000000E+00  1.60000000E+01  1.00800000E+00  1.00800000E+00
  0.00000000E+00  1.60000000E+01  1.00800000E+00  1.00800000E+00  0.00000000E+00
  1.60000000E+01  1.00800000E+00  1.00800000E+00  0.00000000E+00  1.60000000E+01
  1.00800000E+00  1.00800000E+00  0.00000000E+00  1.60000000E+01  1.00800000E+00
  1.00800000E+00  0.00000000E+00  1.60000000E+01  1.00800000E+00  1.00800000E+00
  0.00000000E+00  1.60000000E+01  1.00800000E+00  1.00800000E+00  0.00000000E+00
  1.60000000E+01  1.00800000E+00  1.00800000E+00  0.00000000E+00  1.60000000E+01
  1.00800000E+00  1.00800000E+00  0.00000000E+00  1.60000000E+01  1.00800000E+00
  1.00800000E+00  0.00000000E+00  1.60000000E+01  1.00800000E+00  1.00800000E+00
  0.00000000E+00  1.60000000E+01  1.00800000E+00  1.00800000E+00  0.00000000E+00
  1.60000000E+01  1.00800000E+00  1.00800000E+00  0.00000000E+00  1.60000000E+01
  1.00800000E+00  1.00800000E+00  0.00000000E+00  1.60000000E+01  1.00800000E+00
  1.00800000E+00  0.00000000E+00  1.60000000E+01  1.00800000E+00  1.00800000E+00
  0.00000000E+00  1.60000000E+01  1.00800000E+00  1.00800000E+00  0.00000000E+00
  1.60000000E+01  1.00800000E+00  1.00800000E+00  0.00000000E+00  1.60000000E+01
  1.00800000E+00  1.00800000E+00  0.00000000E+00  1.60000000E+01  1.00800000E+00
  1.00800000E+00  0.00000000E+00  1.60000000E+01  1.00800000E+00  1.00800000E+00
  0.00000000E+00  1.60000000E+01  1.00800000E+00  1.00800000E+00  0.00000000E+00
  1.60000000E+01  1.00800000E+00  1.00800000E+00  0.00000000E+00  1.60000000E+01
  1.00800000E+00  1.00800000E+00  0.00000000E+00  1.60000000E+01  1.00800000E+00
  1.00800000E+00  0.00000000E+00  1.60000000E+01  1.00800000E+00  1.00800000E+00
  0.00000000E+00  1.60000000E+01  1.00800000E+00  1.00800000E+00  0.00000000E+00
  1.60000000E+01  1.00800000E+00  1.00800000E+00  0.00000000E+00  1.60000000E+01
  1.00800000E+00  1.00800000E+00  0.00000000E+00  1.60000000E+01  1.00800000E+00
  1.00800000E+00  0.00000000E+00  1.60000000E+01  1.00800000E+00  1.00800000E+00
  0.00000000E+00  1.60000000E+01  1.00800000E+00  1.00800000E+00  0.00000000E+00
  1.60000000E+01  1.00800000E+00  1.00800000E+00  0.00000000E+00  1.60000000E+01
  1.00800000E+00  1.00800000E+00  0.00000000E+00  1.60000000E+01  1.00800000E+00
  1.00800000E+00  0.00000000E+00  1.60000000E+01  1.00800000E+00  1.00800000E+00
  0.00000000E+00  1.60000000E+01  1.00800000E+00  1.00800000E+00  0.00000000E+00
  1.60000000E+01  1.00800000E+00  1.00800000E+00  0.00000000E+00  1.60000000E+01
  1.00800000E+00  1.00800000E+00  0.00000000E+00  1.60000000E+01  1.00800000E+00
  1.00800000E+00  0.00000000E+00  1.60000000E+01  1.00800000E+00  1.00800000E+00
  0.00000000E+00  1.60000000E+01  1.00800000E+00  1.00800000E+00  0.00000000E+00
  1.60000000E+01  1.00800000E+00  1.00800000E+00  0.00000000E+00  1.60000000E+01
  1.00800000E+00  1.00800000E+00  0.00000000E+00  1.60000000E+01  1.00800000E+00
  1.00800000E+00  0.00000000E+00  1.60000000E+01  1.00800000E+00  1.00800000E+00
  0.00000000E+00  1.60000000E+01  1.00800000E+00  1.00800000E+00  0.00000000E+00
  1.60000000E+01  1.00800000E+00  1.00800000E+00  0.00000000E+00  1.60000000E+01
  1.00800000E+00  1.00800000E+00  0.00000000E+00  1.60000000E+01  1.00800000E+00
  1.00800000E+00  0.00000000E+00  1.60000000E+01  1.00800000E+00  1.00800000E+00
  0.00000000E+00  1.60000000E+01  1.00800000E+00  1.00800000E+00  0.00000000E+00
  1.60000000E+01  1.00800000E+00  1.00800000E+00  0.00000000E+00  1.60000000E+01
  1.00800000E+00  1.00800000E+00  0.00000000E+00  1.60000000E+01  1.00800000E+00
  1.00800000E+00  0.00000000E+00  1.60000000E+01  1.00800000E+00  1.00800000E+00
  0.00000000E+00  1.60000000E+01  1.00800000E+00  1.00800000E+00  0.00000000E+00
  1.60000000E+01  1.00800000E+00  1.00800000E+00  0.00000000E+00  1.60000000E+01
  1.00800000E+00  1.00800000E+00  0.00000000E+00  1.60000000E+01  1.00800000E+00
  1.00800000E+00  0.00000000E+00  1.60000000E+01  1.00800000E+00  1.00800000E+00
  0.00000000E+00  1.60000000E+01  1.00800000E+00  1.00800000E+00  0.00000000E+00
  1.60000000E+01  1.00800000E+00  1.00800000E+00  0.00000000E+00  1.60000000E+01
  1.00800000E+00  1.00800000E+00  0.00000000E+00  1.60000000E+01  1.00800000E+00
  1.00800000E+00  0.00000000E+00  1.60000000E+01  1.00800000E+00  1.00800000E+00
  0.00000000E+00  1.60000000E+01  1.00800000E+00  1.00800000E+00  0.00000000E+00
  1.60000000E+01  1.00800000E+00  1.00800000E+00  0.00000000E+00  1.60000000E+01
  1.00800000E+00  1.00800000E+00  0.00000000E+00  1.60000000E+01  1.00800000E+00
  1.00800000E+00  0.00000000E+00  1.60000000E+01  1.00800000E+00  1.00800000E+00
  0.00000000E+00  1.60000000E+01  1.00800000E+00  1.00800000E+00  0.00000000E+00
  1.60000000E+01  1.00800000E+00  1.00800000E+00  0.00000000E+00  1.60000000E+01
  1.00800000E+00  1.00800000E+00  0.00000000E+00  1.60000000E+01  1.00800000E+00
  1.00800000E+00  0.00000000E+00  1.60000000E+01  1.00800000E+00  1.00800000E+00
  0.00000000E+00  1.60000000E+01  1.00800000E+00  1.00800000E+00  0.00000000E+00
  1.60000000E+01  1.00800000E+00  1.00800000E+00  0.00000000E+00  1.60000000E+01
  1.00800000E+00  1.00800000E+00  0.00000000E+00  1.60000000E+01  1.00800000E+00
  1.00800000E+00  0.00000000E+00  1.60000000E+01  1.00800000E+00  1.00800000E+00
  0.00000000E+00  1.60000000E+01  1.00800000E+00  1.00800000E+00  0.00000000E+00
  1.60000000E+01  1.00800000E+00  1.00800000E+00  0.00000000E+00  1.60000000E+01
  1.00800000E+00  1.00800000E+00  0.00000000E+00  1.60000000E+01  1.00800000E+00
  1.00800000E+00  0.00000000E+00  1.60000000E+01  1.00800000E+00  1.00800000E+00
  0.00000000E+00  1.60000000E+01  1.00800000E+00  1.00800000E+00  0.00000000E+00
  1.60000000E+01  1.00800000E+00  1.00800000E+00  0.00000000E+00  1.60000000E+01
  1.00800000E+00  1.00800000E+00  0.00000000E+00  1.60000000E+01  1.00800000E+00
  1.00800000E+00  0.00000000E+00  1.60000000E+01  1.00800000E+00  1.00800000E+00
  0.00000000E+00  1.60000000E+01  1.00800000E+00  1.00800000E+00  0.00000000E+00
  1.60000000E+01  1.00800000E+00  1.00800000E+00  0.00000000E+00  1.60000000E+01
  1.00800000E+00  1.00800000E+00  0.00000000E+00  1.60000000E+01  1.00800000E+00
  1.00800000E+00  0.00000000E+00  1.60000000E+01  1.00800000E+00  1.00800000E+00
  0.00000000E+00  1.60000000E+01  1.00800000E+00  1.00800000E+00  0.00000000E+00
  1.60000000E+01  1.00800000E+00  1.00800000E+00  0.00000000E+00  1.60000000E+01
  1.00800000E+00  1.00800000E+00  0.00000000E+00  1.60000000E+01  1.00800000E+00
  1.00800000E+00  0.00000000E+00  1.60000000E+01  1.00800000E+00  1.00800000E+00
  0.00000000E+00  1.60000000E+01  1.00800000E+00  1.00800000E+00  0.00000000E+00
  1.60000000E+01  1.00800000E+00  1.00800000E+00  0.00000000E+00  1.60000000E+01
  1.00800000E+00  1.00800000E+00  0.00000000E+00  1.60000000E+01  1.00800000E+00
  1.00800000E+00  0.00000000E+00  1.60000000E+01  1.00800000E+00  1.00800000E+00
  0.00000000E+00  1.60000000E+01  1.00800000E+00  1.00800000E+00  0.00000000E+00
  1.60000000E+01  1.00800000E+00  1.00800000E+00  0.00000000E+00  1.60000000E+01
  1.00800000E+00  1.00800000E+00  0.00000000E+00  1.60000000E+01  1.00800000E+00
  1.00800000E+00  0.00000000E+00  1.60000000E+01  1.00800000E+00  1.00800000E+00
  0.00000000E+00  1.60000000E+01  1.00800000E+00  1.00800000E+00  0.00000000E+00
  1.60000000E+01  1.00800000E+00  1.00800000E+00  0.00000000E+00  1.60000000E+01
  1.00800000E+00  1.00800000E+00  0.00000000E+00  1.60000000E+01  1.00800000E+00
  1.00800000E+00  0.00000000E+00  1.60000000E+01  1.00800000E+00  1.00800000E+00
  0.00000000E+00  1.60000000E+01  1.00800000E+00  1.00800000E+00  0.00000000E+00
  1.60000000E+01  1.00800000E+00  1.00800000E+00  0.00000000E+00  1.60000000E+01
  1.00800000E+00  1.00800000E+00  0.00000000E+00  1.60000000E+01  1.00800000E+00
  1.00800000E+00  0.00000000E+00  1.60000000E+01  1.00800000E+00  1.00800000E+00
  0.00000000E+00  1.60000000E+01  1.00800000E+00  1.00800000E+00  0.00000000E+00
  1.60000000E+01  1.00800000E+00  1.00800000E+00  0.00000000E+00  1.60000000E+01
  1.00800000E+00  1.00800000E+00  0.00000000E+00  1.60000000E+01  1.00800000E+00
  1.00800000E+00  0.00000000E+00  1.60000000E+01  1.00800000E+00  1.00800000E+00
  0.00000000E+00  1.60000000E+01  1.00800000E+00  1.00800000E+00  0.00000000E+00
  1.60000000E+01  1.00800000E+00  1.00800000E+00  0.00000000E+00  1.60000000E+01
  1.00800000E+00  1.00800000E+00  0.00000000E+00  1.60000000E+01  1.00800000E+00
  1.00800000E+00  0.00000000E+00  1.60000000E+01  1.00800000E+00  1.00800000E+00
  0.00000000E+00  1.60000000E+01  1.00800000E+00  1.00800000E+00  0.00000000E+00
  1.60000000E+01  1.00800000E+00  1.00800000E+00  0.00000000E+00  1.60000000E+01
  1.00800000E+00  1.00800000E+00  0.00000000E+00  1.60000000E+01  1.00800000E+00
  1.00800000E+00  0.00000000E+00  1.60000000E+01  1.00800000E+00  1.00800000E+00
  0.00000000E+00  1.60000000E+01  1.00800000E+00  1.00800000E+00  0.00000000E+00
  1.60000000E+01  1.00800000E+00  1.00800000E+00  0.00000000E+00  1.60000000E+01
  1.00800000E+00  1.00800000E+00  0.00000000E+00  1.60000000E+01  1.00800000E+00
  1.00800000E+00  0.00000000E+00  1.60000000E+01  1.00800000E+00  1.00800000E+00
  0.00000000E+00  1.60000000E+01  1.00800000E+00  1.00800000E+00  0.00000000E+00
  1.60000000E+01  1.00800000E+00  1.00800000E+00  0.00000000E+00  1.60000000E+01
  1.00800000E+00  1.00800000E+00  0.00000000E+00  1.60000000E+01  1.00800000E+00
  1.00800000E+00  0.00000000E+00  1.60000000E+01  1.00800000E+00  1.00800000E+00
  0.00000000E+00  1.60000000E+01  1.00800000E+00  1.00800000E+00  0.00000000E+00
  1.60000000E+01  1.00800000E+00  1.00800000E+00  0.00000000E+00  1.60000000E+01
  1.00800000E+00  1.00800000E+00  0.00000000E+00  1.60000000E+01  1.00800000E+00
  1.00800000E+00  0.00000000E+00  1.60000000E+01  1.00800000E+00  1.00800000E+00
  0.00000000E+00  1.60000000E+01  1.00800000E+00  1.00800000E+00  0.00000000E+00
  1.60000000E+01  1.00800000E+00  1.00800000E+00  0.00000000E+00  1.60000000E+01
  1.00800000E+00  1.00800000E+00  0.00000000E+00  1.60000000E+01  1.00800000E+00
  1.00800000E+00  0.00000000E+00  1.60000000E+01  1.00800000E+00  1.00800000E+00
  0.00000000E+00  1.60000000E+01  1.00800000E+00  1.00800000E+00  0.00000000E+00
  1.60000000E+01  1.00800000E+00  1.00800000E+00  0.00000000E+00  1.60000000E+01
  1.00800000E+00  1.00800000E+00  0.00000000E+00  1.60000000E+01  1.00800000E+00
  1.00800000E+00  0.00000000E+00  1.60000000E+01  1.00800000E+00  1.00800000E+00
  0.00000000E+00  1.60000000E+01  1.00800000E+00  1.00800000E+00  0.00000000E+00
  1.60000000E+01  1.00800000E+00  1.00800000E+00  0.00000000E+00  1.60000000E+01
  1.00800000E+00  1.00800000E+00  0.00000000E+00  1.60000000E+01  1.00800000E+00
  1.00800000E+00  0.00000000E+00  1.60000000E+01  1.00800000E+00  1.00800000E+00
  0.00000000E+00  1.60000000E+01  1.00800000E+00  1.00800000E+00  0.00000000E+00
  1.60000000E+01  1.00800000E+00  1.00800000E+00  0.00000000E+00  1.60000000E+01
  1.00800000E+00  1.00800000E+00  0.00000000E+00  1.60000000E+01  1.00800000E+00
  1.00800000E+00  0.00000000E+00  1.60000000E+01  1.00800000E+00  1.00800000E+00
  0.00000000E+00  1.60000000E+01  1.00800000E+00  1.00800000E+00  0.00000000E+00
  1.60000000E+01  1.00800000E+00  1.00800000E+00  0.00000000E+00  1.60000000E+01
  1.00800000E+00  1.00800000E+00  0.00000000E+00  1.60000000E+01  1.00800000E+00
  1.00800000E+00  0.00000000E+00  1.60000000E+01  1.00800000E+00  1.00800000E+00
  0.00000000E+00  1.60000000E+01  1.00800000E+00  1.00800000E+00  0.00000000E+00
  1.60000000E+01  1.00800000E+00  1.00800000E+00  0.00000000E+00  1.60000000E+01
  1.00800000E+00  1.00800000E+00  0.00000000E+00  1.60000000E+01  1.00800000E+00
  1.00800000E+00  0.00000000E+00  1.60000000E+01  1.00800000E+00  1.00800000E+00
  0.00000000E+00  1.60000000E+01  1.00800000E+00  1.00800000E+00  0.00000000E+00
  1.60000000E+01  1.00800000E+00  1.00800000E+00  0.00000000E+00  1.60000000E+01
  1.00800000E+00  1.00800000E+00  0.00000000E+00  1.60000000E+01  1.00800000E+00
  1.00800000E+00  0.00000000E+00  1.60000000E+01  1.00800000E+00  1.00800000E+00
  0.00000000E+00  1.60000000E+01  1.00800000E+00  1.00800000E+00  0.00000000E+00
  1.60000000E+01  1.00800000E+00  1.00800000E+00  0.00000000E+00  1.60000000E+01
  1.00800000E+00  1.00800000E+00  0.00000000E+00  1.60000000E+01  1.00800000E+00
  1.00800000E+00  0.00000000E+00  1.60000000E+01  1.00800000E+00  1.00800000E+00
  0.00000000E+00  1.60000000E+01  1.00800000E+00  1.00800000E+00  0.00000000E+00
  1.60000000E+01  1.00800000E+00  1.00800000E+00  0.00000000E+00  1.60000000E+01
  1.00800000E+00  1.00800000E+00  0.00000000E+00  1.60000000E+01  1.00800000E+00
  1.00800000E+00  0.00000000E+00  1.60000000E+01  1.00800000E+00  1.00800000E+00
  0.00000000E+00  1.60000000E+01  1.00800000E+00  1.00800000E+00  0.00000000E+00
  1.60000000E+01  1.00800000E+00  1.00800000E+00  0.00000000E+00  1.60000000E+01
  1.00800000E+00  1.00800000E+00  0.00000000E+00  1.60000000E+01  1.00800000E+00
  1.00800000E+00  0.00000000E+00  1.60000000E+01  1.00800000E+00  1.00800000E+00
  0.00000000E+00  1.60000000E+01  1.00800000E+00  1.00800000E+00  0.00000000E+00
  1.60000000E+01  1.00800000E+00  1.00800000E+00  0.00000000E+00  1.60000000E+01
  1.00800000E+00  1.00800000E+00  0.00000000E+00  1.60000000E+01  1.00800000E+00
  1.00800000E+00  0.00000000E+00  1.60000000E+01  1.00800000E+00  1.00800000E+00
  0.00000000E+00  1.60000000E+01  1.00800000E+00  1.00800000E+00  0.00000000E+00
  1.60000000E+01  1.00800000E+00  1.00800000E+00  0.00000000E+00  1.60000000E+01
  1.00800000E+00  1.00800000E+00  0.00000000E+00  1.60000000E+01  1.00800000E+00
  1.00800000E+00  0.00000000E+00  1.60000000E+01  1.00800000E+00  1.00800000E+00
  0.00000000E+00  1.60000000E+01  1.00800000E+00  1.00800000E+00  0.00000000E+00
  1.60000000E+01  1.00800000E+00  1.00800000E+00  0.00000000E+00  1.60000000E+01
  1.00800000E+00  1.00800000E+00  0.00000000E+00  1.60000000E+01  1.00800000E+00
  1.00800000E+00  0.00000000E+00  1.60000000E+01  1.00800000E+00  1.00800000E+00
  0.00000000E+00  1.60000000E+01  1.00800000E+00  1.00800000E+00  0.00000000E+00
  1.60000000E+01  1.00800000E+00  1.00800000E+00  0.00000000E+00  1.60000000E+01
  1.00800000E+00  1.00800000E+00  0.00000000E+00  1.60000000E+01  1.00800000E+00
  1.00800000E+00  0.00000000E+00  1.60000000E+01  1.00800000E+00  1.00800000E+00
  0.00000000E+00  1.60000000E+01  1.00800000E+00  1.00800000E+00  0.00000000E+00
  1.60000000E+01  1.00800000E+00  1.00800000E+00  0.00000000E+00  1.60000000E+01
  1.00800000E+00  1.00800000E+00  0.00000000E+00  1.60000000E+01  1.00800000E+00
  1.00800000E+00  0.00000000E+00  1.60000000E+01  1.00800000E+00  1.00800000E+00
  0.00000000E+00  1.60000000E+01  1.00800000E+00  1.00800000E+00  0.00000000E+00
  1.60000000E+01  1.00800000E+00  1.00800000E+00  0.00000000E+00  1.60000000E+01
  1.00800000E+00  1.00800000E+00  0.00000000E+00  1.60000000E+01  1.00800000E+00
  1.00800000E+00  0.00000000E+00  1.60000000E+01  1.00800000E+00  1.00800000E+00
  0.00000000E+00  1.60000000E+01  1.00800000E+00  1.00800000E+00  0.00000000E+00
  1.60000000E+01  1.00800000E+00  1.00800000E+00  0.00000000E+00  1.60000000E+01
  1.00800000E+00  1.00800000E+00  0.00000000E+00  1.60000000E+01  1.00800000E+00
  1.00800000E+00  0.00000000E+00  1.60000000E+01  1.00800000E+00  1.00800000E+00
  0.00000000E+00  1.60000000E+01  1.00800000E+00  1.00800000E+00  0.00000000E+00
  1.60000000E+01  1.00800000E+00  1.00800000E+00  0.00000000E+00  1.60000000E+01
  1.00800000E+00  1.00800000E+00  0.00000000E+00  1.60000000E+01  1.00800000E+00
  1.00800000E+00  0.00000000E+00  1.60000000E+01  1.00800000E+00  1.00800000E+00
  0.00000000E+00  1.60000000E+01  1.00800000E+00  1.00800000E+00  0.00000000E+00
  1.60000000E+01  1.00800000E+00  1.00800000E+00  0.00000000E+00  1.60000000E+01
  1.00800000E+00  1.00800000E+00  0.00000000E+00  1.60000000E+01  1.00800000E+00
  1.00800000E+00  0.00000000E+00  1.60000000E+01  1.00800000E+00  1.00800000E+00
  0.00000000E+00  1.60000000E+01  1.00800000E+00  1.00800000E+00  0.00000000E+00
  1.60000000E+01  1.00800000E+00  1.00800000E+00  0.00000000E+00  1.60000000E+01
  1.00800000E+00  1.00800000E+00  0.00000000E+00  1.60000000E+01  1.00800000E+00
  1.00800000E+00  0.00000000E+00  1.60000000E+01  1.00800000E+00  1.00800000E+00
  0.00000000E+00  1.60000000E+01  1.00800000E+00  1.00800000E+00  0.00000000E+00
  1.60000000E+01  1.00800000E+00  1.00800000E+00  0.00000000E+00  1.60000000E+01
  1.00800000E+00  1.00800000E+00  0.00000000E+00  1.60000000E+01  1.00800000E+00
  1.00800000E+00  0.00000000E+00  1.60000000E+01  1.00800000E+00  1.00800000E+00
  0.00000000E+00  1.60000000E+01  1.00800000E+00  1.00800000E+00  0.00000000E+00
  1.60000000E+01  1.00800000E+00  1.00800000E+00  0.00000000E+00  1.60000000E+01
  1.00800000E+00  1.00800000E+00  0.00000000E+00  1.60000000E+01  1.00800000E+00
  1.00800000E+00  0.00000000E+00  1.60000000E+01  1.00800000E+00  1.00800000E+00
  0.00000000E+00  1.60000000E+01  1.00800000E+00  1.00800000E+00  0.00000000E+00
  1.60000000E+01  1.00800000E+00  1.00800000E+00  0.00000000E+00  1.60000000E+01
  1.00800000E+00  1.00800000E+00  0.00000000E+00  1.60000000E+01  1.00800000E+00
  1.00800000E+00  0.00000000E+00  1.60000000E+01  1.00800000E+00  1.00800000E+00
  0.00000000E+00  1.60000000E+01  1.00800000E+00  1.00800000E+00  0.00000000E+00
  1.60000000E+01  1.00800000E+00  1.00800000E+00  0.00000000E+00  1.60000000E+01
  1.00800000E+00  1.00800000E+00  0.00000000E+00  1.60000000E+01  1.00800000E+00
  1.00800000E+00  0.00000000E+00  1.60000000E+01  1.00800000E+00  1.00800000E+00
  0.00000000E+00  1.60000000E+01  1.00800000E+00  1.00800000E+00  0.00000000E+00
  1.60000000E+01  1.00800000E+00  1.00800000E+00  0.00000000E+00  1.60000000E+01
  1.00800000E+00  1.00800000E+00  0.00000000E+00  1.60000000E+01  1.00800000E+00
  1.00800000E+00  0.00000000E+00  1.60000000E+01  1.00800000E+00  1.00800000E+00
  0.00000000E+00  1.60000000E+01  1.00800000E+00  1.00800000E+00  0.00000000E+00
  1.60000000E+01  1.00800000E+00  1.00800000E+00  0.00000000E+00  1.60000000E+01
  1.00800000E+00  1.00800000E+00  0.00000000E+00  1.60000000E+01  1.00800000E+00
  1.00800000E+00  0.00000000E+00  1.60000000E+01  1.00800000E+00  1.00800000E+00
  0.00000000E+00  1.60000000E+01  1.00800000E+00  1.00800000E+00  0.00000000E+00
  1.60000000E+01  1.00800000E+00  1.00800000E+00  0.00000000E+00  1.60000000E+01
  1.00800000E+00  1.00800000E+00  0.00000000E+00  1.60000000E+01  1.00800000E+00
  1.00800000E+00  0.00000000E+00  1.60000000E+01  1.00800000E+00  1.00800000E+00
  0.00000000E+00  1.60000000E+01  1.00800000E+00  1.00800000E+00  0.00000000E+00
  1.60000000E+01  1.00800000E+00  1.00800000E+00  0.00000000E+00  1.60000000E+01
  1.00800000E+00  1.00800000E+00  0.00000000E+00  1.60000000E+01  1.00800000E+00
  1.00800000E+00  0.00000000E+00  1.60000000E+01  1.00800000E+00  1.00800000E+00
  0.00000000E+00  1.60000000E+01  1.00800000E+00  1.00800000E+00  0.00000000E+00
  1.60000000E+01  1.00800000E+00  1.00800000E+00  0.00000000E+00  1.60000000E+01
  1.00800000E+00  1.00800000E+00  0.00000000E+00  1.60000000E+01  1.00800000E+00
  1.00800000E+00  0.00000000E+00  1.60000000E+01  1.00800000E+00  1.00800000E+00
  0.00000000E+00  1.60000000E+01  1.00800000E+00  1.00800000E+00  0.00000000E+00
  1.60000000E+01  1.00800000E+00  1.00800000E+00  0.00000000E+00  1.60000000E+01
  1.00800000E+00  1.00800000E+00  0.00000000E+00  1.60000000E+01  1.00800000E+00
  1.00800000E+00  0.00000000E+00  1.60000000E+01  1.00800000E+00  1.00800000E+00
  0.00000000E+00  1.60000000E+01  1.00800000E+00  1.00800000E+00  0.00000000E+00
  1.60000000E+01  1.00800000E+00  1.00800000E+00  0.00000000E+00  1.60000000E+01
  1.00800000E+00  1.00800000E+00  0.00000000E+00  1.60000000E+01  1.00800000E+00
  1.00800000E+00  0.00000000E+00  1.60000000E+01  1.00800000E+00  1.00800000E+00
  0.00000000E+00  1.60000000E+01  1.00800000E+00  1.00800000E+00  0.00000000E+00
  1.60000000E+01  1.00800000E+00  1.00800000E+00  0.00000000E+00  1.60000000E+01
  1.00800000E+00  1.00800000E+00  0.00000000E+00  1.60000000E+01  1.00800000E+00
  1.00800000E+00  0.00000000E+00  1.60000000E+01  1.00800000E+00  1.00800000E+00
  0.00000000E+00  1.60000000E+01  1.00800000E+00  1.00800000E+00  0.00000000E+00
  1.60000000E+01  1.00800000E+00  1.00800000E+00  0.00000000E+00  1.60000000E+01
  1.00800000E+00  1.00800000E+00  0.00000000E+00  1.60000000E+01  1.00800000E+00
  1.00800000E+00  0.00000000E+00  1.60000000E+01  1.00800000E+00  1.00800000E+00
  0.00000000E+00  1.60000000E+01  1.00800000E+00  1.00800000E+00  0.00000000E+00
  1.60000000E+01  1.00800000E+00  1.00800000E+00  0.00000000E+00  1.60000000E+01
  1.00800000E+00  1.00800000E+00  0.00000000E+00  1.60000000E+01  1.00800000E+00
  1.00800000E+00  0.00000000E+00  1.60000000E+01  1.00800000E+00  1.00800000E+00
  0.00000000E+00  1.60000000E+01  1.00800000E+00  1.00800000E+00  0.00000000E+00
  1.60000000E+01  1.00800000E+00  1.00800000E+00  0.00000000E+00  1.60000000E+01
  1.00800000E+00  1.00800000E+00  0.00000000E+00  1.60000000E+01  1.00800000E+00
  1.00800000E+00  0.00000000E+00  1.60000000E+01  1.00800000E+00  1.00800000E+00
  0.00000000E+00  1.60000000E+01  1.00800000E+00  1.00800000E+00  0.00000000E+00
  1.60000000E+01  1.00800000E+00  1.00800000E+00  0.00000000E+00  1.60000000E+01
  1.00800000E+00  1.00800000E+00  0.00000000E+00  1.60000000E+01  1.00800000E+00
  1.00800000E+00  0.00000000E+00  1.60000000E+01  1.00800000E+00  1.00800000E+00
  0.00000000E+00  1.60000000E+01  1.00800000E+00  1.00800000E+00  0.00000000E+00
  1.60000000E+01  1.00800000E+00  1.00800000E+00  0.00000000E+00  1.60000000E+01
  1.00800000E+00  1.00800000E+00  0.00000000E+00  1.60000000E+01  1.00800000E+00
  1.00800000E+00  0.00000000E+00  1.60000000E+01  1.00800000E+00  1.00800000E+00
  0.00000000E+00  1.60000000E+01  1.00800000E+00  1.00800000E+00  0.00000000E+00
  1.60000000E+01  1.00800000E+00  1.00800000E+00  0.00000000E+00  1.60000000E+01
  1.00800000E+00  1.00800000E+00  0.00000000E+00  1.60000000E+01  1.00800000E+00
  1.00800000E+00  0.00000000E+00  1.60000000E+01  1.00800000E+00  1.00800000E+00
  0.00000000E+00  1.60000000E+01  1.00800000E+00  1.00800000E+00  0.00000000E+00
  1.60000000E+01  1.00800000E+00  1.00800000E+00  0.00000000E+00  1.60000000E+01
  1.00800000E+00  1.00800000E+00  0.00000000E+00  1.60000000E+01  1.00800000E+00
  1.00800000E+00  0.00000000E+00  1.60000000E+01  1.00800000E+00  1.00800000E+00
  0.00000000E+00  1.60000000E+01  1.00800000E+00  1.00800000E+00  0.00000000E+00
  1.60000000E+01  1.00800000E+00  1.00800000E+00  0.00000000E+00  1.60000000E+01
  1.00800000E+00  1.00800000E+00  0.00000000E+00  1.60000000E+01  1.00800000E+00
  1.00800000E+00  0.00000000E+00  1.60000000E+01  1.00800000E+00  1.00800000E+00
  0.00000000E+00  1.60000000E+01  1.00800000E+00  1.00800000E+00  0.00000000E+00
  1.60000000E+01  1.00800000E+00  1.00800000E+00  0.00000000E+00  1.60000000E+01
  1.00800000E+00  1.00800000E+00  0.00000000E+00  1.60000000E+01  1.00800000E+00
  1.00800000E+00  0.00000000E+00  1.60000000E+01  1.00800000E+00  1.00800000E+00
  0.00000000E+00  1.60000000E+01  1.00800000E+00  1.00800000E+00  0.00000000E+00
  1.60000000E+01  1.00800000E+00  1.00800000E+00  0.00000000E+00  1.60000000E+01
  1.00800000E+00  1.00800000E+00  0.00000000E+00  1.60000000E+01  1.00800000E+00
  1.00800000E+00  0.00000000E+00  1.60000000E+01  1.00800000E+00  1.00800000E+00
  0.00000000E+00  1.60000000E+01  1.00800000E+00  1.00800000E+00  0.00000000E+00
  1.60000000E+01  1.00800000E+00  1.00800000E+00  0.00000000E+00  1.60000000E+01
  1.00800000E+00  1.00800000E+00  0.00000000E+00  1.60000000E+01  1.00800000E+00
  1.00800000E+00  0.00000000E+00  1.60000000E+01  1.00800000E+00  1.00800000E+00
  0.00000000E+00  1.60000000E+01  1.00800000E+00  1.00800000E+00  0.00000000E+00
  1.60000000E+01  1.00800000E+00  1.00800000E+00  0.00000000E+00  1.60000000E+01
  1.00800000E+00  1.00800000E+00  0.00000000E+00  1.60000000E+01  1.00800000E+00
  1.00800000E+00  0.00000000E+00  1.60000000E+01  1.00800000E+00  1.00800000E+00
  0.00000000E+00  1.60000000E+01  1.00800000E+00  1.00800000E+00  0.00000000E+00
  1.60000000E+01  1.00800000E+00  1.00800000E+00  0.00000000E+00  1.60000000E+01
  1.00800000E+00  1.00800000E+00  0.00000000E+00  1.60000000E+01  1.00800000E+00
  1.00800000E+00  0.00000000E+00  1.60000000E+01  1.00800000E+00  1.00800000E+00
  0.00000000E+00  1.60000000E+01  1.00800000E+00  1.00800000E+00  0.00000000E+00
  1.60000000E+01  1.00800000E+00  1.00800000E+00  0.00000000E+00  1.60000000E+01
  1.00800000E+00  1.00800000E+00  0.00000000E+00  1.60000000E+01  1.00800000E+00
  1.00800000E+00  0.00000000E+00  1.60000000E+01  1.00800000E+00  1.00800000E+00
  0.00000000E+00  1.60000000E+01  1.00800000E+00  1.00800000E+00  0.00000000E+00
  1.60000000E+01  1.00800000E+00  1.00800000E+00  0.00000000E+00  1.60000000E+01
  1.00800000E+00  1.00800000E+00  0.00000000E+00  1.60000000E+01  1.00800000E+00
  1.00800000E+00  0.00000000E+00  1.60000000E+01  1.00800000E+00  1.00800000E+00
  0.00000000E+00  1.60000000E+01  1.00800000E+00  1.00800000E+00  0.00000000E+00
  1.60000000E+01  1.00800000E+00  1.00800000E+00  0.00000000E+00  1.60000000E+01
  1.00800000E+00  1.00800000E+00  0.00000000E+00  1.60000000E+01  1.00800000E+00
  1.00800000E+00  0.00000000E+00  1.60000000E+01  1.00800000E+00  1.00800000E+00
  0.00000000E+00  1.60000000E+01  1.00800000E+00  1.00800000E+00  0.00000000E+00
  1.60000000E+01  1.00800000E+00  1.00800000E+00  0.00000000E+00  1.60000000E+01
  1.00800000E+00  1.00800000E+00  0.00000000E+00  1.60000000E+01  1.00800000E+00
  1.00800000E+00  0.00000000E+00  1.60000000E+01  1.00800000E+00  1.00800000E+00
  0.00000000E+00  1.60000000E+01  1.00800000E+00  1.00800000E+00  0.00000000E+00
  1.60000000E+01  1.00800000E+00  1.00800000E+00  0.00000000E+00  1.60000000E+01
  1.00800000E+00  1.00800000E+00  0.00000000E+00  1.60000000E+01  1.00800000E+00
  1.00800000E+00  0.00000000E+00  1.60000000E+01  1.00800000E+00  1.00800000E+00
  0.00000000E+00  1.60000000E+01  1.00800000E+00  1.00800000E+00  0.00000000E+00
  1.60000000E+01  1.00800000E+00  1.00800000E+00  0.00000000E+00  1.60000000E+01
  1.00800000E+00  1.00800000E+00  0.00000000E+00  1.60000000E+01  1.00800000E+00
  1.00800000E+00  0.00000000E+00  1.60000000E+01  1.00800000E+00  1.00800000E+00
  0.00000000E+00  1.60000000E+01  1.00800000E+00  1.00800000E+00  0.00000000E+00
  1.60000000E+01  1.00800000E+00  1.00800000E+00  0.00000000E+00  1.60000000E+01
  1.00800000E+00  1.00800000E+00  0.00000000E+00  1.60000000E+01  1.00800000E+00
  1.00800000E+00  0.00000000E+00  1.60000000E+01  1.00800000E+00  1.00800000E+00
  0.00000000E+00  1.60000000E+01  1.00800000E+00  1.00800000E+00  0.00000000E+00
  1.60000000E+01  1.00800000E+00  1.00800000E+00  0.00000000E+00  1.60000000E+01
  1.00800000E+00  1.00800000E+00  0.00000000E+00  1.60000000E+01  1.00800000E+00
  1.00800000E+00  0.00000000E+00  1.60000000E+01  1.00800000E+00  1.00800000E+00
  0.00000000E+00  1.60000000E+01  1.00800000E+00  1.00800000E+00  0.00000000E+00
  1.60000000E+01  1.00800000E+00  1.00800000E+00  0.00000000E+00  1.60000000E+01
  1.00800000E+00  1.00800000E+00  0.00000000E+00  1.60000000E+01  1.00800000E+00
  1.00800000E+00  0.00000000E+00  1.60000000E+01  1.00800000E+00  1.00800000E+00
  0.00000000E+00  1.60000000E+01  1.00800000E+00  1.00800000E+00  0.00000000E+00
  1.60000000E+01  1.00800000E+00  1.00800000E+00  0.00000000E+00  1.60000000E+01
  1.00800000E+00  1.00800000E+00  0.00000000E+00  1.60000000E+01  1.00800000E+00
  1.00800000E+00  0.00000000E+00  1.60000000E+01  1.00800000E+00  1.00800000E+00
  0.00000000E+00  1.60000000E+01  1.00800000E+00  1.00800000E+00  0.00000000E+00
  1.60000000E+01  1.00800000E+00  1.00800000E+00  0.00000000E+00  1.60000000E+01
  1.00800000E+00  1.00800000E+00  0.00000000E+00  1.60000000E+01  1.00800000E+00
  1.00800000E+00  0.00000000E+00  1.60000000E+01  1.00800000E+00  1.00800000E+00
  0.00000000E+00  1.60000000E+01  1.00800000E+00  1.00800000E+00  0.00000000E+00
  1.60000000E+01  1.00800000E+00  1.00800000E+00  0.00000000E+00  1.60000000E+01
  1.00800000E+00  1.00800000E+00  0.00000000E+00  1.60000000E+01  1.00800000E+00
  1.00800000E+00  0.00000000E+00  1.60000000E+01  1.00800000E+00  1.00800000E+00
  0.00000000E+00  1.60000000E+01  1.00800000E+00  1.00800000E+00  0.00000000E+00
  1.60000000E+01  1.00800000E+00  1.00800000E+00  0.00000000E+00  1.60000000E+01
  1.00800000E+00  1.00800000E+00  0.00000000E+00  1.60000000E+01  1.00800000E+00
  1.00800000E+00  0.00000000E+00  1.60000000E+01  1.00800000E+00  1.00800000E+00
  0.00000000E+00  1.60000000E+01  1.00800000E+00  1.00800000E+00  0.00000000E+00
  1.60000000E+01  1.00800000E+00  1.00800000E+00  0.00000000E+00  1.60000000E+01
  1.00800000E+00  1.00800000E+00  0.00000000E+00  1.60000000E+01  1.00800000E+00
  1.00800000E+00  0.00000000E+00  1.60000000E+01  1.00800000E+00  1.00800000E+00
  0.00000000E+00  1.60000000E+01  1.00800000E+00  1.00800000E+00  0.00000000E+00
  1.60000000E+01  1.00800000E+00  1.00800000E+00  0.00000000E+00  1.60000000E+01
  1.00800000E+00  1.00800000E+00  0.00000000E+00  1.60000000E+01  1.00800000E+00
  1.00800000E+00  0.00000000E+00  1.60000000E+01  1.00800000E+00  1.00800000E+00
  0.00000000E+00  1.60000000E+01  1.00800000E+00  1.00800000E+00  0.00000000E+00
  1.60000000E+01  1.00800000E+00  1.00800000E+00  0.00000000E+00  1.60000000E+01
  1.00800000E+00  1.00800000E+00  0.00000000E+00  1.60000000E+01  1.00800000E+00
  1.00800000E+00  0.00000000E+00  1.60000000E+01  1.00800000E+00  1.00800000E+00
  0.00000000E+00  1.60000000E+01  1.00800000E+00  1.00800000E+00  0.00000000E+00
  1.60000000E+01  1.00800000E+00  1.00800000E+00  0.00000000E+00  1.60000000E+01
  1.00800000E+00  1.00800000E+00  0.00000000E+00  1.60000000E+01  1.00800000E+00
  1.00800000E+00  0.00000000E+00  1.60000000E+01  1.00800000E+00  1.00800000E+00
  0.00000000E+00  1.60000000E+01  1.00800000E+00  1.00800000E+00  0.00000000E+00
  1.60000000E+01  1.00800000E+00  1.00800000E+00  0.00000000E+00  1.60000000E+01
  1.00800000E+00  1.00800000E+00  0.00000000E+00  1.60000000E+01  1.00800000E+00
  1.00800000E+00  0.00000000E+00  1.60000000E+01  1.00800000E+00  1.00800000E+00
  0.00000000E+00  1.60000000E+01  1.00800000E+00  1.00800000E+00  0.00000000E+00
  1.60000000E+01  1.00800000E+00  1.00800000E+00  0.00000000E+00  1.60000000E+01
  1.00800000E+00  1.00800000E+00  0.00000000E+00  1.60000000E+01  1.00800000E+00
  1.00800000E+00  0.00000000E+00  1.60000000E+01  1.00800000E+00  1.00800000E+00
  0.00000000E+00  1.60000000E+01  1.00800000E+00  1.00800000E+00  0.00000000E+00
  1.60000000E+01  1.00800000E+00  1.00800000E+00  0.00000000E+00  1.60000000E+01
  1.00800000E+00  1.00800000E+00  0.00000000E+00  1.60000000E+01  1.00800000E+00
  1.00800000E+00  0.00000000E+00  1.60000000E+01  1.00800000E+00  1.00800000E+00
  0.00000000E+00  1.60000000E+01  1.00800000E+00  1.00800000E+00  0.00000000E+00
  1.60000000E+01  1.00800000E+00  1.00800000E+00  0.00000000E+00  1.60000000E+01
  1.00800000E+00  1.00800000E+00  0.00000000E+00  1.60000000E+01  1.00800000E+00
  1.00800000E+00  0.00000000E+00  1.60000000E+01  1.00800000E+00  1.00800000E+00
  0.00000000E+00  1.60000000E+01  1.00800000E+00  1.00800000E+00  0.00000000E+00
  1.60000000E+01  1.00800000E+00  1.00800000E+00  0.00000000E+00  1.60000000E+01
  1.00800000E+00  1.00800000E+00  0.00000000E+00  1.60000000E+01  1.00800000E+00
  1.00800000E+00  0.00000000E+00  1.60000000E+01  1.00800000E+00  1.00800000E+00
  0.00000000E+00  1.60000000E+01  1.00800000E+00  1.00800000E+00  0.00000000E+00
  1.60000000E+01  1.00800000E+00  1.00800000E+00  0.00000000E+00  1.60000000E+01
  1.00800000E+00  1.00800000E+00  0.00000000E+00  1.60000000E+01  1.00800000E+00
  1.00800000E+00  0.00000000E+00  1.60000000E+01  1.00800000E+00  1.00800000E+00
  0.00000000E+00  1.60000000E+01  1.00800000E+00  1.00800000E+00  0.00000000E+00
  1.60000000E+01  1.00800000E+00  1.00800000E+00  0.00000000E+00  1.60000000E+01
  1.00800000E+00  1.00800000E+00  0.00000000E+00  1.60000000E+01  1.00800000E+00
  1.00800000E+00  0.00000000E+00  1.60000000E+01  1.00800000E+00  1.00800000E+00
  0.00000000E+00  1.60000000E+01  1.00800000E+00  1.00800000E+00  0.00000000E+00
  1.60000000E+01  1.00800000E+00  1.00800000E+00  0.00000000E+00  1.60000000E+01
  1.00800000E+00  1.00800000E+00  0.00000000E+00  1.60000000E+01  1.00800000E+00
  1.00800000E+00  0.00000000E+00  1.60000000E+01  1.00800000E+00  1.00800000E+00
  0.00000000E+00  1.60000000E+01  1.00800000E+00  1.00800000E+00  0.00000000E+00
  1.60000000E+01  1.00800000E+00  1.00800000E+00  0.00000000E+00  1.60000000E+01
  1.00800000E+00  1.00800000E+00  0.00000000E+00  1.60000000E+01  1.00800000E+00
  1.00800000E+00  0.00000000E+00  1.60000000E+01  1.00800000E+00  1.00800000E+00
  0.00000000E+00  1.60000000E+01  1.00800000E+00  1.00800000E+00  0.00000000E+00
  1.60000000E+01  1.00800000E+00  1.00800000E+00  0.00000000E+00  1.60000000E+01
  1.00800000E+00  1.00800000E+00  0.00000000E+00  1.60000000E+01  1.00800000E+00
  1.00800000E+00  0.00000000E+00  1.60000000E+01  1.00800000E+00  1.00800000E+00
  0.00000000E+00  1.60000000E+01  1.00800000E+00  1.00800000E+00  0.00000000E+00
  1.60000000E+01  1.00800000E+00  1.00800000E+00  0.00000000E+00  1.60000000E+01
  1.00800000E+00  1.00800000E+00  0.00000000E+00  1.60000000E+01  1.00800000E+00
  1.00800000E+00  0.00000000E+00  1.60000000E+01  1.00800000E+00  1.00800000E+00
  0.00000000E+00  1.60000000E+01  1.00800000E+00  1.00800000E+00  0.00000000E+00
  1.60000000E+01  1.00800000E+00  1.00800000E+00  0.00000000E+00  1.60000000E+01
  1.00800000E+00  1.00800000E+00  0.00000000E+00  1.60000000E+01  1.00800000E+00
  1.00800000E+00  0.00000000E+00  1.60000000E+01  1.00800000E+00  1.00800000E+00
  0.00000000E+00  1.60000000E+01  1.00800000E+00  1.00800000E+00  0.00000000E+00
  1.60000000E+01  1.00800000E+00  1.00800000E+00  0.00000000E+00  1.60000000E+01
  1.00800000E+00  1.00800000E+00  0.00000000E+00  1.60000000E+01  1.00800000E+00
  1.00800000E+00  0.00000000E+00  1.60000000E+01  1.00800000E+00  1.00800000E+00
  0.00000000E+00  1.60000000E+01  1.00800000E+00  1.00800000E+00  0.00000000E+00
  1.60000000E+01  1.00800000E+00  1.00800000E+00  0.00000000E+00  1.60000000E+01
  1.00800000E+00  1.00800000E+00  0.00000000E+00  1.60000000E+01  1.00800000E+00
  1.00800000E+00  0.00000000E+00  1.60000000E+01  1.00800000E+00  1.00800000E+00
  0.00000000E+00  1.60000000E+01  1.00800000E+00  1.00800000E+00  0.00000000E+00
  1.60000000E+01  1.00800000E+00  1.00800000E+00  0.00000000E+00  1.60000000E+01
  1.00800000E+00  1.00800000E+00  0.00000000E+00  1.60000000E+01  1.00800000E+00
  1.00800000E+00  0.00000000E+00  1.60000000E+01  1.00800000E+00  1.00800000E+00
  0.00000000E+00  1.60000000E+01  1.00800000E+00  1.00800000E+00  0.00000000E+00
  1.60000000E+01  1.00800000E+00  1.00800000E+00  0.00000000E+00  1.60000000E+01
  1.00800000E+00  1.00800000E+00  0.00000000E+00  1.60000000E+01  1.00800000E+00
  1.00800000E+00  0.00000000E+00  1.60000000E+01  1.00800000E+00  1.00800000E+00
  0.00000000E+00  1.60000000E+01  1.00800000E+00  1.00800000E+00  0.00000000E+00
  1.60000000E+01  1.00800000E+00  1.00800000E+00  0.00000000E+00  1.60000000E+01
  1.00800000E+00  1.00800000E+00  0.00000000E+00  1.60000000E+01  1.00800000E+00
  1.00800000E+00  0.00000000E+00  1.60000000E+01  1.00800000E+00  1.00800000E+00
  0.00000000E+00  1.60000000E+01  1.00800000E+00  1.00800000E+00  0.00000000E+00
  1.60000000E+01  1.00800000E+00  1.00800000E+00  0.00000000E+00  1.60000000E+01
  1.00800000E+00  1.00800000E+00  0.00000000E+00  1.60000000E+01  1.00800000E+00
  1.00800000E+00  0.00000000E+00  1.60000000E+01  1.00800000E+00  1.00800000E+00
  0.00000000E+00  1.60000000E+01  1.00800000E+00  1.00800000E+00  0.00000000E+00
  1.60000000E+01  1.00800000E+00  1.00800000E+00  0.00000000E+00  1.60000000E+01
  1.00800000E+00  1.00800000E+00  0.00000000E+00  1.60000000E+01  1.00800000E+00
  1.00800000E+00  0.00000000E+00  1.60000000E+01  1.00800000E+00  1.00800000E+00
  0.00000000E+00  1.60000000E+01  1.00800000E+00  1.00800000E+00  0.00000000E+00
  1.60000000E+01  1.00800000E+00  1.00800000E+00  0.00000000E+00  1.60000000E+01
  1.00800000E+00  1.00800000E+00  0.00000000E+00  1.60000000E+01  1.00800000E+00
  1.00800000E+00  0.00000000E+00  1.60000000E+01  1.00800000E+00  1.00800000E+00
  0.00000000E+00  1.60000000E+01  1.00800000E+00  1.00800000E+00  0.00000000E+00
  1.60000000E+01  1.00800000E+00  1.00800000E+00  0.00000000E+00  1.60000000E+01
  1.00800000E+00  1.00800000E+00  0.00000000E+00  1.60000000E+01  1.00800000E+00
  1.00800000E+00  0.00000000E+00  1.60000000E+01  1.00800000E+00  1.00800000E+00
  0.00000000E+00  1.60000000E+01  1.00800000E+00  1.00800000E+00  0.00000000E+00
  1.60000000E+01  1.00800000E+00  1.00800000E+00  0.00000000E+00  1.60000000E+01
  1.00800000E+00  1.00800000E+00  0.00000000E+00  1.60000000E+01  1.00800000E+00
  1.00800000E+00  0.00000000E+00  1.60000000E+01  1.00800000E+00  1.00800000E+00
  0.00000000E+00  1.60000000E+01  1.00800000E+00  1.00800000E+00  0.00000000E+00
  1.60000000E+01  1.00800000E+00  1.00800000E+00  0.00000000E+00  1.60000000E+01
  1.00800000E+00  1.00800000E+00  0.00000000E+00  1.60000000E+01  1.00800000E+00
  1.00800000E+00  0.00000000E+00  1.60000000E+01  1.00800000E+00  1.00800000E+00
  0.00000000E+00  1.60000000E+01  1.00800000E+00  1.00800000E+00  0.00000000E+00
  1.60000000E+01  1.00800000E+00  1.00800000E+00  0.00000000E+00  1.60000000E+01
  1.00800000E+00  1.00800000E+00  0.00000000E+00  1.60000000E+01  1.00800000E+00
  1.00800000E+00  0.00000000E+00  1.60000000E+01  1.00800000E+00  1.00800000E+00
  0.00000000E+00  1.60000000E+01  1.00800000E+00  1.00800000E+00  0.00000000E+00
  1.60000000E+01  1.00800000E+00  1.00800000E+00  0.00000000E+00  1.60000000E+01
  1.00800000E+00  1.00800000E+00  0.00000000E+00  1.60000000E+01  1.00800000E+00
  1.00800000E+00  0.00000000E+00  1.60000000E+01  1.00800000E+00  1.00800000E+00
  0.00000000E+00  1.60000000E+01  1.00800000E+00  1.00800000E+00  0.00000000E+00
  1.60000000E+01  1.00800000E+00  1.00800000E+00  0.00000000E+00  1.60000000E+01
  1.00800000E+00  1.00800000E+00  0.00000000E+00  1.60000000E+01  1.00800000E+00
  1.00800000E+00  0.00000000E+00  1.60000000E+01  1.00800000E+00  1.00800000E+00
  0.00000000E+00  1.60000000E+01  1.00800000E+00  1.00800000E+00  0.00000000E+00
  1.60000000E+01  1.00800000E+00  1.00800000E+00  0.00000000E+00  1.60000000E+01
  1.00800000E+00  1.00800000E+00  0.00000000E+00  1.60000000E+01  1.00800000E+00
  1.00800000E+00  0.00000000E+00  1.60000000E+01  1.00800000E+00  1.00800000E+00
  0.00000000E+00  1.60000000E+01  1.00800000E+00  1.00800000E+00  0.00000000E+00
  1.60000000E+01  1.00800000E+00  1.00800000E+00  0.00000000E+00  1.60000000E+01
  1.00800000E+00  1.00800000E+00  0.00000000E+00  1.60000000E+01  1.00800000E+00
  1.00800000E+00  0.00000000E+00  1.60000000E+01  1.00800000E+00  1.00800000E+00
  0.00000000E+00  1.60000000E+01  1.00800000E+00  1.00800000E+00  0.00000000E+00
  1.60000000E+01  1.00800000E+00  1.00800000E+00  0.00000000E+00  1.60000000E+01
  1.00800000E+00  1.00800000E+00  0.00000000E+00  1.60000000E+01  1.00800000E+00
  1.00800000E+00  0.00000000E+00  1.60000000E+01  1.00800000E+00  1.00800000E+00
  0.00000000E+00  1.60000000E+01  1.00800000E+00  1.00800000E+00  0.00000000E+00
  1.60000000E+01  1.00800000E+00  1.00800000E+00  0.00000000E+00  1.60000000E+01
  1.00800000E+00  1.00800000E+00  0.00000000E+00  1.60000000E+01  1.00800000E+00
  1.00800000E+00  0.00000000E+00  1.60000000E+01  1.00800000E+00  1.00800000E+00
  0.00000000E+00  1.60000000E+01  1.00800000E+00  1.00800000E+00  0.00000000E+00
  1.60000000E+01  1.00800000E+00  1.00800000E+00  0.00000000E+00  1.60000000E+01
  1.00800000E+00  1.00800000E+00  0.00000000E+00  1.60000000E+01  1.00800000E+00
  1.00800000E+00  0.00000000E+00  1.60000000E+01  1.00800000E+00  1.00800000E+00
  0.00000000E+00  1.60000000E+01  1.00800000E+00  1.00800000E+00  0.00000000E+00
  1.60000000E+01  1.00800000E+00  1.00800000E+00  0.00000000E+00  1.60000000E+01
  1.00800000E+00  1.00800000E+00  0.00000000E+00  1.60000000E+01  1.00800000E+00
  1.00800000E+00  0.00000000E+00  1.60000000E+01  1.00800000E+00  1.00800000E+00
  0.00000000E+00  1.60000000E+01  1.00800000E+00  1.00800000E+00  0.00000000E+00
  1.60000000E+01  1.00800000E+00  1.00800000E+00  0.00000000E+00  1.60000000E+01
  1.00800000E+00  1.00800000E+00  0.00000000E+00  1.60000000E+01  1.00800000E+00
  1.00800000E+00  0.00000000E+00  1.60000000E+01  1.00800000E+00  1.00800000E+00
  0.00000000E+00  1.60000000E+01  1.00800000E+00  1.00800000E+00  0.00000000E+00
  1.60000000E+01  1.00800000E+00  1.00800000E+00  0.00000000E+00  1.60000000E+01
  1.00800000E+00  1.00800000E+00  0.00000000E+00  1.60000000E+01  1.00800000E+00
  1.00800000E+00  0.00000000E+00  1.60000000E+01  1.00800000E+00  1.00800000E+00
  0.00000000E+00  1.60000000E+01  1.00800000E+00  1.00800000E+00  0.00000000E+00
  1.60000000E+01  1.00800000E+00  1.00800000E+00  0.00000000E+00  1.60000000E+01
  1.00800000E+00  1.00800000E+00  0.00000000E+00  1.60000000E+01  1.00800000E+00
  1.00800000E+00  0.00000000E+00  1.60000000E+01  1.00800000E+00  1.00800000E+00
  0.00000000E+00  1.60000000E+01  1.00800000E+00  1.00800000E+00  0.00000000E+00
  1.60000000E+01  1.00800000E+00  1.00800000E+00  0.00000000E+00  1.60000000E+01
  1.00800000E+00  1.00800000E+00  0.00000000E+00  1.60000000E+01  1.00800000E+00
  1.00800000E+00  0.00000000E+00  1.60000000E+01  1.00800000E+00  1.00800000E+00
  0.00000000E+00  1.60000000E+01  1.00800000E+00  1.00800000E+00  0.00000000E+00
  1.60000000E+01  1.00800000E+00  1.00800000E+00  0.00000000E+00  1.60000000E+01
  1.00800000E+00  1.00800000E+00  0.00000000E+00  1.60000000E+01  1.00800000E+00
  1.00800000E+00  0.00000000E+00  1.60000000E+01  1.00800000E+00  1.00800000E+00
  0.00000000E+00  1.60000000E+01  1.00800000E+00  1.00800000E+00  0.00000000E+00
  1.60000000E+01  1.00800000E+00  1.00800000E+00  0.00000000E+00  1.60000000E+01
  1.00800000E+00  1.00800000E+00  0.00000000E+00  1.60000000E+01  1.00800000E+00
  1.00800000E+00  0.00000000E+00  1.60000000E+01  1.00800000E+00  1.00800000E+00
  0.00000000E+00  1.60000000E+01  1.00800000E+00  1.00800000E+00  0.00000000E+00
  1.60000000E+01  1.00800000E+00  1.00800000E+00  0.00000000E+00  1.60000000E+01
  1.00800000E+00  1.00800000E+00  0.00000000E+00  1.60000000E+01  1.00800000E+00
  1.00800000E+00  0.00000000E+00  1.60000000E+01  1.00800000E+00  1.00800000E+00
  0.00000000E+00  1.60000000E+01  1.00800000E+00  1.00800000E+00  0.00000000E+00
  1.60000000E+01  1.00800000E+00  1.00800000E+00  0.00000000E+00  1.60000000E+01
  1.00800000E+00  1.00800000E+00  0.00000000E+00  1.60000000E+01  1.00800000E+00
  1.00800000E+00  0.00000000E+00  1.60000000E+01  1.00800000E+00  1.00800000E+00
  0.00000000E+00  1.60000000E+01  1.00800000E+00  1.00800000E+00  0.00000000E+00
  1.60000000E+01  1.00800000E+00  1.00800000E+00  0.00000000E+00  1.60000000E+01
  1.00800000E+00  1.00800000E+00  0.00000000E+00  1.60000000E+01  1.00800000E+00
  1.00800000E+00  0.00000000E+00  1.60000000E+01  1.00800000E+00  1.00800000E+00
  0.00000000E+00  1.60000000E+01  1.00800000E+00  1.00800000E+00  0.00000000E+00
  1.60000000E+01  1.00800000E+00  1.00800000E+00  0.00000000E+00  1.60000000E+01
  1.00800000E+00  1.00800000E+00  0.00000000E+00  1.60000000E+01  1.00800000E+00
  1.00800000E+00  0.00000000E+00  1.60000000E+01  1.00800000E+00  1.00800000E+00
  0.00000000E+00  1.60000000E+01  1.00800000E+00  1.00800000E+00  0.00000000E+00
  1.60000000E+01  1.00800000E+00  1.00800000E+00  0.00000000E+00  1.60000000E+01
  1.00800000E+00  1.00800000E+00  0.00000000E+00  1.60000000E+01  1.00800000E+00
  1.00800000E+00  0.00000000E+00  1.60000000E+01  1.00800000E+00  1.00800000E+00
  0.00000000E+00  1.60000000E+01  1.00800000E+00  1.00800000E+00  0.00000000E+00
  1.60000000E+01  1.00800000E+00  1.00800000E+00  0.00000000E+00  1.60000000E+01
  1.00800000E+00  1.00800000E+00  0.00000000E+00  1.60000000E+01  1.00800000E+00
  1.00800000E+00  0.00000000E+00  1.60000000E+01  1.00800000E+00  1.00800000E+00
  0.00000000E+00  1.60000000E+01  1.00800000E+00  1.00800000E+00  0.00000000E+00
  1.60000000E+01  1.00800000E+00  1.00800000E+00  0.00000000E+00  1.60000000E+01
  1.00800000E+00  1.00800000E+00  0.00000000E+00  1.60000000E+01  1.00800000E+00
  1.00800000E+00  0.00000000E+00  1.60000000E+01  1.00800000E+00  1.00800000E+00
  0.00000000E+00  1.60000000E+01  1.00800000E+00  1.00800000E+00  0.00000000E+00
  1.60000000E+01  1.00800000E+00  1.00800000E+00  0.00000000E+00  1.60000000E+01
  1.00800000E+00  1.00800000E+00  0.00000000E+00  1.60000000E+01  1.00800000E+00
  1.00800000E+00  0.00000000E+00  1.60000000E+01  1.00800000E+00  1.00800000E+00
  0.00000000E+00  1.60000000E+01  1.00800000E+00  1.00800000E+00  0.00000000E+00
  1.60000000E+01  1.00800000E+00  1.00800000E+00  0.00000000E+00  1.60000000E+01
  1.00800000E+00  1.00800000E+00  0.00000000E+00  1.60000000E+01  1.00800000E+00
  1.00800000E+00  0.00000000E+00  1.60000000E+01  1.00800000E+00  1.00800000E+00
  0.00000000E+00  1.60000000E+01  1.00800000E+00  1.00800000E+00  0.00000000E+00
  1.60000000E+01  1.00800000E+00  1.00800000E+00  0.00000000E+00  1.60000000E+01
  1.00800000E+00  1.00800000E+00  0.00000000E+00  1.60000000E+01  1.00800000E+00
  1.00800000E+00  0.00000000E+00  1.60000000E+01  1.00800000E+00  1.00800000E+00
  0.00000000E+00  1.60000000E+01  1.00800000E+00  1.00800000E+00  0.00000000E+00
  1.60000000E+01  1.00800000E+00  1.00800000E+00  0.00000000E+00  1.60000000E+01
  1.00800000E+00  1.00800000E+00  0.00000000E+00  1.60000000E+01  1.00800000E+00
  1.00800000E+00  0.00000000E+00  1.60000000E+01  1.00800000E+00  1.00800000E+00
  0.00000000E+00  1.60000000E+01  1.00800000E+00  1.00800000E+00  0.00000000E+00
  1.60000000E+01  1.00800000E+00  1.00800000E+00  0.00000000E+00  1.60000000E+01
  1.00800000E+00  1.00800000E+00  0.00000000E+00  1.60000000E+01  1.00800000E+00
  1.00800000E+00  0.00000000E+00  1.60000000E+01  1.00800000E+00  1.00800000E+00
  0.00000000E+00  1.60000000E+01  1.00800000E+00  1.00800000E+00  0.00000000E+00
  1.60000000E+01  1.00800000E+00  1.00800000E+00  0.00000000E+00  1.60000000E+01
  1.00800000E+00  1.00800000E+00  0.00000000E+00  1.60000000E+01  1.00800000E+00
  1.00800000E+00  0.00000000E+00  1.60000000E+01  1.00800000E+00  1.00800000E+00
  0.00000000E+00  1.60000000E+01  1.00800000E+00  1.00800000E+00  0.00000000E+00
  1.60000000E+01  1.00800000E+00  1.00800000E+00  0.00000000E+00  1.60000000E+01
  1.00800000E+00  1.00800000E+00  0.00000000E+00  1.60000000E+01  1.00800000E+00
  1.00800000E+00  0.00000000E+00  1.60000000E+01  1.00800000E+00  1.00800000E+00
  0.00000000E+00  1.60000000E+01  1.00800000E+00  1.00800000E+00  0.00000000E+00
  1.60000000E+01  1.00800000E+00  1.00800000E+00  0.00000000E+00  1.60000000E+01
  1.00800000E+00  1.00800000E+00  0.00000000E+00  1.60000000E+01  1.00800000E+00
  1.00800000E+00  0.00000000E+00  1.60000000E+01  1.00800000E+00  1.00800000E+00
  0.00000000E+00  1.60000000E+01  1.00800000E+00  1.00800000E+00  0.00000000E+00
  1.60000000E+01  1.00800000E+00  1.00800000E+00  0.00000000E+00  1.60000000E+01
  1.00800000E+00  1.00800000E+00  0.00000000E+00  1.60000000E+01  1.00800000E+00
  1.00800000E+00  0.00000000E+00  1.60000000E+01  1.00800000E+00  1.00800000E+00
  0.00000000E+00  1.60000000E+01  1.00800000E+00  1.00800000E+00  0.00000000E+00
  1.60000000E+01  1.00800000E+00  1.00800000E+00  0.00000000E+00  1.60000000E+01
  1.00800000E+00  1.00800000E+00  0.00000000E+00  1.60000000E+01  1.00800000E+00
  1.00800000E+00  0.00000000E+00  1.60000000E+01  1.00800000E+00  1.00800000E+00
  0.00000000E+00  1.60000000E+01  1.00800000E+00  1.00800000E+00  0.00000000E+00
  1.60000000E+01  1.00800000E+00  1.00800000E+00  0.00000000E+00  1.60000000E+01
  1.00800000E+00  1.00800000E+00  0.00000000E+00  1.60000000E+01  1.00800000E+00
  1.00800000E+00  0.00000000E+00  1.60000000E+01  1.00800000E+00  1.00800000E+00
  0.00000000E+00  1.60000000E+01  1.00800000E+00  1.00800000E+00  0.00000000E+00
  1.60000000E+01  1.00800000E+00  1.00800000E+00  0.00000000E+00  1.60000000E+01
  1.00800000E+00  1.00800000E+00  0.00000000E+00  1.60000000E+01  1.00800000E+00
  1.00800000E+00  0.00000000E+00  1.60000000E+01  1.00800000E+00  1.00800000E+00
  0.00000000E+00  1.60000000E+01  1.00800000E+00  1.00800000E+00  0.00000000E+00
  1.60000000E+01  1.00800000E+00  1.00800000E+00  0.00000000E+00  1.60000000E+01
  1.00800000E+00  1.00800000E+00  0.00000000E+00  1.60000000E+01  1.00800000E+00
  1.00800000E+00  0.00000000E+00  1.60000000E+01  1.00800000E+00  1.00800000E+00
  0.00000000E+00  1.60000000E+01  1.00800000E+00  1.00800000E+00  0.00000000E+00
  1.60000000E+01  1.00800000E+00  1.00800000E+00  0.00000000E+00  1.60000000E+01
  1.00800000E+00  1.00800000E+00  0.00000000E+00  1.60000000E+01  1.00800000E+00
  1.00800000E+00  0.00000000E+00  1.60000000E+01  1.00800000E+00  1.00800000E+00
  0.00000000E+00  1.60000000E+01  1.00800000E+00  1.00800000E+00  0.00000000E+00
  1.60000000E+01  1.00800000E+00  1.00800000E+00  0.00000000E+00  1.60000000E+01
  1.00800000E+00  1.00800000E+00  0.00000000E+00  1.60000000E+01  1.00800000E+00
  1.00800000E+00  0.00000000E+00  1.60000000E+01  1.00800000E+00  1.00800000E+00
  0.00000000E+00  1.60000000E+01  1.00800000E+00  1.00800000E+00  0.00000000E+00
  1.60000000E+01  1.00800000E+00  1.00800000E+00  0.00000000E+00  1.60000000E+01
  1.00800000E+00  1.00800000E+00  0.00000000E+00  1.60000000E+01  1.00800000E+00
  1.00800000E+00  0.00000000E+00  1.60000000E+01  1.00800000E+00  1.00800000E+00
  0.00000000E+00  1.60000000E+01  1.00800000E+00  1.00800000E+00  0.00000000E+00
  1.60000000E+01  1.00800000E+00  1.00800000E+00  0.00000000E+00  1.60000000E+01
  1.00800000E+00  1.00800000E+00  0.00000000E+00  1.60000000E+01  1.00800000E+00
  1.00800000E+00  0.00000000E+00  1.60000000E+01  1.00800000E+00  1.00800000E+00
  0.00000000E+00  1.60000000E+01  1.00800000E+00  1.00800000E+00  0.00000000E+00
  1.60000000E+01  1.00800000E+00  1.00800000E+00  0.00000000E+00  1.60000000E+01
  1.00800000E+00  1.00800000E+00  0.00000000E+00  1.60000000E+01  1.00800000E+00
  1.00800000E+00  0.00000000E+00  1.60000000E+01  1.00800000E+00  1.00800000E+00
  0.00000000E+00  1.60000000E+01  1.00800000E+00  1.00800000E+00  0.00000000E+00
  1.60000000E+01  1.00800000E+00  1.00800000E+00  0.00000000E+00  1.60000000E+01
  1.00800000E+00  1.00800000E+00  0.00000000E+00  1.60000000E+01  1.00800000E+00
  1.00800000E+00  0.00000000E+00  1.60000000E+01  1.00800000E+00  1.00800000E+00
  0.00000000E+00  1.60000000E+01  1.00800000E+00  1.00800000E+00  0.00000000E+00
  1.60000000E+01  1.00800000E+00  1.00800000E+00  0.00000000E+00  1.60000000E+01
  1.00800000E+00  1.00800000E+00  0.00000000E+00  1.60000000E+01  1.00800000E+00
  1.00800000E+00  0.00000000E+00  1.60000000E+01  1.00800000E+00  1.00800000E+00
  0.00000000E+00  1.60000000E+01  1.00800000E+00  1.00800000E+00  0.00000000E+00
  1.60000000E+01  1.00800000E+00  1.00800000E+00  0.00000000E+00  1.60000000E+01
  1.00800000E+00  1.00800000E+00  0.00000000E+00  1.60000000E+01  1.00800000E+00
  1.00800000E+00  0.00000000E+00  1.60000000E+01  1.00800000E+00  1.00800000E+00
  0.00000000E+00  1.60000000E+01  1.00800000E+00  1.00800000E+00  0.00000000E+00
  1.60000000E+01  1.00800000E+00  1.00800000E+00  0.00000000E+00  1.60000000E+01
  1.00800000E+00  1.00800000E+00  0.00000000E+00  1.60000000E+01  1.00800000E+00
  1.00800000E+00  0.00000000E+00  1.60000000E+01  1.00800000E+00  1.00800000E+00
  0.00000000E+00  1.60000000E+01  1.00800000E+00  1.00800000E+00  0.00000000E+00
  1.60000000E+01  1.00800000E+00  1.00800000E+00  0.00000000E+00  1.60000000E+01
  1.00800000E+00  1.00800000E+00  0.00000000E+00  1.60000000E+01  1.00800000E+00
  1.00800000E+00  0.00000000E+00  1.60000000E+01  1.00800000E+00  1.00800000E+00
  0.00000000E+00  1.60000000E+01  1.00800000E+00  1.00800000E+00  0.00000000E+00
  1.60000000E+01  1.00800000E+00  1.00800000E+00  0.00000000E+00  1.60000000E+01
  1.00800000E+00  1.00800000E+00  0.00000000E+00  1.60000000E+01  1.00800000E+00
  1.00800000E+00  0.00000000E+00  1.60000000E+01  1.00800000E+00  1.00800000E+00
  0.00000000E+00  1.60000000E+01  1.00800000E+00  1.00800000E+00  0.00000000E+00
  1.60000000E+01  1.00800000E+00  1.00800000E+00  0.00000000E+00  1.60000000E+01
  1.00800000E+00  1.00800000E+00  0.00000000E+00  1.60000000E+01  1.00800000E+00
  1.00800000E+00  0.00000000E+00  1.60000000E+01  1.00800000E+00  1.00800000E+00
  0.00000000E+00  1.60000000E+01  1.00800000E+00  1.00800000E+00  0.00000000E+00
  1.60000000E+01  1.00800000E+00  1.00800000E+00  0.00000000E+00  1.60000000E+01
  1.00800000E+00  1.00800000E+00  0.00000000E+00  1.60000000E+01  1.00800000E+00
  1.00800000E+00  0.00000000E+00  1.60000000E+01  1.00800000E+00  1.00800000E+00
  0.00000000E+00  1.60000000E+01  1.00800000E+00  1.00800000E+00  0.00000000E+00
  1.60000000E+01  1.00800000E+00  1.00800000E+00  0.00000000E+00  1.60000000E+01
  1.00800000E+00  1.00800000E+00  0.00000000E+00  1.60000000E+01  1.00800000E+00
  1.00800000E+00  0.00000000E+00  1.60000000E+01  1.00800000E+00  1.00800000E+00
  0.00000000E+00  1.60000000E+01  1.00800000E+00  1.00800000E+00  0.00000000E+00
  1.60000000E+01  1.00800000E+00  1.00800000E+00  0.00000000E+00  1.60000000E+01
  1.00800000E+00  1.00800000E+00  0.00000000E+00  1.60000000E+01  1.00800000E+00
  1.00800000E+00  0.00000000E+00  1.60000000E+01  1.00800000E+00  1.00800000E+00
  0.00000000E+00  1.60000000E+01  1.00800000E+00  1.00800000E+00  0.00000000E+00
  1.60000000E+01  1.00800000E+00  1.00800000E+00  0.00000000E+00  1.60000000E+01
  1.00800000E+00  1.00800000E+00  0.00000000E+00  1.60000000E+01  1.00800000E+00
  1.00800000E+00  0.00000000E+00  1.60000000E+01  1.00800000E+00  1.00800000E+00
  0.00000000E+00  1.60000000E+01  1.00800000E+00  1.00800000E+00  0.00000000E+00
  1.60000000E+01  1.00800000E+00  1.00800000E+00  0.00000000E+00  1.60000000E+01
  1.00800000E+00  1.00800000E+00  0.00000000E+00  1.60000000E+01  1.00800000E+00
  1.00800000E+00  0.00000000E+00  1.60000000E+01  1.00800000E+00  1.00800000E+00
  0.00000000E+00  1.60000000E+01  1.00800000E+00  1.00800000E+00  0.00000000E+00
  1.60000000E+01  1.00800000E+00  1.00800000E+00  0.00000000E+00  1.60000000E+01
  1.00800000E+00  1.00800000E+00  0.00000000E+00  1.60000000E+01  1.00800000E+00
  1.00800000E+00  0.00000000E+00  1.60000000E+01  1.00800000E+00  1.00800000E+00
  0.00000000E+00  1.60000000E+01  1.00800000E+00  1.00800000E+00  0.00000000E+00
  1.60000000E+01  1.00800000E+00  1.00800000E+00  0.00000000E+00  1.60000000E+01
  1.00800000E+00  1.00800000E+00  0.00000000E+00  1.60000000E+01  1.00800000E+00
  1.00800000E+00  0.00000000E+00  1.60000000E+01  1.00800000E+00  1.00800000E+00
  0.00000000E+00  1.60000000E+01  1.00800000E+00  1.00800000E+00  0.00000000E+00
  1.60000000E+01  1.00800000E+00  1.00800000E+00  0.00000000E+00  1.60000000E+01
  1.00800000E+00  1.00800000E+00  0.00000000E+00  1.60000000E+01  1.00800000E+00
  1.00800000E+00  0.00000000E+00  1.60000000E+01  1.00800000E+00  1.00800000E+00
  0.00000000E+00  1.60000000E+01  1.00800000E+00  1.00800000E+00  0.00000000E+00
  1.60000000E+01  1.00800000E+00  1.00800000E+00  0.00000000E+00  1.60000000E+01
  1.00800000E+00  1.00800000E+00  0.00000000E+00  1.60000000E+01  1.00800000E+00
  1.00800000E+00  0.00000000E+00  1.60000000E+01  1.00800000E+00  1.00800000E+00
  0.00000000E+00  1.60000000E+01  1.00800000E+00  1.00800000E+00  0.00000000E+00
  1.60000000E+01  1.00800000E+00  1.00800000E+00  0.00000000E+00  1.60000000E+01
  1.00800000E+00  1.00800000E+00  0.00000000E+00  1.60000000E+01  1.00800000E+00
  1.00800000E+00  0.00000000E+00  1.60000000E+01  1.00800000E+00  1.00800000E+00
  0.00000000E+00  1.60000000E+01  1.00800000E+00  1.00800000E+00  0.00000000E+00
  1.60000000E+01  1.00800000E+00  1.00800000E+00  0.00000000E+00  1.60000000E+01
  1.00800000E+00  1.00800000E+00  0.00000000E+00  1.60000000E+01  1.00800000E+00
  1.00800000E+00  0.00000000E+00  1.60000000E+01  1.00800000E+00  1.00800000E+00
  0.00000000E+00  1.60000000E+01  1.00800000E+00  1.00800000E+00  0.00000000E+00
  1.60000000E+01  1.00800000E+00  1.00800000E+00  0.00000000E+00  1.60000000E+01
  1.00800000E+00  1.00800000E+00  0.00000000E+00  1.60000000E+01  1.00800000E+00
  1.00800000E+00  0.00000000E+00  1.60000000E+01  1.00800000E+00  1.00800000E+00
  0.00000000E+00  1.60000000E+01  1.00800000E+00  1.00800000E+00  0.00000000E+00
  1.60000000E+01  1.00800000E+00  1.00800000E+00  0.00000000E+00  1.60000000E+01
  1.00800000E+00  1.00800000E+00  0.00000000E+00  1.60000000E+01  1.00800000E+00
  1.00800000E+00  0.00000000E+00  1.60000000E+01  1.00800000E+00  1.00800000E+00
  0.00000000E+00  1.60000000E+01  1.00800000E+00  1.00800000E+00  0.00000000E+00
  1.60000000E+01  1.00800000E+00  1.00800000E+00  0.00000000E+00  1.60000000E+01
  1.00800000E+00  1.00800000E+00  0.00000000E+00  1.60000000E+01  1.00800000E+00
  1.00800000E+00  0.00000000E+00  1.60000000E+01  1.00800000E+00  1.00800000E+00
  0.00000000E+00  1.60000000E+01  1.00800000E+00  1.00800000E+00  0.00000000E+00
  1.60000000E+01  1.00800000E+00  1.00800000E+00  0.00000000E+00  1.60000000E+01
  1.00800000E+00  1.00800000E+00  0.00000000E+00  1.60000000E+01  1.00800000E+00
  1.00800000E+00  0.00000000E+00  1.60000000E+01  1.00800000E+00  1.00800000E+00
  0.00000000E+00  1.60000000E+01  1.00800000E+00  1.00800000E+00  0.00000000E+00
  1.60000000E+01  1.00800000E+00  1.00800000E+00  0.00000000E+00  1.60000000E+01
  1.00800000E+00  1.00800000E+00  0.00000000E+00  1.60000000E+01  1.00800000E+00
  1.00800000E+00  0.00000000E+00  1.60000000E+01  1.00800000E+00  1.00800000E+00
  0.00000000E+00  1.60000000E+01  1.00800000E+00  1.00800000E+00  0.00000000E+00
  1.60000000E+01  1.00800000E+00  1.00800000E+00  0.00000000E+00  1.60000000E+01
  1.00800000E+00  1.00800000E+00  0.00000000E+00  1.60000000E+01  1.00800000E+00
  1.00800000E+00  0.00000000E+00  1.60000000E+01  1.00800000E+00  1.00800000E+00
  0.00000000E+00  1.60000000E+01  1.00800000E+00  1.00800000E+00  0.00000000E+00
  1.60000000E+01  1.00800000E+00  1.00800000E+00  0.00000000E+00  1.60000000E+01
  1.00800000E+00  1.00800000E+00  0.00000000E+00  1.60000000E+01  1.00800000E+00
  1.00800000E+00  0.00000000E+00  1.60000000E+01  1.00800000E+00  1.00800000E+00
  0.00000000E+00  1.60000000E+01  1.00800000E+00  1.00800000E+00  0.00000000E+00
  1.60000000E+01  1.00800000E+00  1.00800000E+00  0.00000000E+00  1.60000000E+01
  1.00800000E+00  1.00800000E+00  0.00000000E+00  1.60000000E+01  1.00800000E+00
  1.00800000E+00  0.00000000E+00  1.60000000E+01  1.00800000E+00  1.00800000E+00
  0.00000000E+00  1.60000000E+01  1.00800000E+00  1.00800000E+00  0.00000000E+00
  1.60000000E+01  1.00800000E+00  1.00800000E+00  0.00000000E+00  1.60000000E+01
  1.00800000E+00  1.00800000E+00  0.00000000E+00  1.60000000E+01  1.00800000E+00
  1.00800000E+00  0.00000000E+00  1.60000000E+01  1.00800000E+00  1.00800000E+00
  0.00000000E+00  1.60000000E+01  1.00800000E+00  1.00800000E+00  0.00000000E+00
  1.60000000E+01  1.00800000E+00  1.00800000E+00  0.00000000E+00  1.60000000E+01
  1.00800000E+00  1.00800000E+00  0.00000000E+00  1.60000000E+01  1.00800000E+00
  1.00800000E+00  0.00000000E+00  1.60000000E+01  1.00800000E+00  1.00800000E+00
  0.00000000E+00  1.60000000E+01  1.00800000E+00  1.00800000E+00  0.00000000E+00
  1.60000000E+01  1.00800000E+00  1.00800000E+00  0.00000000E+00  1.60000000E+01
  1.00800000E+00  1.00800000E+00  0.00000000E+00  1.60000000E+01  1.00800000E+00
  1.00800000E+00  0.00000000E+00  1.60000000E+01  1.00800000E+00  1.00800000E+00
  0.00000000E+00  1.60000000E+01  1.00800000E+00  1.00800000E+00  0.00000000E+00
  1.60000000E+01  1.00800000E+00  1.00800000E+00  0.00000000E+00  1.60000000E+01
  1.00800000E+00  1.00800000E+00  0.00000000E+00  1.60000000E+01  1.00800000E+00
  1.00800000E+00  0.00000000E+00  1.60000000E+01  1.00800000E+00  1.00800000E+00
  0.00000000E+00  1.60000000E+01  1.00800000E+00  1.00800000E+00  0.00000000E+00
  1.60000000E+01  1.00800000E+00  1.00800000E+00  0.00000000E+00  1.60000000E+01
  1.00800000E+00  1.00800000E+00  0.00000000E+00  1.60000000E+01  1.00800000E+00
  1.00800000E+00  0.00000000E+00  1.60000000E+01  1.00800000E+00  1.00800000E+00
  0.00000000E+00  1.60000000E+01  1.00800000E+00  1.00800000E+00  0.00000000E+00
  1.60000000E+01  1.00800000E+00  1.00800000E+00  0.00000000E+00  1.60000000E+01
  1.00800000E+00  1.00800000E+00  0.00000000E+00  1.60000000E+01  1.00800000E+00
  1.00800000E+00  0.00000000E+00  1.60000000E+01  1.00800000E+00  1.00800000E+00
  0.00000000E+00  1.60000000E+01  1.00800000E+00  1.00800000E+00  0.00000000E+00
  1.60000000E+01  1.00800000E+00  1.00800000E+00  0.00000000E+00
%FLAG ATOM_TYPE_INDEX                                                           
%FORMAT(10I8)                                                                   
       1       2       1       1       3       4       5       6       2       7
       2       1       1       2       1       1       2       1       1       2
       8       8       5       6       6       6       3       4       5       6
       2       7       2       1       1       1       3       4       5       6
       2       7       2       1       1       2       1       1       3       4
       4       3       4       5       6       2       7       7       7       9
      10      10      11       9      10      10      11       9      10      10
      11       9      10      10      11       9      10      10      11       9
      10      10      11       9      10      10      11       9      10      10
      11       9      10      10      11       9      10      10      11       9
      10      10      11       9      10      10      11       9      10      10
      11       9      10      10      11       9      10      10      11       9
      10      10      11       9      10      10      11       9      10      10
      11       9      10      10      11       9      10      10      11       9
      10      10      11       9      10      10      11       9      10      10
      11       9      10      10      11       9      10      10      11       9
      10      10      11       9      10      10      11       9      10      10
      11       9      10      10      11       9      10      10      11       9
      10      10      11       9      10      10      11       9      10      10
      11       9      10      10      11       9      10      10      11       9
      10      10      11       9      10      10      11       9      10      10
      11       9      10      10      11       9      10      10      11       9
      10      10      11       9      10      10      11       9      10      10
      11       9      10      10      11       9      10      10      11       9
      10      10      11       9      10      10      11       9      10      10
      11       9      10      10      11       9      10      10      11       9
      10      10      11       9      10      10      11       9      10      10
      11       9      10      10      11       9      10      10      11       9
      10      10      11       9      10      10      11       9      10      10
      11       9      10      10      11       9      10      10      11       9
      10      10      11       9      10      10      11       9      10      10
      11       9      10      10      11       9      10      10      11       9
      10      10      11       9      10      10      11       9      10      10
      11       9      10      10      11       9      10      10      11       9
      10      10      11       9      10      10      11       9      10      10
      11       9      10      10      11       9      10      10      11       9
      10      10      11       9      10      10      11       9      10      10
      11       9      10      10      11       9      10      10      11       9
      10      10      11       9      10      10      11       9      10      10
      11       9      10      10      11       9      10      10      11       9
      10      10      11       9      10      10      11       9      10      10
      11       9      10      10      11       9      10      10      11       9
      10      10      11       9      10      10      11       9      10      10
      11       9      10      10      11       9      10      10      11       9
      10      10      11       9      10      10      11       9      10      10
      11       9      10      10      11       9      10      10      11       9
      10      10      11       9      10      10      11       9      10      10
      11       9      10      10      11       9      10      10      11       9
      10      10      11       9      10      10      11       9      10      10
      11       9      10      10      11       9      10      10      11       9
      10      10      11       9      10      10      11       9      10      10
      11       9      10      10      11       9      10      10      11       9
      10      10      11       9      10      10      11       9      10      10
      11       9      10      10      11       9      10      10      11       9
      10      10      11       9      10      10      11       9      10      10
      11       9      10      10      11       9      10      10      11       9
      10      10      11       9      10      10      11       9      10      10
      11       9      10      10      11       9      10      10      11       9
      10      10      11       9      10      10      11       9      10      10
      11       9      10      10      11       9      10      10      11       9
      10      10      11       9      10      10      11       9      10      10
      11       9      10      10      11       9      10      10      11       9
      10      10      11       9      10      10      11       9      10      10
      11       9      10      10      11       9      10      10      11       9
      10      10      11       9      10      10      11       9      10      10
      11       9      10      10      11       9      10      10      11       9
      10      10      11       9      10      10      11       9      10      10
      11       9      10      10      11       9      10      10      11       9
      10      10      11       9      10      10      11       9      10      10
      11       9      10      10      11       9      10      10      11       9
      10      10      11       9      10      10      11       9      10      10
      11       9      10      10      11       9      10      10      11       9
      10      10      11       9      10      10      11       9      10      10
      11       9      10      10      11       9      10      10      11       9
      10      10      11       9      10      10      11       9      10      10
      11       9      10      10      11       9      10      10      11       9
      10      10      11       9      10      10      11       9      10      10
      11       9      10      10      11       9      10      10      11       9
      10      10      11       9      10      10      11       9      10      10
      11       9      10      10      11       9      10      10      11       9
      10      10      11       9      10      10      11       9      10      10
      11       9      10      10      11       9      10      10      11       9
      10      10      11       9      10      10      11       9      10      10
      11       9      10      10      11       9      10      10      11       9
      10      10      11       9      10      10      11       9      10      10
      11       9      10      10      11       9      10      10      11       9
      10      10      11       9      10      10      11       9      10      10
      11       9      10      10      11       9      10      10      11       9
      10      10      11       9      10      10      11       9      10      10
      11       9      10      10      11       9      10      10      11       9
      10      10      11       9      10      10      11       9      10      10
      11       9      10      10      11       9      10      10      11       9
      10      10      11       9      10      10      11       9      10      10
      11       9      10      10      11       9      10      10      11       9
      10      10      11       9      10      10      11       9      10      10
      11       9      10      10      11       9      10      10      11       9
      10      10      11       9      10      10      11       9      10      10
      11       9      10      10      11       9      10      10      11       9
      10      10      11       9      10      10      11       9      10      10
      11       9      10      10      11       9      10      10      11       9
      10      10      11       9      10      10      11       9      10      10
      11       9      10      10      11       9      10      10      11       9
      10      10      11       9      10      10      11       9      10      10
      11       9      10      10      11       9      10      10      11       9
      10      10      11       9      10      10      11       9      10      10
      11       9      10      10      11       9      10      10      11       9
      10      10      11       9      10      10      11       9      10      10
      11       9      10      10      11       9      10      10      11       9
      10      10      11       9      10      10      11       9      10      10
      11       9      10      10      11       9      10      10      11       9
      10      10      11       9      10      10      11       9      10      10
      11       9      10      10      11       9      10      10      11       9
      10      10      11       9      10      10      11       9      10      10
      11       9      10      10      11       9      10      10      11       9
      10      10      11       9      10      10      11       9      10      10
      11       9      10      10      11       9      10      10      11       9
      10      10      11       9      10      10      11       9      10      10
      11       9      10      10      11       9      10      10      11       9
      10      10      11       9      10      10      11       9      10      10
      11       9      10      10      11       9      10      10      11       9
      10      10      11       9      10      10      11       9      10      10
      11       9      10      10      11       9      10      10      11       9
      10      10      11       9      10      10      11       9      10      10
      11       9      10      10      11       9      10      10      11       9
      10      10      11       9      10      10      11       9      10      10
      11       9      10      10      11       9      10      10      11       9
      10      10      11       9      10      10      11       9      10      10
      11       9      10      10      11       9      10      10      11       9
      10      10      11       9      10      10      11       9      10      10
      11       9      10      10      11       9      10      10      11       9
      10      10      11       9      10      10      11       9      10      10
      11       9      10      10      11       9      10      10      11       9
      10      10      11       9      10      10      11       9      10      10
      11       9      10      10      11       9      10      10      11       9
      10      10      11       9      10      10      11       9      10      10
      11       9      10      10      11       9      10      10      11       9
      10      10      11       9      10      10      11       9      10      10
      11       9      10      10      11       9      10      10      11       9
      10      10      11       9      10      10      11       9      10      10
      11       9      10      10      11       9      10      10      11       9
      10      10      11       9      10      10      11       9      10      10
      11       9      10      10      11       9      10      10      11       9
      10      10      11       9      10      10      11       9      10      10
      11       9      10      10      11       9      10      10      11       9
      10      10      11       9      10      10      11       9      10      10
      11       9      10      10      11       9      10      10      11       9
      10      10      11       9      10      10      11       9      10      10
      11       9      10      10      11       9      10      10      11       9
      10      10      11       9      10      10      11       9      10      10
      11       9      10      10      11       9      10      10      11       9
      10      10      11       9      10      10      11       9      10      10
      11       9      10      10      11       9      10      10      11       9
      10      10      11       9      10      10      11       9      10      10
      11       9      10      10      11       9      10      10      11       9
      10      10      11       9      10      10      11       9      10      10
      11       9      10      10      11       9      10      10      11       9
      10      10      11       9      10      10      11       9      10      10
      11       9      10      10      11       9      10      10      11       9
      10      10      11       9      10      10      11       9      10      10
      11       9      10      10      11       9      10      10      11       9
      10      10      11       9      10      10      11       9      10      10
      11       9      10      10      11       9      10      10      11       9
      10      10      11       9      10      10      11       9      10      10
      11       9      10      10      11       9      10      10      11       9
      10      10      11       9      10      10      11       9      10      10
      11       9      10      10      11       9      10      10      11       9
      10      10      11       9      10      10      11       9      10      10
      11       9      10      10      11       9      10      10      11       9
      10      10      11       9      10      10      11       9      10      10
      11       9      10      10      11       9      10      10      11       9
      10      10      11       9      10      10      11       9      10      10
      11       9      10      10      11       9      10      10      11       9
      10      10      11       9      10      10      11       9      10      10
      11       9      10      10      11       9      10      10      11       9
      10      10      11       9      10      10      11       9      10      10
      11       9      10      10      11       9      10      10      11       9
      10      10      11       9      10      10      11       9      10      10
      11       9      10      10      11       9      10      10      11       9
      10      10      11       9      10      10      11       9      10      10
      11       9      10      10      11       9      10      10      11       9
      10      10      11       9      10      10      11       9      10      10
      11       9      10      10      11       9      10      10      11       9
      10      10      11       9      10      10      11       9      10      10
      11       9      10      10      11       9      10      10      11       9
      10      10      11       9      10      10      11       9      10      10
      11       9      10      10      11       9      10      10      11       9
      10      10      11       9      10      10      11       9      10      10
      11       9      10      10      11       9      10      10      11       9
      10      10      11       9      10      10      11       9      10      10
      11       9      10      10      11       9      10      10      11       9
      10      10      11       9      10      10      11       9      10      10
      11       9      10      10      11       9      10      10      11       9
      10      10      11       9      10      10      11       9      10      10
      11       9      10      10      11       9      10      10      11       9
      10      10      11       9      10      10      11       9      10      10
      11       9      10      10      11       9      10      10      11       9
      10      10      11       9      10      10      11       9      10      10
      11       9      10      10      11       9      10      10      11       9
      10      10      11       9      10      10      11       9      10      10
      11       9      10      10      11       9      10      10      11       9
      10      10      11       9      10      10      11       9      10      10
      11       9      10      10      11       9      10      10      11       9
      10      10      11       9      10      10      11       9      10      10
      11       9      10      10      11       9      10      10      11       9
      10      10      11       9      10      10      11       9      10      10
      11       9      10      10      11       9      10      10      11       9
      10      10      11       9      10      10      11       9      10      10
      11       9      10      10      11       9      10      10      11       9
      10      10      11       9      10      10      11       9      10      10
      11       9      10      10      11       9      10      10      11       9
      10      10      11       9      10      10      11       9      10      10
      11       9      10      10      11       9      10      10      11       9
      10      10      11       9      10      10      11       9      10      10
      11       9      10      10      11       9      10      10      11       9
      10      10      11       9      10      10      11       9      10      10
      11       9      10      10      11       9      10      10      11       9
      10      10      11       9      10      10      11       9      10      10
      11       9      10      10      11       9      10      10      11       9
      10      10      11       9      10      10      11       9      10      10
      11       9      10      10      11       9      10      10      11       9
      10      10      11       9      10      10      11       9      10      10
      11       9      10      10      11       9      10      10      11       9
      10      10      11       9      10      10      11       9      10      10
      11       9      10      10      11       9      10      10      11       9
      10      10      11       9      10      10      11       9      10      10
      11       9      10      10      11       9      10      10      11       9
      10      10      11       9      10      10      11       9      10      10
      11       9      10      10      11       9      10      10      11       9
      10      10      11       9      10      10      11       9      10      10
      11       9      10      10      11       9      10      10      11       9
      10      10      11       9      10      10      11       9      10      10
      11       9      10      10      11       9      10      10      11       9
      10      10      11       9      10      10      11       9      10      10
      11       9      10      10      11       9      10      10      11       9
      10      10      11       9      10      10      11       9      10      10
      11       9      10      10      11       9      10      10      11       9
      10      10      11       9      10      10      11       9      10      10
      11       9      10      10      11       9      10      10      11       9
      10      10      11       9      10      10      11       9      10      10
      11       9      10      10      11       9      10      10      11       9
      10      10      11       9      10      10      11       9      10      10
      11       9      10      10      11       9      10      10      11       9
      10      10      11       9      10      10      11       9      10      10
      11       9      10      10      11       9      10      10      11       9
      10      10      11       9      10      10      11       9      10      10
      11       9      10      10      11       9      10      10      11       9
      10      10      11       9      10      10      11       9      10      10
      11       9      10      10      11       9      10      10      11       9
      10      10      11       9      10      10      11       9      10      10
      11       9      10      10      11       9      10      10      11       9
      10      10      11       9      10      10      11       9      10      10
      11       9      10      10      11       9      10      10      11       9
      10      10      11       9      10      10      11       9      10      10
      11       9      10      10      11       9      10      10      11       9
      10      10      11       9      10      10      11       9      10      10
      11       9      10      10      11       9      10      10      11       9
      10      10      11       9      10      10      11       9      10      10
      11       9      10      10      11       9      10      10      11       9
      10      10      11       9      10      10      11       9      10      10
      11       9      10      10      11       9      10      10      11       9
      10      10      11       9      10      10      11       9      10      10
      11       9      10      10      11       9      10      10      11       9
      10      10      11       9      10      10      11       9      10      10
      11       9      10      10      11       9      10      10      11       9
      10      10      11       9      10      10      11       9      10      10
      11       9      10      10      11       9      10      10      11       9
      10      10      11       9      10      10      11       9      10      10
      11       9      10      10      11       9      10      10      11       9
      10      10      11       9      10      10      11       9      10      10
      11       9      10      10      11       9      10      10      11       9
      10      10      11       9      10      10      11       9      10      10
      11       9      10      10      11       9      10      10      11       9
      10      10      11       9      10      10      11       9      10      10
      11       9      10      10      11       9      10      10      11       9
      10      10      11       9      10      10      11       9      10      10
      11       9      10      10      11       9      10      10      11       9
      10      10      11       9      10      10      11       9      10      10
      11       9      10      10      11       9      10      10      11       9
      10      10      11       9      10      10      11       9      10      10
      11       9      10      10      11       9      10      10      11       9
      10      10      11       9      10      10      11       9      10      10
      11       9      10      10      11       9      10      10      11       9
      10      10      11       9      10      10      11       9      10      10
      11       9      10      10      11       9      10      10      11       9
      10      10      11       9      10      10      11       9      10      10
      11       9      10      10      11       9      10      10      11       9
      10      10      11       9      10      10      11       9      10      10
      11       9      10      10      11       9      10      10      11       9
      10      10      11       9      10      10      11       9      10      10
      11       9      10      10      11       9      10      10      11       9
      10      10      11       9      10      10      11       9      10      10
      11       9      10      10      11       9      10      10      11       9
      10      10      11       9      10      10      11       9      10      10
      11       9      10      10      11       9      10      10      11       9
      10      10      11       9      10      10      11       9      10      10
      11       9      10      10      11       9      10      10      11       9
      10      10      11       9      10      10      11       9      10      10
      11       9      10      10      11       9      10      10      11       9
      10      10      11       9      10      10      11       9      10      10
      11       9      10      10      11       9      10      10      11       9
      10      10      11       9      10      10      11       9      10      10
      11       9      10      10      11       9      10      10      11       9
      10      10      11       9      10      10      11       9      10      10
      11       9      10      10      11       9      10      10      11       9
      10      10      11       9      10      10      11       9      10      10
      11       9      10      10      11       9      10      10      11       9
      10      10      11       9      10      10      11       9      10      10
      11       9      10      10      11       9      10      10      11       9
      10      10      11       9      10      10      11       9      10      10
      11       9      10      10      11       9      10      10      11       9
      10      10      11       9      10      10      11       9      10      10
      11       9      10      10      11       9      10      10      11       9
      10      10      11       9      10      10      11       9      10      10
      11       9      10      10      11       9      10      10      11       9
      10      10      11       9      10      10      11       9      10      10
      11       9      10      10      11       9      10      10      11       9
      10      10      11       9      10      10      11       9      10      10
      11       9      10      10      11       9      10      10      11       9
      10      10      11       9      10      10      11       9      10      10
      11       9      10      10      11       9      10      10      11       9
      10      10      11       9      10      10      11       9      10      10
      11       9      10      10      11       9      10      10      11       9
      10      10      11       9      10      10      11       9      10      10
      11       9      10      10      11       9      10      10      11       9
      10      10      11       9      10      10      11       9      10      10
      11       9      10      10      11       9      10      10      11       9
      10      10      11       9      10      10      11       9      10      10
      11       9      10      10      11       9      10      10      11       9
      10      10      11       9      10      10      11       9      10      10
      11       9      10      10      11       9      10      10      11       9
      10      10      11       9      10      10      11       9      10      10
      11       9      10      10      11       9      10      10      11       9
      10      10      11       9      10      10      11       9      10      10
      11       9      10      10      11       9      10      10      11       9
      10      10      11       9      10      10      11       9      10      10
      11       9      10      10      11       9      10      10      11       9
      10      10      11       9      10      10      11       9      10      10
      11       9      10      10      11       9      10      10      11       9
      10      10      11       9      10      10      11       9      10      10
      11       9      10      10      11       9      10      10      11       9
      10      10      11       9      10      10      11       9      10      10
      11       9      10      10      11       9      10      10      11       9
      10      10      11       9      10      10      11       9      10      10
      11       9      10      10      11       9      10      10      11       9
      10      10      11       9      10      10      11       9      10      10
      11       9      10      10      11       9      10      10      11       9
      10      10      11       9      10      10      11       9      10      10
      11       9      10      10      11       9      10      10      11       9
      10      10      11       9      10      10      11       9      10      10
      11       9      10      10      11       9      10      10      11       9
      10      10      11       9      10      10      11       9      10      10
      11       9      10      10      11       9      10      10      11       9
      10      10      11       9      10      10      11       9      10      10
      11       9      10      10      11       9      10      10      11       9
      10      10      11       9      10      10      11       9      10      10
      11       9      10      10      11       9      10      10      11       9
      10      10      11       9      10      10      11       9      10      10
      11       9      10      10      11       9      10      10      11       9
      10      10      11       9      10      10      11       9      10      10
      11       9      10      10      11       9      10      10      11       9
      10      10      11       9      10      10      11       9      10      10
      11       9      10      10      11       9      10      10      11       9
      10      10      11       9      10      10      11       9      10      10
      11       9      10      10      11       9      10      10      11       9
      10      10      11       9      10      10      11       9      10      10
      11       9      10      10      11       9      10      10      11       9
      10      10      11       9      10      10      11       9      10      10
      11       9      10      10      11       9      10      10      11       9
      10      10      11       9      10      10      11       9      10      10
      11       9      10      10      11       9      10      10      11       9
      10      10      11       9      10      10      11       9      10      10
      11       9      10      10      11       9      10      10      11       9
      10      10      11       9      10      10      11       9      10      10
      11       9      10      10      11       9      10      10      11       9
      10      10      11       9      10      10      11       9      10      10
      11       9      10      10      11       9      10      10      11       9
      10      10      11       9      10      10      11       9      10      10
      11       9      10      10      11       9      10      10      11       9
      10      10      11       9      10      10      11       9      10      10
      11       9      10      10      11       9      10      10      11       9
      10      10      11       9      10      10      11       9      10      10
      11       9      10      10      11       9      10      10      11       9
      10      10      11       9      10      10      11       9      10      10
      11       9      10      10      11       9      10      10      11       9
      10      10      11       9      10      10      11       9      10      10
      11       9      10      10      11       9      10      10      11       9
      10      10      11       9      10      10      11       9      10      10
      11       9      10      10      11       9      10      10      11       9
      10      10      11       9      10      10      11       9      10      10
      11       9      10      10      11       9      10      10      11       9
      10      10      11       9      10      10      11       9      10      10
      11       9      10      10      11       9      10      10      11       9
      10      10      11       9      10      10      11       9      10      10
      11       9      10      10      11       9      10      10      11       9
      10      10      11       9      10      10      11       9      10      10
      11       9      10      10      11       9      10      10      11       9
      10      10      11       9      10      10      11       9      10      10
      11       9      10      10      11       9      10      10      11       9
      10      10      11       9      10      10      11       9      10      10
      11       9      10      10      11       9      10      10      11       9
      10      10      11       9      10      10      11       9      10      10
      11       9      10      10      11       9      10      10      11       9
      10      10      11       9      10      10      11       9      10      10
      11       9      10      10      11       9      10      10      11       9
      10      10      11       9      10      10      11       9      10      10
      11       9      10      10      11       9      10      10      11       9
      10      10      11       9      10      10      11       9      10      10
      11       9      10      10      11       9      10      10      11       9
      10      10      11       9      10      10      11       9      10      10
      11       9      10      10      11       9      10      10      11       9
      10      10      11       9      10      10      11       9      10      10
      11       9      10      10      11       9      10      10      11       9
      10      10      11       9      10      10      11       9      10      10
      11       9      10      10      11       9      10      10      11       9
      10      10      11       9      10      10      11       9      10      10
      11       9      10      10      11       9      10      10      11       9
      10      10      11       9      10      10      11       9      10      10
      11       9      10      10      11       9      10      10      11       9
      10      10      11       9      10      10      11       9      10      10
      11       9      10      10      11       9      10      10      11       9
      10      10      11       9      10      10      11       9      10      10
      11       9      10      10      11       9      10      10      11       9
      10      10      11       9      10      10      11       9      10      10
      11       9      10      10      11       9      10      10      11       9
      10      10      11       9      10      10      11       9      10      10
      11       9      10      10      11       9      10      10      11       9
      10      10      11       9      10      10      11       9      10      10
      11       9      10      10      11       9      10      10      11       9
      10      10      11       9      10      10      11       9      10      10
      11       9      10      10      11       9      10      10      11       9
      10      10      11       9      10      10      11       9      10      10
      11       9      10      10      11       9      10      10      11       9
      10      10      11       9      10      10      11       9      10      10
      11       9      10      10      11       9      10      10      11       9
      10      10      11       9      10      10      11       9      10      10
      11       9      10      10      11       9      10      10      11       9
      10      10      11       9      10      10      11       9      10      10
      11       9      10      10      11       9      10      10      11       9
      10      10      11       9      10      10      11       9      10      10
      11       9      10      10      11       9      10      10      11       9
      10      10      11       9      10      10      11       9      10      10
      11       9      10      10      11       9      10      10      11       9
      10      10      11       9      10      10      11       9      10      10
      11       9      10      10      11       9      10      10      11       9
      10      10      11       9      10      10      11       9      10      10
      11       9      10      10      11       9      10      10      11       9
      10      10      11       9      10      10      11       9      10      10
      11       9      10      10      11       9      10      10      11       9
      10      10      11       9      10      10      11       9      10      10
      11       9      10      10      11       9      10      10      11       9
      10      10      11       9      10      10      11       9      10      10
      11       9      10      10      11       9      10      10      11       9
      10      10      11       9      10      10      11       9      10      10
      11       9      10      10      11       9      10      10      11       9
      10      10      11       9      10      10      11       9      10      10
      11       9      10      10      11       9      10      10      11       9
      10      10      11       9      10      10      11       9      10      10
      11       9      10      10      11       9      10      10      11       9
      10      10      11       9      10      10      11       9      10      10
      11       9      10      10      11       9      10      10      11       9
      10      10      11       9      10      10      11       9      10      10
      11       9      10      10      11       9      10      10      11       9
      10      10      11       9      10      10      11       9      10      10
      11       9      10      10      11       9      10      10      11       9
      10      10      11       9      10      10      11       9      10      10
      11       9      10      10      11       9      10      10      11       9
      10      10      11       9      10      10      11       9      10      10
      11       9      10      10      11       9      10      10      11       9
      10      10      11       9      10      10      11       9      10      10
      11       9      10      10      11       9      10      10      11       9
      10      10      11       9      10      10      11       9      10      10
      11       9      10      10      11       9      10      10      11       9
      10      10      11       9      10      10      11       9      10      10
      11       9      10      10      11       9      10      10      11       9
      10      10      11       9      10      10      11       9      10      10
      11       9      10      10      11       9      10      10      11       9
      10      10      11       9      10      10      11       9      10      10
      11       9      10      10      11       9      10      10      11       9
      10      10      11       9      10      10      11       9      10      10
      11       9      10      10      11       9      10      10      11       9
      10      10      11       9      10      10      11       9      10      10
      11       9      10      10      11       9      10      10      11       9
      10      10      11       9      10      10      11       9      10      10
      11       9      10      10      11       9      10      10      11       9
      10      10      11       9      10      10      11       9      10      10
      11       9      10      10      11       9      10      10      11       9
      10      10      11       9      10      10      11       9      10      10
      11       9      10      10      11       9      10      10      11       9
      10      10      11       9      10      10      11       9      10      10
      11       9      10      10      11       9      10      10      11       9
      10      10      11       9      10      10      11       9      10      10
      11       9      10      10      11       9      10      10      11       9
      10      10      11       9      10      10      11       9      10      10
      11       9      10      10      11       9      10      10      11       9
      10      10      11       9      10      10      11       9      10      10
      11       9      10      10      11       9      10      10      11       9
      10      10      11       9      10      10      11       9      10      10
      11       9      10      10      11       9      10      10      11       9
      10      10      11       9      10      10      11       9      10      10
      11       9      10      10      11       9      10      10      11       9
      10      10      11       9      10      10      11       9      10      10
      11       9      10      10      11       9      10      10      11       9
      10      10      11       9      10      10      11       9      10      10
      11       9      10      10      11       9      10      10      11       9
      10      10      11       9      10      10      11       9      10      10
      11       9      10      10      11       9      10      10      11       9
      10      10      11       9      10      10      11       9      10      10
      11       9      10      10      11       9      10      10      11       9
      10      10      11       9      10      10      11       9      10      10
      11       9      10      10      11       9      10      10      11       9
      10      10      11       9      10      10      11       9      10      10
      11       9      10      10      11       9      10      10      11       9
      10      10      11       9      10      10      11       9      10      10
      11       9      10      10      11       9      10      10      11       9
      10      10      11       9      10      10      11       9      10      10
      11       9      10      10      11       9      10      10      11       9
      10      10      11       9      10      10      11       9      10      10
      11       9      10      10      11       9      10      10      11       9
      10      10      11       9      10      10      11       9      10      10
      11       9      10      10      11       9      10      10      11       9
      10      10      11       9      10      10      11       9      10      10
      11       9      10      10      11       9      10      10      11       9
      10      10      11       9      10      10      11       9      10      10
      11       9      10      10      11       9      10      10      11       9
      10      10      11       9      10      10      11       9      10      10
      11       9      10      10      11       9      10      10      11       9
      10      10      11       9      10      10      11       9      10      10
      11       9      10      10      11       9      10      10      11       9
      10      10      11       9      10      10      11       9      10      10
      11       9      10      10      11       9      10      10      11       9
      10      10      11       9      10      10      11       9      10      10
      11       9      10      10      11       9      10      10      11       9
      10      10      11       9      10      10      11       9      10      10
      11       9      10      10      11       9      10      10      11       9
      10      10      11       9      10      10      11       9      10      10
      11       9      10      10      11       9      10      10      11       9
      10      10      11       9      10      10      11       9      10      10
      11       9      10      10      11       9      10      10      11       9
      10      10      11       9      10      10      11       9      10      10
      11       9      10      10      11       9      10      10      11       9
      10      10      11       9      10      10      11       9      10      10
      11       9      10      10      11       9      10      10      11       9
      10      10      11       9      10      10      11       9      10      10
      11       9      10      10      11       9      10      10      11       9
      10      10      11       9      10      10      11       9      10      10
      11       9      10      10      11       9      10      10      11       9
      10      10      11       9      10      10      11       9      10      10
      11       9      10      10      11       9      10      10      11       9
      10      10      11       9      10      10      11       9      10      10
      11       9      10      10      11       9      10      10      11       9
      10      10      11       9      10      10      11       9      10      10
      11       9      10      10      11       9      10      10      11       9
      10      10      11       9      10      10      11       9      10      10
      11       9      10      10      11       9      10      10      11       9
      10      10      11       9      10      10      11       9      10      10
      11       9      10      10      11       9      10      10      11       9
      10      10      11       9      10      10      11       9      10      10
      11       9      10      10      11       9      10      10      11       9
      10      10      11       9      10      10      11       9      10      10
      11       9      10      10      11       9      10      10      11       9
      10      10      11       9      10      10      11       9      10      10
      11       9      10      10      11       9      10      10      11       9
      10      10      11       9      10      10      11       9      10      10
      11       9      10      10      11       9      10      10      11       9
      10      10      11       9      10      10      11       9      10      10
      11       9      10      10      11       9      10      10      11       9
      10      10      11       9      10      10      11       9      10      10
      11       9      10      10      11       9      10      10      11       9
      10      10      11       9      10      10      11       9      10      10
      11       9      10      10      11       9      10      10      11       9
      10      10      11       9      10      10      11       9      10      10
      11       9      10      10      11       9      10      10      11       9
      10      10      11       9      10      10      11       9      10      10
      11       9      10      10      11       9      10      10      11       9
      10      10      11       9      10      10      11       9      10      10
      11       9      10      10      11       9      10      10      11       9
      10      10      11       9      10      10      11       9      10      10
      11       9      10      10      11       9      10      10      11       9
      10      10      11       9      10      10      11       9      10      10
      11       9      10      10      11       9      10      10      11       9
      10      10      11       9      10      10      11       9      10      10
      11       9      10      10      11       9      10      10      11       9
      10      10      11       9      10      10      11       9      10      10
      11       9      10      10      11       9      10      10      11       9
      10      10      11       9      10      10      11       9      10      10
      11       9      10      10      11       9      10      10      11       9
      10      10      11       9      10      10      11       9      10      10
      11       9      10      10      11       9      10      10      11       9
      10      10      11       9      10      10      11       9      10      10
      11       9      10      10      11       9      10      10      11       9
      10      10      11       9      10      10      11       9      10      10
      11       9      10      10      11       9      10      10      11       9
      10      10      11       9      10      10      11       9      10      10
      11       9      10      10      11       9      10      10      11       9
      10      10      11       9      10      10      11       9      10      10
      11       9      10      10      11       9      10      10      11       9
      10      10      11       9      10      10      11       9      10      10
      11       9      10      10      11       9      10      10      11       9
      10      10      11       9      10      10      11       9      10      10
      11       9      10      10      11       9      10      10      11       9
      10      10      11       9      10      10      11       9      10      10
      11       9      10      10      11       9      10      10      11       9
      10      10      11       9      10      10      11       9      10      10
      11       9      10      10      11       9      10      10      11       9
      10      10      11       9      10      10      11       9      10      10
      11       9      10      10      11       9      10      10      11       9
      10      10      11       9      10      10      11       9      10      10
      11       9      10      10      11       9      10      10      11       9
      10      10      11       9      10      10      11       9      10      10
      11       9      10      10      11       9      10      10      11       9
      10      10      11       9      10      10      11       9      10      10
      11       9      10      10      11       9      10      10      11       9
      10      10      11       9      10      10      11       9      10      10
      11       9      10      10      11       9      10      10      11       9
      10      10      11       9      10      10      11       9      10      10
      11       9      10      10      11       9      10      10      11       9
      10      10      11       9      10      10      11       9      10      10
      11       9      10      10      11       9      10      10      11       9
      10      10      11       9      10      10      11       9      10      10
      11       9      10      10      11       9      10      10      11       9
      10      10      11       9      10      10      11       9      10      10
      11       9      10      10      11       9      10      10      11       9
      10      10      11       9      10      10      11       9      10      10
      11       9      10      10      11       9      10      10      11       9
      10      10      11       9      10      10      11       9      10      10
      11       9      10      10      11       9      10      10      11       9
      10      10      11       9      10      10      11       9      10      10
      11       9      10      10      11       9      10      10      11       9
      10      10      11       9      10      10      11       9      10      10
      11       9      10      10      11       9      10      10      11       9
      10      10      11       9      10      10      11       9      10      10
      11       9      10      10      11       9      10      10      11       9
      10      10      11       9      10      10      11       9      10      10
      11       9      10      10      11       9      10      10      11       9
      10      10      11       9      10      10      11       9      10      10
      11       9      10      10      11       9      10      10      11       9
      10      10      11       9      10      10      11       9      10      10
      11       9      10      10      11       9      10      10      11       9
      10      10      11       9      10      10      11       9      10      10
      11       9      10      10      11       9      10      10      11       9
      10      10      11       9      10      10      11       9      10      10
      11       9      10      10      11       9      10      10      11       9
      10      10      11       9      10      10      11       9      10      10
      11       9      10      10      11       9      10      10      11       9
      10      10      11       9      10      10      11       9      10      10
      11       9      10      10      11       9      10      10      11       9
      10      10      11       9      10      10      11       9      10      10
      11       9      10      10      11       9      10      10      11       9
      10      10      11       9      10      10      11       9      10      10
      11       9      10      10      11       9      10      10      11       9
      10      10      11       9      10      10      11       9      10      10
      11       9      10      10      11       9      10      10      11       9
      10      10      11       9      10      10      11       9      10      10
      11       9      10      10      11       9      10      10      11       9
      10      10      11       9      10      10      11       9      10      10
      11       9      10      10      11       9      10      10      11       9
      10      10      11       9      10      10      11       9      10      10
      11       9      10      10      11       9      10      10      11       9
      10      10      11       9      10      10      11       9      10      10
      11       9      10      10      11       9      10      10      11       9
      10      10      11       9      10      10      11       9      10      10
      11       9      10      10      11       9      10      10      11       9
      10      10      11       9      10      10      11       9      10      10
      11       9      10      10      11       9      10      10      11       9
      10      10      11       9      10      10      11       9      10      10
      11       9      10      10      11       9      10      10      11       9
      10      10      11       9      10      10      11       9      10      10
      11       9      10      10      11       9      10      10      11       9
      10      10      11       9      10      10      11       9      10      10
      11       9      10      10      11       9      10      10      11       9
      10      10      11       9      10      10      11       9      10      10
      11       9      10      10      11       9      10      10      11       9
      10      10      11       9      10      10      11       9      10      10
      11       9      10      10      11       9      10      10      11       9
      10      10      11       9      10      10      11       9      10      10
      11       9      10      10      11       9      10      10      11       9
      10      10      11       9      10      10      11       9      10      10
      11       9      10      10      11       9      10      10      11
%FLAG NUMBER_EXCLUDED_ATOMS                                                     
%FORMAT(10I8)                                                                   
       6       7       4       3       7       3      10       4      13       7
      12       6       5      10       5       4       9       5       4       6
       5       4       3       2       1       1       7       3      10       4
      10       7       6       3       2       1       7       3      10       4
      13       7      11       6       5       6       4       3       2       1
       1       7       3       5       4       3       2       1       1       3
       2       1       1       3       2       1       1       3       2       1
       1       3       2       1       1       3       2       1       1       3
       2       1       1       3       2       1       1       3       2       1
       1       3       2       1       1       3       2       1       1       3
       2       1       1       3       2       1       1       3       2       1
       1       3       2       1       1       3       2       1       1       3
       2       1       1       3       2       1       1       3       2       1
       1       3       2       1       1       3       2       1       1       3
       2       1       1       3       2       1       1       3       2       1
       1       3       2       1       1       3       2       1       1       3
       2       1       1       3       2       1       1       3       2       1
       1       3       2       1       1       3       2       1       1       3
       2       1       1       3       2       1       1       3       2       1
       1       3       2       1       1       3       2       1       1       3
       2       1       1       3       2       1       1       3       2       1
       1       3       2       1       1       3       2       1       1       3
       2       1       1       3       2       1       1       3       2       1
       1       3       2       1       1       3       2       1       1       3
       2       1       1       3       2       1       1       3       2       1
       1       3       2       1       1       3       2       1       1       3
       2       1       1       3       2       1       1       3       2       1
       1       3       2       1       1       3       2       1       1       3
       2       1       1       3       2       1       1       3       2       1
       1       3       2       1       1       3       2       1       1       3
       2       1       1       3       2       1       1       3       2       1
       1       3       2       1       1       3       2       1       1       3
       2       1       1       3       2       1       1       3       2       1
       1       3       2       1       1       3       2       1       1       3
       2       1       1       3       2       1       1       3       2       1
       1       3       2       1       1       3       2       1       1       3
       2       1       1       3       2       1       1       3       2       1
       1       3       2       1       1       3       2       1       1       3
       2       1       1       3       2       1       1       3       2       1
       1       3       2       1       1       3       2       1       1       3
       2       1       1       3       2       1       1       3       2       1
       1       3       2       1       1       3       2       1       1       3
       2       1       1       3       2       1       1       3       2       1
       1       3       2       1       1       3       2       1       1       3
       2       1       1       3       2       1       1       3       2       1
       1       3       2       1       1       3       2       1       1       3
       2       1       1       3       2       1       1       3       2       1
       1       3       2       1       1       3       2       1       1       3
       2       1       1       3       2       1       1       3       2       1
       1       3       2       1       1       3       2       1       1       3
       2       1       1       3       2       1       1       3       2       1
       1       3       2       1       1       3       2       1       1       3
       2       1       1       3       2       1       1       3       2       1
       1       3       2       1       1       3       2       1       1       3
       2       1       1       3       2       1       1       3       2       1
       1       3       2       1       1       3       2       1       1       3
       2       1       1       3       2       1       1       3       2       1
       1       3       2       1       1       3       2       1       1       3
       2       1       1       3       2       1       1       3       2       1
       1       3       2       1       1       3       2       1       1       3
       2       1       1       3       2       1       1       3       2       1
       1       3       2       1       1       3       2       1       1       3
       2       1       1       3       2       1       1       3       2       1
       1       3       2       1       1       3       2       1       1       3
       2       1       1       3       2       1       1       3       2       1
       1       3       2       1       1       3       2       1       1       3
       2       1       1       3       2       1       1       3       2       1
       1       3       2       1       1       3       2       1       1       3
       2       1       1       3       2       1       1       3       2       1
       1       3       2       1       1       3       2       1       1       3
       2       1       1       3       2       1       1       3       2       1
       1       3       2       1       1       3       2       1       1       3
       2       1       1       3       2       1       1       3       2       1
       1       3       2       1       1       3       2       1       1       3
       2       1       1       3       2       1       1       3       2       1
       1       3       2       1       1       3       2       1       1       3
       2       1       1       3       2       1       1       3       2       1
       1       3       2       1       1       3       2       1       1       3
       2       1       1       3       2       1       1       3       2       1
       1       3       2       1       1       3       2       1       1       3
       2       1       1       3       2       1       1       3       2       1
       1       3       2       1       1       3       2       1       1       3
       2       1       1       3       2       1       1       3       2       1
       1       3       2       1       1       3       2       1       1       3
       2       1       1       3       2       1       1       3       2       1
       1       3       2       1       1       3       2       1       1       3
       2       1       1       3       2       1       1       3       2       1
       1       3       2       1       1       3       2       1       1       3
       2       1       1       3       2       1       1       3       2       1
       1       3       2       1       1       3       2       1       1       3
       2       1       1       3       2       1       1       3       2       1
       1       3       2       1       1       3       2       1       1       3
       2       1       1       3       2       1       1       3       2       1
       1       3       2       1       1       3       2       1       1       3
       2       1       1       3       2       1       1       3       2       1
       1       3       2       1       1       3       2       1       1       3
       2       1       1       3       2       1       1       3       2       1
       1       3       2       1       1       3       2       1       1       3
       2       1       1       3       2       1       1       3       2       1
       1       3       2       1       1       3       2       1       1       3
       2       1       1       3       2       1       1       3       2       1
       1       3       2       1       1       3       2       1       1       3
       2       1       1       3       2       1       1       3       2       1
       1       3       2       1       1       3       2       1       1       3
       2       1       1       3       2       1       1       3       2       1
       1       3       2       1       1       3       2       1       1       3
       2       1       1       3       2       1       1       3       2       1
       1       3       2       1       1       3       2       1       1       3
       2       1       1       3       2       1       1       3       2       1
       1       3       2       1       1       3       2       1       1       3
       2       1       1       3       2       1       1       3       2       1
       1       3       2       1       1       3       2       1       1       3
       2       1       1       3       2       1       1       3       2       1
       1       3       2       1       1       3       2       1       1       3
       2       1       1       3       2       1       1       3       2       1
       1       3       2       1       1       3       2       1       1       3
       2       1       1       3       2       1       1       3       2       1
       1       3       2       1       1       3       2       1       1       3
       2       1       1       3       2       1       1       3       2       1
       1       3       2       1       1       3       2       1       1       3
       2       1       1       3       2       1       1       3       2       1
       1       3       2       1       1       3       2       1       1       3
       2       1       1       3       2       1       1       3       2       1
       1       3       2       1       1       3       2       1       1       3
       2       1       1       3       2       1       1       3       2       1
       1       3       2       1       1       3       2       1       1       3
       2       1       1       3       2       1       1       3       2       1
       1       3       2       1       1       3       2       1       1       3
       2       1       1       3       2       1       1       3       2       1
       1       3       2       1       1       3       2       1       1       3
       2       1       1       3       2       1       1       3       2       1
       1       3       2       1       1       3       2       1       1       3
       2       1       1       3       2       1       1       3       2       1
       1       3       2       1       1       3       2       1       1       3
       2       1       1       3       2       1       1       3       2       1
       1       3       2       1       1       3       2       1       1       3
       2       1       1       3       2       1       1       3       2       1
       1       3       2       1       1       3       2       1       1       3
       2       1       1       3       2       1       1       3       2       1
       1       3       2       1       1       3       2       1       1       3
       2       1       1       3       2       1       1       3       2       1
       1       3       2       1       1       3       2       1       1       3
       2       1       1       3       2       1       1       3       2       1
       1       3       2       1       1       3       2       1       1       3
       2       1       1       3       2       1       1       3       2       1
       1       3       2       1       1       3       2       1       1       3
       2       1       1       3       2       1       1       3       2       1
       1       3       2       1       1       3       2       1       1       3
       2       1       1       3       2       1       1       3       2       1
       1       3       2       1       1       3       2       1       1       3
       2       1       1       3       2       1       1       3       2       1
       1       3       2       1       1       3       2       1       1       3
       2       1       1       3       2       1       1       3       2       1
       1       3       2       1       1       3       2       1       1       3
       2       1       1       3       2       1       1       3       2       1
       1       3       2       1       1       3       2       1       1       3
       2       1       1       3       2       1       1       3       2       1
       1       3       2       1       1       3       2       1       1       3
       2       1       1       3       2       1       1       3       2       1
       1       3       2       1       1       3       2       1       1       3
       2       1       1       3       2       1       1       3       2       1
       1       3       2       1       1       3       2       1       1       3
       2       1       1       3       2       1       1       3       2       1
       1       3       2       1       1       3       2       1       1       3
       2       1       1       3       2       1       1       3       2       1
       1       3       2       1       1       3       2       1       1       3
       2       1       1       3       2       1       1       3       2       1
       1       3       2       1       1       3       2       1       1       3
       2       1       1       3       2       1       1       3       2       1
       1       3       2       1       1       3       2       1       1       3
       2       1       1       3       2       1       1       3       2       1
       1       3       2       1       1       3       2       1       1       3
       2       1       1       3       2       1       1       3       2       1
       1       3       2       1       1       3       2       1       1       3
       2       1       1       3       2       1       1       3       2       1
       1       3       2       1       1       3       2       1       1       3
       2       1       1       3       2       1       1       3       2       1
       1       3       2       1       1       3       2       1       1       3
       2       1       1       3       2       1       1       3       2       1
       1       3       2       1       1       3       2       1       1       3
       2       1       1       3       2       1       1       3       2       1
       1       3       2       1       1       3       2       1       1       3
       2       1       1       3       2       1       1       3       2       1
       1       3       2       1       1       3       2       1       1       3
       2       1       1       3       2       1       1       3       2       1
       1       3       2       1       1       3       2       1       1       3
       2       1       1       3       2       1       1       3       2       1
       1       3       2       1       1       3       2       1       1       3
       2       1       1       3       2       1       1       3       2       1
       1       3       2       1       1       3       2       1       1       3
       2       1       1       3       2       1       1       3       2       1
       1       3       2       1       1       3       2       1       1       3
       2       1       1       3       2       1       1       3       2       1
       1       3       2       1       1       3       2       1       1       3
       2       1       1       3       2       1       1       3       2       1
       1       3       2       1       1       3       2       1       1       3
       2       1       1       3       2       1       1       3       2       1
       1       3       2       1       1       3       2       1       1       3
       2       1       1       3       2       1       1       3       2       1
       1       3       2       1       1       3       2       1       1       3
       2       1       1       3       2       1       1       3       2       1
       1       3       2       1       1       3       2       1       1       3
       2       1       1       3       2       1       1       3       2       1
       1       3       2       1       1       3       2       1       1       3
       2       1       1       3       2       1       1       3       2       1
       1       3       2       1       1       3       2       1       1       3
       2       1       1       3       2       1       1       3       2       1
       1       3       2       1       1       3       2       1       1       3
       2       1       1       3       2       1       1       3       2       1
       1       3       2       1       1       3       2       1       1       3
       2       1       1       3       2       1       1       3       2       1
       1       3       2       1       1       3       2       1       1       3
       2       1       1       3       2       1       1       3       2       1
       1       3       2       1       1       3       2       1       1       3
       2       1       1       3       2       1       1       3       2       1
       1       3       2       1       1       3       2       1       1       3
       2       1       1       3       2       1       1       3       2       1
       1       3       2       1       1       3       2       1       1       3
       2       1       1       3       2       1       1       3       2       1
       1       3       2       1       1       3       2       1       1       3
       2       1       1       3       2       1       1       3       2       1
       1       3       2       1       1       3       2       1       1       3
       2       1       1       3       2       1       1       3       2       1
       1       3       2       1       1       3       2       1       1       3
       2       1       1       3       2       1       1       3       2       1
       1       3       2       1       1       3       2       1       1       3
       2       1       1       3       2       1       1       3       2       1
       1       3       2       1       1       3       2       1       1       3
       2       1       1       3       2       1       1       3       2       1
       1       3       2       1       1       3       2       1       1       3
       2       1       1       3       2       1       1       3       2       1
       1       3       2       1       1       3       2       1       1       3
       2       1       1       3       2       1       1       3       2       1
       1       3       2       1       1       3       2       1       1       3
       2       1       1       3       2       1       1       3       2       1
       1       3       2       1       1       3       2       1       1       3
       2       1       1       3       2       1       1       3       2       1
       1       3       2       1       1       3       2       1       1       3
       2       1       1       3       2       1       1       3       2       1
       1       3       2       1       1       3       2       1       1       3
       2       1       1       3       2       1       1       3       2       1
       1       3       2       1       1       3       2       1       1       3
       2       1       1       3       2       1       1       3       2       1
       1       3       2       1       1       3       2       1       1       3
       2       1       1       3       2       1       1       3       2       1
       1       3       2       1       1       3       2       1       1       3
       2       1       1       3       2       1       1       3       2       1
       1       3       2       1       1       3       2       1       1       3
       2       1       1       3       2       1       1       3       2       1
       1       3       2       1       1       3       2       1       1       3
       2       1       1       3       2       1       1       3       2       1
       1       3       2       1       1       3       2       1       1       3
       2       1       1       3       2       1       1       3       2       1
       1       3       2       1       1       3       2       1       1       3
       2       1       1       3       2       1       1       3       2       1
       1       3       2       1       1       3       2       1       1       3
       2       1       1       3       2       1       1       3       2       1
       1       3       2       1       1       3       2       1       1       3
       2       1       1       3       2       1       1       3       2       1
       1       3       2       1       1       3       2       1       1       3
       2       1       1       3       2       1       1       3       2       1
       1       3       2       1       1       3       2       1       1       3
       2       1       1       3       2       1       1       3       2       1
       1       3       2       1       1       3       2       1       1       3
       2       1       1       3       2       1       1       3       2       1
       1       3       2       1       1       3       2       1       1       3
       2       1       1       3       2       1       1       3       2       1
       1       3       2       1       1       3       2       1       1       3
       2       1       1       3       2       1       1       3       2       1
       1       3       2       1       1       3       2       1       1       3
       2       1       1       3       2       1       1       3       2       1
       1       3       2       1       1       3       2       1       1       3
       2       1       1       3       2       1       1       3       2       1
       1       3       2       1       1       3       2       1       1       3
       2       1       1       3       2       1       1       3       2       1
       1       3       2       1       1       3       2       1       1       3
       2       1       1       3       2       1       1       3       2       1
       1       3       2       1       1       3       2       1       1       3
       2       1       1       3       2       1       1       3       2       1
       1       3       2       1       1       3       2       1       1       3
       2       1       1       3       2       1       1       3       2       1
       1       3       2       1       1       3       2       1       1       3
       2       1       1       3       2       1       1       3       2       1
       1       3       2       1       1       3       2       1       1       3
       2       1       1       3       2       1       1       3       2       1
       1       3       2       1       1       3       2       1       1       3
       2       1       1       3       2       1       1       3       2       1
       1       3       2       1       1       3       2       1       1       3
       2       1       1       3       2       1       1       3       2       1
       1       3       2       1       1       3       2       1       1       3
       2       1       1       3       2       1       1       3       2       1
       1       3       2       1       1       3       2       1       1       3
       2       1       1       3       2       1       1       3       2       1
       1       3       2       1       1       3       2       1       1       3
       2       1       1       3       2       1       1       3       2       1
       1       3       2       1       1       3       2       1       1       3
       2       1       1       3       2       1       1       3       2       1
       1       3       2       1       1       3       2       1       1       3
       2       1       1       3       2       1       1       3       2       1
       1       3       2       1       1       3       2       1       1       3
       2       1       1       3       2       1       1       3       2       1
       1       3       2       1       1       3       2       1       1       3
       2       1       1       3       2       1       1       3       2       1
       1       3       2       1       1       3       2       1       1       3
       2       1       1       3       2       1       1       3       2       1
       1       3       2       1       1       3       2       1       1       3
       2       1       1       3       2       1       1       3       2       1
       1       3       2       1       1       3       2       1       1       3
       2       1       1       3       2       1       1       3       2       1
       1       3       2       1       1       3       2       1       1       3
       2       1       1       3       2       1       1       3       2       1
       1       3       2       1       1       3       2       1       1       3
       2       1       1       3       2       1       1       3       2       1
       1       3       2       1       1       3       2       1       1       3
       2       1       1       3       2       1       1       3       2       1
       1       3       2       1       1       3       2       1       1       3
       2       1       1       3       2       1       1       3       2       1
       1       3       2       1       1       3       2       1       1       3
       2       1       1       3       2       1       1       3       2       1
       1       3       2       1       1       3       2       1       1       3
       2       1       1       3       2       1       1       3       2       1
       1       3       2       1       1       3       2       1       1       3
       2       1       1       3       2       1       1       3       2       1
       1       3       2       1       1       3       2       1       1       3
       2       1       1       3       2       1       1       3       2       1
       1       3       2       1       1       3       2       1       1       3
       2       1       1       3       2       1       1       3       2       1
       1       3       2       1       1       3       2       1       1       3
       2       1       1       3       2       1       1       3       2       1
       1       3       2       1       1       3       2       1       1       3
       2       1       1       3       2       1       1       3       2       1
       1       3       2       1       1       3       2       1       1       3
       2       1       1       3       2       1       1       3       2       1
       1       3       2       1       1       3       2       1       1       3
       2       1       1       3       2       1       1       3       2       1
       1       3       2       1       1       3       2       1       1       3
       2       1       1       3       2       1       1       3       2       1
       1       3       2       1       1       3       2       1       1       3
       2       1       1       3       2       1       1       3       2       1
       1       3       2       1       1       3       2       1       1       3
       2       1       1       3       2       1       1       3       2       1
       1       3       2       1       1       3       2       1       1       3
       2       1       1       3       2       1       1       3       2       1
       1       3       2       1       1       3       2       1       1       3
       2       1       1       3       2       1       1       3       2       1
       1       3       2       1       1       3       2       1       1       3
       2       1       1       3       2       1       1       3       2       1
       1       3       2       1       1       3       2       1       1       3
       2       1       1       3       2       1       1       3       2       1
       1       3       2       1       1       3       2       1       1       3
       2       1       1       3       2       1       1       3       2       1
       1       3       2       1       1       3       2       1       1       3
       2       1       1       3       2       1       1       3       2       1
       1       3       2       1       1       3       2       1       1       3
       2       1       1       3       2       1       1       3       2       1
       1       3       2       1       1       3       2       1       1       3
       2       1       1       3       2       1       1       3       2       1
       1       3       2       1       1       3       2       1       1       3
       2       1       1       3       2       1       1       3       2       1
       1       3       2       1       1       3       2       1       1       3
       2       1       1       3       2       1       1       3       2       1
       1       3       2       1       1       3       2       1       1       3
       2       1       1       3       2       1       1       3       2       1
       1       3       2       1       1       3       2       1       1       3
       2       1       1       3       2       1       1       3       2       1
       1       3       2       1       1       3       2       1       1       3
       2       1       1       3       2       1       1       3       2       1
       1       3       2       1       1       3       2       1       1       3
       2       1       1       3       2       1       1       3       2       1
       1       3       2       1       1       3       2       1       1       3
       2       1       1       3       2       1       1       3       2       1
       1       3       2       1       1       3       2       1       1       3
       2       1       1       3       2       1       1       3       2       1
       1       3       2       1       1       3       2       1       1       3
       2       1       1       3       2       1       1       3       2       1
       1       3       2       1       1       3       2       1       1       3
       2       1       1       3       2       1       1       3       2       1
       1       3       2       1       1       3       2       1       1       3
       2       1       1       3       2       1       1       3       2       1
       1       3       2       1       1       3       2       1       1       3
       2       1       1       3       2       1       1       3       2       1
       1       3       2       1       1       3       2       1       1       3
       2       1       1       3       2       1       1       3       2       1
       1       3       2       1       1       3       2       1       1       3
       2       1       1       3       2       1       1       3       2       1
       1       3       2       1       1       3       2       1       1       3
       2       1       1       3       2       1       1       3       2       1
       1       3       2       1       1       3       2       1       1       3
       2       1       1       3       2       1       1       3       2       1
       1       3       2       1       1       3       2       1       1       3
       2       1       1       3       2       1       1       3       2       1
       1       3       2       1       1       3       2       1       1       3
       2       1       1       3       2       1       1       3       2       1
       1       3       2       1       1       3       2       1       1       3
       2       1       1       3       2       1       1       3       2       1
       1       3       2       1       1       3       2       1       1       3
       2       1       1       3       2       1       1       3       2       1
       1       3       2       1       1       3       2       1       1       3
       2       1       1       3       2       1       1       3       2       1
       1       3       2       1       1       3       2       1       1       3
       2       1       1       3       2       1       1       3       2       1
       1       3       2       1       1       3       2       1       1       3
       2       1       1       3       2       1       1       3       2       1
       1       3       2       1       1       3       2       1       1       3
       2       1       1       3       2       1       1       3       2       1
       1       3       2       1       1       3       2       1       1       3
       2       1       1       3       2       1       1       3       2       1
       1       3       2       1       1       3       2       1       1       3
       2       1       1       3       2       1       1       3       2       1
       1       3       2       1       1       3       2       1       1       3
       2       1       1       3       2       1       1       3       2       1
       1       3       2       1       1       3       2       1       1       3
       2       1       1       3       2       1       1       3       2       1
       1       3       2       1       1       3       2       1       1       3
       2       1       1       3       2       1       1       3       2       1
       1       3       2       1       1       3       2       1       1       3
       2       1       1       3       2       1       1       3       2       1
       1       3       2       1       1       3       2       1       1       3
       2       1       1       3       2       1       1       3       2       1
       1       3       2       1       1       3       2       1       1       3
       2       1       1       3       2       1       1       3       2       1
       1       3       2       1       1       3       2       1       1       3
       2       1       1       3       2       1       1       3       2       1
       1       3       2       1       1       3       2       1       1       3
       2       1       1       3       2       1       1       3       2       1
       1       3       2       1       1       3       2       1       1       3
       2       1       1       3       2       1       1       3       2       1
       1       3       2       1       1       3       2       1       1       3
       2       1       1       3       2       1       1       3       2       1
       1       3       2       1       1       3       2       1       1       3
       2       1       1       3       2       1       1       3       2       1
       1       3       2       1       1       3       2       1       1       3
       2       1       1       3       2       1       1       3       2       1
       1       3       2       1       1       3       2       1       1       3
       2       1       1       3       2       1       1       3       2       1
       1       3       2       1       1       3       2       1       1       3
       2       1       1       3       2       1       1       3       2       1
       1       3       2       1       1       3       2       1       1       3
       2       1       1       3       2       1       1       3       2       1
       1       3       2       1       1       3       2       1       1       3
       2       1       1       3       2       1       1       3       2       1
       1       3       2       1       1       3       2       1       1       3
       2       1       1       3       2       1       1       3       2       1
       1       3       2       1       1       3       2       1       1       3
       2       1       1       3       2       1       1       3       2       1
       1       3       2       1       1       3       2       1       1       3
       2       1       1       3       2       1       1       3       2       1
       1       3       2       1       1       3       2       1       1       3
       2       1       1       3       2       1       1       3       2       1
       1       3       2       1       1       3       2       1       1       3
       2       1       1       3       2       1       1       3       2       1
       1       3       2       1       1       3       2       1       1       3
       2       1       1       3       2       1       1       3       2       1
       1       3       2       1       1       3       2       1       1       3
       2       1       1       3       2       1       1       3       2       1
       1       3       2       1       1       3       2       1       1       3
       2       1       1       3       2       1       1       3       2       1
       1       3       2       1       1       3       2       1       1       3
       2       1       1       3       2       1       1       3       2       1
       1       3       2       1       1       3       2       1       1       3
       2       1       1       3       2       1       1       3       2       1
       1       3       2       1       1       3       2       1       1       3
       2       1       1       3       2       1       1       3       2       1
       1       3       2       1       1       3       2       1       1       3
       2       1       1       3       2       1       1       3       2       1
       1       3       2       1       1       3       2       1       1       3
       2       1       1       3       2       1       1       3       2       1
       1       3       2       1       1       3       2       1       1       3
       2       1       1       3       2       1       1       3       2       1
       1       3       2       1       1       3       2       1       1       3
       2       1       1       3       2       1       1       3       2       1
       1       3       2       1       1       3       2       1       1       3
       2       1       1       3       2       1       1       3       2       1
       1       3       2       1       1       3       2       1       1       3
       2       1       1       3       2       1       1       3       2       1
       1       3       2       1       1       3       2       1       1       3
       2       1       1       3       2       1       1       3       2       1
       1       3       2       1       1       3       2       1       1       3
       2       1       1       3       2       1       1       3       2       1
       1       3       2       1       1       3       2       1       1       3
       2       1       1       3       2       1       1       3       2       1
       1       3       2       1       1       3       2       1       1       3
       2       1       1       3       2       1       1       3       2       1
       1       3       2       1       1       3       2       1       1       3
       2       1       1       3       2       1       1       3       2       1
       1       3       2       1       1       3       2       1       1       3
       2       1       1       3       2       1       1       3       2       1
       1       3       2       1       1       3       2       1       1       3
       2       1       1       3       2       1       1       3       2       1
       1       3       2       1       1       3       2       1       1       3
       2       1       1       3       2       1       1       3       2       1
       1       3       2       1       1       3       2       1       1       3
       2       1       1       3       2       1       1       3       2       1
       1       3       2       1       1       3       2       1       1       3
       2       1       1       3       2       1       1       3       2       1
       1       3       2       1       1       3       2       1       1       3
       2       1       1       3       2       1       1       3       2       1
       1       3       2       1       1       3       2       1       1       3
       2       1       1       3       2       1       1       3       2       1
       1       3       2       1       1       3       2       1       1       3
       2       1       1       3       2       1       1       3       2       1
       1       3       2       1       1       3       2       1       1       3
       2       1       1       3       2       1       1       3       2       1
       1       3       2       1       1       3       2       1       1       3
       2       1       1       3       2       1       1       3       2       1
       1       3       2       1       1       3       2       1       1       3
       2       1       1       3       2       1       1       3       2       1
       1       3       2       1       1       3       2       1       1       3
       2       1       1       3       2       1       1       3       2       1
       1       3       2       1       1       3       2       1       1       3
       2       1       1       3       2       1       1       3       2       1
       1       3       2       1       1       3       2       1       1       3
       2       1       1       3       2       1       1       3       2       1
       1       3       2       1       1       3       2       1       1       3
       2       1       1       3       2       1       1       3       2       1
       1       3       2       1       1       3       2       1       1       3
       2       1       1       3       2       1       1       3       2       1
       1       3       2       1       1       3       2       1       1       3
       2       1       1       3       2       1       1       3       2       1
       1       3       2       1       1       3       2       1       1       3
       2       1       1       3       2       1       1       3       2       1
       1       3       2       1       1       3       2       1       1       3
       2       1       1       3       2       1       1       3       2       1
       1       3       2       1       1       3       2       1       1       3
       2       1       1       3       2       1       1       3       2       1
       1       3       2       1       1       3       2       1       1       3
       2       1       1       3       2       1       1       3       2       1
       1       3       2       1       1       3       2       1       1       3
       2       1       1       3       2       1       1       3       2       1
       1       3       2       1       1       3       2       1       1       3
       2       1       1       3       2       1       1       3       2       1
       1       3       2       1       1       3       2       1       1       3
       2       1       1       3       2       1       1       3       2       1
       1       3       2       1       1       3       2       1       1       3
       2       1       1       3       2       1       1       3       2       1
       1       3       2       1       1       3       2       1       1       3
       2       1       1       3       2       1       1       3       2       1
       1       3       2       1       1       3       2       1       1       3
       2       1       1       3       2       1       1       3       2       1
       1       3       2       1       1       3       2       1       1       3
       2       1       1       3       2       1       1       3       2       1
       1       3       2       1       1       3       2       1       1       3
       2       1       1       3       2       1       1       3       2       1
       1       3       2       1       1       3       2       1       1       3
       2       1       1       3       2       1       1       3       2       1
       1       3       2       1       1       3       2       1       1       3
       2       1       1       3       2       1       1       3       2       1
       1       3       2       1       1       3       2       1       1       3
       2       1       1       3       2       1       1       3       2       1
       1       3       2       1       1       3       2       1       1       3
       2       1       1       3       2       1       1       3       2       1
       1       3       2       1       1       3       2       1       1       3
       2       1       1       3       2       1       1       3       2       1
       1       3       2       1       1       3       2       1       1       3
       2       1       1       3       2       1       1       3       2       1
       1       3       2       1       1       3       2       1       1       3
       2       1       1       3       2       1       1       3       2       1
       1       3       2       1       1       3       2       1       1       3
       2       1       1       3       2       1       1       3       2       1
       1       3       2       1       1       3       2       1       1       3
       2       1       1       3       2       1       1       3       2       1
       1       3       2       1       1       3       2       1       1       3
       2       1       1       3       2       1       1       3       2       1
       1       3       2       1       1       3       2       1       1       3
       2       1       1       3       2       1       1       3       2       1
       1       3       2       1       1       3       2       1       1       3
       2       1       1       3       2       1       1       3       2       1
       1       3       2       1       1       3       2       1       1       3
       2       1       1       3       2       1       1       3       2       1
       1       3       2       1       1       3       2       1       1       3
       2       1       1       3       2       1       1       3       2       1
       1       3       2       1       1       3       2       1       1       3
       2       1       1       3       2       1       1       3       2       1
       1       3       2       1       1       3       2       1       1       3
       2       1       1       3       2       1       1       3       2       1
       1       3       2       1       1       3       2       1       1       3
       2       1       1       3       2       1       1       3       2       1
       1       3       2       1       1       3       2       1       1       3
       2       1       1       3       2       1       1       3       2       1
       1       3       2       1       1       3       2       1       1       3
       2       1       1       3       2       1       1       3       2       1
       1       3       2       1       1       3       2       1       1       3
       2       1       1       3       2       1       1       3       2       1
       1       3       2       1       1       3       2       1       1       3
       2       1       1       3       2       1       1       3       2       1
       1       3       2       1       1       3       2       1       1       3
       2       1       1       3       2       1       1       3       2       1
       1       3       2       1       1       3       2       1       1       3
       2       1       1       3       2       1       1       3       2       1
       1       3       2       1       1       3       2       1       1       3
       2       1       1       3       2       1       1       3       2       1
       1       3       2       1       1       3       2       1       1       3
       2       1       1       3       2       1       1       3       2       1
       1       3       2       1       1       3       2       1       1       3
       2       1       1       3       2       1       1       3       2       1
       1       3       2       1       1       3       2       1       1       3
       2       1       1       3       2       1       1       3       2       1
       1       3       2       1       1       3       2       1       1       3
       2       1       1       3       2       1       1       3       2       1
       1       3       2       1       1       3       2       1       1       3
       2       1       1       3       2       1       1       3       2       1
       1       3       2       1       1       3       2       1       1       3
       2       1       1       3       2       1       1       3       2       1
       1       3       2       1       1       3       2       1       1       3
       2       1       1       3       2       1       1       3       2       1
       1       3       2       1       1       3       2       1       1       3
       2       1       1       3       2       1       1       3       2       1
       1       3       2       1       1       3       2       1       1       3
       2       1       1       3       2       1       1       3       2       1
       1       3       2       1       1       3       2       1       1       3
       2       1       1       3       2       1       1       3       2       1
       1       3       2       1       1       3       2       1       1       3
       2       1       1       3       2       1       1       3       2       1
       1       3       2       1       1       3       2       1       1       3
       2       1       1       3       2       1       1       3       2       1
       1       3       2       1       1       3       2       1       1       3
       2       1       1       3       2       1       1       3       2       1
       1       3       2       1       1       3       2       1       1       3
       2       1       1       3       2       1       1       3       2       1
       1       3       2       1       1       3       2       1       1       3
       2       1       1       3       2       1       1       3       2       1
       1       3       2       1       1       3       2       1       1       3
       2       1       1       3       2       1       1       3       2       1
       1       3       2       1       1       3       2       1       1       3
       2       1       1       3       2       1       1       3       2       1
       1       3       2       1       1       3       2       1       1       3
       2       1       1       3       2       1       1       3       2       1
       1       3       2       1       1       3       2       1       1       3
       2       1       1       3       2       1       1       3       2       1
       1       3       2       1       1       3       2       1       1       3
       2       1       1       3       2       1       1       3       2       1
       1       3       2       1       1       3       2       1       1       3
       2       1       1       3       2       1       1       3       2       1
       1       3       2       1       1       3       2       1       1       3
       2       1       1       3       2       1       1       3       2       1
       1       3       2       1       1       3       2       1       1       3
       2       1       1       3       2       1       1       3       2       1
       1       3       2       1       1       3       2       1       1       3
       2       1       1       3       2       1       1       3       2       1
       1       3       2       1       1       3       2       1       1       3
       2       1       1       3       2       1       1       3       2       1
       1       3       2       1       1       3       2       1       1       3
       2       1       1       3       2       1       1       3       2       1
       1       3       2       1       1       3       2       1       1       3
       2       1       1       3       2       1       1       3       2       1
       1       3       2       1       1       3       2       1       1       3
       2       1       1       3       2       1       1       3       2       1
       1       3       2       1       1       3       2       1       1       3
       2       1       1       3       2       1       1       3       2       1
       1       3       2       1       1       3       2       1       1       3
       2       1       1       3       2       1       1       3       2       1
       1       3       2       1       1       3       2       1       1       3
       2       1       1       3       2       1       1       3       2       1
       1       3       2       1       1       3       2       1       1       3
       2       1       1       3       2       1       1       3       2       1
       1       3       2       1       1       3       2       1       1       3
       2       1       1       3       2       1       1       3       2       1
       1       3       2       1       1       3       2       1       1       3
       2       1       1       3       2       1       1       3       2       1
       1       3       2       1       1       3       2       1       1       3
       2       1       1       3       2       1       1       3       2       1
       1       3       2       1       1       3       2       1       1       3
       2       1       1       3       2       1       1       3       2       1
       1       3       2       1       1       3       2       1       1       3
       2       1       1       3       2       1       1       3       2       1
       1       3       2       1       1       3       2       1       1       3
       2       1       1       3       2       1       1       3       2       1
       1       3       2       1       1       3       2       1       1       3
       2       1       1       3       2       1       1       3       2       1
       1       3       2       1       1       3       2       1       1       3
       2       1       1       3       2       1       1       3       2       1
       1       3       2       1       1       3       2       1       1       3
       2       1       1       3       2       1       1       3       2       1
       1       3       2       1       1       3       2       1       1       3
       2       1       1       3       2       1       1       3       2       1
       1       3       2       1       1       3       2       1       1       3
       2       1       1       3       2       1       1       3       2       1
       1       3       2       1       1       3       2       1       1
%FLAG NONBONDED_PARM_INDEX                                                      
%FORMAT(10I8)                                                                   
       1       2       4       7      11      16      22      29      37      46
      56       2       3       5       8      12      17      23      30      38
      47      57       4       5       6       9      13      18      24      31
      39      48      58       7       8       9      10      14      19      25
      32      40      49      59      11      12      13      14      15      20
      26      33      41      50      60      16      17      18      19      20
      21      27      34      42      51      61      22      23      24      25
      26      27      28      35      43      52      62      29      30      31
      32      33      34      35      36      44      53      63      37      38
      39      40      41      42      43      44      45      54      64      46
      47      48      49      50      51      52      53      54      55      65
      56      57      58      59      60      61      62      63      64      65
      66
%FLAG RESIDUE_LABEL                                                             
%FORMAT(20a4)                                                                   
ACE LYS ALA GLU NME WAT WAT WAT WAT WAT WAT WAT WAT WAT WAT WAT WAT WAT WAT WAT 
WAT WAT WAT WAT WAT WAT WAT WAT WAT WAT WAT WAT WAT WAT WAT WAT WAT WAT WAT WAT 
WAT WAT WAT WAT WAT WAT WAT WAT WAT WAT WAT WAT WAT WAT WAT WAT WAT WAT WAT WAT 
WAT WAT WAT WAT WAT WAT WAT WAT WAT WAT WAT WAT WAT WAT WAT WAT WAT WAT WAT WAT 
WAT WAT WAT WAT WAT WAT WAT WAT WAT WAT WAT WAT WAT WAT WAT WAT WAT WAT WAT WAT 
WAT WAT WAT WAT WAT WAT WAT WAT WAT WAT WAT WAT WAT WAT WAT WAT WAT WAT WAT WAT 
WAT WAT WAT WAT WAT WAT WAT WAT WAT WAT WAT WAT WAT WAT WAT WAT WAT WAT WAT WAT 
WAT WAT WAT WAT WAT WAT WAT WAT WAT WAT WAT WAT WAT WAT WAT WAT WAT WAT WAT WAT 
WAT WAT WAT WAT WAT WAT WAT WAT WAT WAT WAT WAT WAT WAT WAT WAT WAT WAT WAT WAT 
WAT WAT WAT WAT WAT WAT WAT WAT WAT WAT WAT WAT WAT WAT WAT WAT WAT WAT WAT WAT 
WAT WAT WAT WAT WAT WAT WAT WAT WAT WAT WAT WAT WAT WAT WAT WAT WAT WAT WAT WAT 
WAT WAT WAT WAT WAT WAT WAT WAT WAT WAT WAT WAT WAT WAT WAT WAT WAT WAT WAT WAT 
WAT WAT WAT WAT WAT WAT WAT WAT WAT WAT WAT WAT WAT WAT WAT WAT WAT WAT WAT WAT 
WAT WAT WAT WAT WAT WAT WAT WAT WAT WAT WAT WAT WAT WAT WAT WAT WAT WAT WAT WAT 
WAT WAT WAT WAT WAT WAT WAT WAT WAT WAT WAT WAT WAT WAT WAT WAT WAT WAT WAT WAT 
WAT WAT WAT WAT WAT WAT WAT WAT WAT WAT WAT WAT WAT WAT WAT WAT WAT WAT WAT WAT 
WAT WAT WAT WAT WAT WAT WAT WAT WAT WAT WAT WAT WAT WAT WAT WAT WAT WAT WAT WAT 
WAT WAT WAT WAT WAT WAT WAT WAT WAT WAT WAT WAT WAT WAT WAT WAT WAT WAT WAT WAT 
WAT WAT WAT WAT WAT WAT WAT WAT WAT WAT WAT WAT WAT WAT WAT WAT WAT WAT WAT WAT 
WAT WAT WAT WAT WAT WAT WAT WAT WAT WAT WAT WAT WAT WAT WAT WAT WAT WAT WAT WAT 
WAT WAT WAT WAT WAT WAT WAT WAT WAT WAT WAT WAT WAT WAT WAT WAT WAT WAT WAT WAT 
WAT WAT WAT WAT WAT WAT WAT WAT WAT WAT WAT WAT WAT WAT WAT WAT WAT WAT WAT WAT 
WAT WAT WAT WAT WAT WAT WAT WAT WAT WAT WAT WAT WAT WAT WAT WAT WAT WAT WAT WAT 
WAT WAT WAT WAT WAT WAT WAT WAT WAT WAT WAT WAT WAT WAT WAT WAT WAT WAT WAT WAT 
WAT WAT WAT WAT WAT WAT WAT WAT WAT WAT WAT WAT WAT WAT WAT WAT WAT WAT WAT WAT 
WAT WAT WAT WAT WAT WAT WAT WAT WAT WAT WAT WAT WAT WAT WAT WAT WAT WAT WAT WAT 
WAT WAT WAT WAT WAT WAT WAT WAT WAT WAT WAT WAT WAT WAT WAT WAT WAT WAT WAT WAT 
WAT WAT WAT WAT WAT WAT WAT WAT WAT WAT WAT WAT WAT WAT WAT WAT WAT WAT WAT WAT 
WAT WAT WAT WAT WAT WAT WAT WAT WAT WAT WAT WAT WAT WAT WAT WAT WAT WAT WAT WAT 
WAT WAT WAT WAT WAT WAT WAT WAT WAT WAT WAT WAT WAT WAT WAT WAT WAT WAT WAT WAT 
WAT WAT WAT WAT WAT WAT WAT WAT WAT WAT WAT WAT WAT WAT WAT WAT WAT WAT WAT WAT 
WAT WAT WAT WAT WAT WAT WAT WAT WAT WAT WAT WAT WAT WAT WAT WAT WAT WAT WAT WAT 
WAT WAT WAT WAT WAT WAT WAT WAT WAT WAT WAT WAT WAT WAT WAT WAT WAT WAT WAT WAT 
WAT WAT WAT WAT WAT WAT WAT WAT WAT WAT WAT WAT WAT WAT WAT WAT WAT WAT WAT WAT 
WAT WAT WAT WAT WAT WAT WAT WAT WAT WAT WAT WAT WAT WAT WAT WAT WAT WAT WAT WAT 
WAT WAT WAT WAT WAT WAT WAT WAT WAT WAT WAT WAT WAT WAT WAT WAT WAT WAT WAT WAT 
WAT WAT WAT WAT WAT WAT WAT WAT WAT WAT WAT WAT WAT WAT WAT WAT WAT WAT WAT WAT 
WAT WAT WAT WAT WAT WAT WAT WAT WAT WAT WAT WAT WAT WAT WAT WAT WAT WAT WAT WAT 
WAT WAT WAT WAT WAT WAT WAT WAT WAT WAT WAT WAT WAT WAT WAT WAT WAT WAT WAT WAT 
WAT WAT WAT WAT WAT WAT WAT WAT WAT WAT WAT WAT WAT WAT WAT WAT WAT WAT WAT WAT 
WAT WAT WAT WAT WAT WAT WAT WAT WAT WAT WAT WAT WAT WAT WAT WAT WAT WAT WAT WAT 
WAT WAT WAT WAT WAT WAT WAT WAT WAT WAT WAT WAT WAT WAT WAT WAT WAT WAT WAT WAT 
WAT WAT WAT WAT WAT WAT WAT WAT WAT WAT WAT WAT WAT WAT WAT WAT WAT WAT WAT WAT 
WAT WAT WAT WAT WAT WAT WAT WAT WAT WAT WAT WAT WAT WAT WAT WAT WAT WAT WAT WAT 
WAT WAT WAT WAT WAT WAT WAT WAT WAT WAT WAT WAT WAT WAT WAT WAT WAT WAT WAT WAT 
WAT WAT WAT WAT WAT WAT WAT WAT WAT WAT WAT WAT WAT WAT WAT WAT WAT WAT WAT WAT 
WAT WAT WAT WAT WAT WAT WAT WAT WAT WAT WAT WAT WAT WAT WAT WAT WAT WAT WAT WAT 
WAT WAT WAT WAT WAT WAT WAT WAT WAT WAT WAT WAT WAT WAT WAT WAT WAT WAT WAT WAT 
WAT WAT WAT WAT WAT WAT WAT WAT WAT WAT WAT WAT WAT WAT WAT WAT WAT WAT WAT WAT 
WAT WAT WAT WAT WAT WAT WAT WAT WAT WAT WAT WAT WAT WAT WAT WAT WAT WAT WAT WAT 
WAT WAT WAT WAT WAT WAT WAT WAT WAT WAT WAT WAT WAT WAT WAT WAT WAT WAT WAT WAT 
WAT WAT WAT WAT WAT WAT WAT WAT WAT WAT WAT WAT WAT WAT WAT WAT WAT WAT WAT WAT 
WAT WAT WAT WAT WAT WAT WAT WAT WAT WAT WAT WAT WAT WAT WAT WAT WAT WAT WAT WAT 
WAT WAT WAT WAT WAT WAT WAT WAT WAT WAT WAT WAT WAT WAT WAT WAT WAT WAT WAT WAT 
WAT WAT WAT WAT WAT WAT WAT WAT WAT WAT WAT WAT WAT WAT WAT WAT WAT WAT WAT WAT 
WAT WAT WAT WAT WAT WAT WAT WAT WAT WAT WAT WAT WAT WAT WAT WAT WAT WAT WAT WAT 
WAT WAT WAT WAT WAT WAT WAT WAT WAT WAT WAT WAT WAT WAT WAT WAT WAT WAT WAT WAT 
WAT WAT WAT WAT WAT WAT WAT WAT WAT WAT WAT WAT WAT WAT WAT WAT WAT WAT WAT WAT 
WAT WAT WAT WAT WAT WAT WAT WAT WAT WAT WAT WAT WAT WAT WAT WAT WAT WAT WAT WAT 
WAT WAT WAT WAT WAT WAT WAT WAT WAT WAT WAT WAT WAT WAT WAT WAT WAT WAT WAT WAT 
WAT WAT WAT WAT WAT WAT WAT WAT WAT WAT WAT WAT WAT WAT WAT WAT WAT WAT WAT WAT 
WAT WAT WAT WAT WAT WAT WAT WAT WAT WAT WAT WAT WAT WAT WAT WAT WAT WAT WAT WAT 
WAT WAT WAT WAT WAT WAT WAT WAT WAT WAT WAT WAT WAT WAT WAT WAT WAT WAT WAT WAT 
WAT WAT WAT WAT WAT WAT WAT WAT WAT WAT WAT WAT WAT WAT WAT WAT WAT WAT WAT WAT 
WAT WAT WAT WAT WAT WAT WAT WAT WAT WAT WAT WAT WAT WAT WAT WAT WAT WAT WAT WAT 
WAT WAT WAT WAT WAT WAT WAT WAT WAT WAT WAT WAT WAT WAT WAT WAT WAT WAT WAT WAT 
WAT WAT WAT WAT WAT WAT WAT WAT WAT WAT WAT WAT WAT WAT WAT WAT WAT WAT WAT WAT 
WAT WAT WAT WAT WAT WAT WAT WAT WAT WAT WAT WAT WAT WAT WAT WAT WAT WAT WAT WAT 
WAT WAT WAT WAT WAT WAT WAT WAT WAT WAT WAT WAT WAT WAT WAT WAT WAT WAT WAT WAT 
WAT WAT WAT WAT WAT WAT WAT WAT WAT WAT WAT WAT WAT WAT WAT WAT WAT WAT WAT WAT 
WAT WAT WAT WAT WAT WAT WAT WAT WAT WAT WAT WAT WAT WAT WAT WAT WAT WAT WAT WAT 
WAT WAT WAT WAT WAT WAT WAT WAT WAT WAT WAT WAT WAT WAT WAT WAT WAT WAT WAT WAT 
WAT WAT WAT WAT WAT WAT WAT WAT WAT WAT WAT WAT WAT WAT WAT WAT WAT WAT WAT WAT 
WAT WAT WAT WAT WAT WAT WAT WAT WAT WAT WAT WAT WAT WAT WAT WAT WAT WAT WAT WAT 
WAT WAT WAT WAT WAT WAT WAT WAT WAT WAT WAT WAT WAT WAT WAT WAT WAT WAT WAT WAT 
WAT WAT WAT WAT WAT WAT WAT WAT WAT WAT WAT WAT WAT WAT WAT WAT WAT WAT WAT WAT 
WAT WAT WAT WAT WAT WAT WAT WAT WAT WAT WAT WAT WAT WAT WAT WAT WAT WAT WAT WAT 
WAT WAT WAT WAT WAT WAT WAT WAT WAT WAT WAT WAT WAT WAT WAT WAT WAT WAT WAT WAT 
WAT WAT WAT WAT WAT WAT WAT WAT WAT WAT WAT WAT WAT WAT WAT WAT WAT WAT WAT WAT 
WAT WAT WAT WAT WAT WAT WAT WAT WAT WAT WAT WAT WAT WAT WAT WAT WAT WAT WAT WAT 
WAT WAT WAT WAT WAT WAT WAT WAT WAT WAT WAT WAT WAT WAT WAT WAT WAT WAT WAT WAT 
WAT WAT WAT WAT WAT WAT WAT WAT WAT WAT WAT WAT WAT WAT WAT WAT WAT WAT WAT WAT 
WAT WAT WAT WAT WAT WAT WAT WAT WAT WAT WAT WAT WAT WAT WAT WAT WAT WAT WAT WAT 
WAT WAT WAT WAT WAT WAT WAT WAT WAT WAT WAT WAT WAT WAT WAT WAT WAT WAT WAT WAT 
WAT WAT WAT WAT WAT 
%FLAG RESIDUE_POINTER                                                           
%FORMAT(10I8)                                                                   
       1       7      29      39      54      60      64      68      72      76
      80      84      88      92      96     100     104     108     112     116
     120     124     128     132     136     140     144     148     152     156
     160     164     168     172     176     180     184     188     192     196
     200     204     208     212     216     220     224     228     232     236
     240     244     248     252     256     260     264     268     272     276
     280     284     288     292     296     300     304     308     312     316
     320     324     328     332     336     340     344     348     352     356
     360     364     368     372     376     380     384     388     392     396
     400     404     408     412     416     420     424     428     432     436
     440     444     448     452     456     460     464     468     472     476
     480     484     488     492     496     500     504     508     512     516
     520     524     528     532     536     540     544     548     552     556
     560     564     568     572     576     580     584     588     592     596
     600     604     608     612     616     620     624     628     632     636
     640     644     648     652     656     660     664     668     672     676
     680     684     688     692     696     700     704     708     712     716
     720     724     728     732     736     740     744     748     752     756
     760     764     768     772     776     780     784     788     792     796
     800     804     808     812     816     820     824     828     832     836
     840     844     848     852     856     860     864     868     872     876
     880     884     888     892     896     900     904     908     912     916
     920     924     928     932     936     940     944     948     952     956
     960     964     968     972     976     980     984     988     992     996
    1000    1004    1008    1012    1016    1020    1024    1028    1032    1036
    1040    1044    1048    1052    1056    1060    1064    1068    1072    1076
    1080    1084    1088    1092    1096    1100    1104    1108    1112    1116
    1120    1124    1128    1132    1136    1140    1144    1148    1152    1156
    1160    1164    1168    1172    1176    1180    1184    1188    1192    1196
    1200    1204    1208    1212    1216    1220    1224    1228    1232    1236
    1240    1244    1248    1252    1256    1260    1264    1268    1272    1276
    1280    1284    1288    1292    1296    1300    1304    1308    1312    1316
    1320    1324    1328    1332    1336    1340    1344    1348    1352    1356
    1360    1364    1368    1372    1376    1380    1384    1388    1392    1396
    1400    1404    1408    1412    1416    1420    1424    1428    1432    1436
    1440    1444    1448    1452    1456    1460    1464    1468    1472    1476
    1480    1484    1488    1492    1496    1500    1504    1508    1512    1516
    1520    1524    1528    1532    1536    1540    1544    1548    1552    1556
    1560    1564    1568    1572    1576    1580    1584    1588    1592    1596
    1600    1604    1608    1612    1616    1620    1624    1628    1632    1636
    1640    1644    1648    1652    1656    1660    1664    1668    1672    1676
    1680    1684    1688    1692    1696    1700    1704    1708    1712    1716
    1720    1724    1728    1732    1736    1740    1744    1748    1752    1756
    1760    1764    1768    1772    1776    1780    1784    1788    1792    1796
    1800    1804    1808    1812    1816    1820    1824    1828    1832    1836
    1840    1844    1848    1852    1856    1860    1864    1868    1872    1876
    1880    1884    1888    1892    1896    1900    1904    1908    1912    1916
    1920    1924    1928    1932    1936    1940    1944    1948    1952    1956
    1960    1964    1968    1972    1976    1980    1984    1988    1992    1996
    2000    2004    2008    2012    2016    2020    2024    2028    2032    2036
    2040    2044    2048    2052    2056    2060    2064    2068    2072    2076
    2080    2084    2088    2092    2096    2100    2104    2108    2112    2116
    2120    2124    2128    2132    2136    2140    2144    2148    2152    2156
    2160    2164    2168    2172    2176    2180    2184    2188    2192    2196
    2200    2204    2208    2212    2216    2220    2224    2228    2232    2236
    2240    2244    2248    2252    2256    2260    2264    2268    2272    2276
    2280    2284    2288    2292    2296    2300    2304    2308    2312    2316
    2320    2324    2328    2332    2336    2340    2344    2348    2352    2356
    2360    2364    2368    2372    2376    2380    2384    2388    2392    2396
    2400    2404    2408    2412    2416    2420    2424    2428    2432    2436
    2440    2444    2448    2452    2456    2460    2464    2468    2472    2476
    2480    2484    2488    2492    2496    2500    2504    2508    2512    2516
    2520    2524    2528    2532    2536    2540    2544    2548    2552    2556
    2560    2564    2568    2572    2576    2580    2584    2588    2592    2596
    2600    2604    2608    2612    2616    2620    2624    2628    2632    2636
    2640    2644    2648    2652    2656    2660    2664    2668    2672    2676
    2680    2684    2688    2692    2696    2700    2704    2708    2712    2716
    2720    2724    2728    2732    2736    2740    2744    2748    2752    2756
    2760    2764    2768    2772    2776    2780    2784    2788    2792    2796
    2800    2804    2808    2812    2816    2820    2824    2828    2832    2836
    2840    2844    2848    2852    2856    2860    2864    2868    2872    2876
    2880    2884    2888    2892    2896    2900    2904    2908    2912    2916
    2920    2924    2928    2932    2936    2940    2944    2948    2952    2956
    2960    2964    2968    2972    2976    2980    2984    2988    2992    2996
    3000    3004    3008    3012    3016    3020    3024    3028    3032    3036
    3040    3044    3048    3052    3056    3060    3064    3068    3072    3076
    3080    3084    3088    3092    3096    3100    3104    3108    3112    3116
    3120    3124    3128    3132    3136    3140    3144    3148    3152    3156
    3160    3164    3168    3172    3176    3180    3184    3188    3192    3196
    3200    3204    3208    3212    3216    3220    3224    3228    3232    3236
    3240    3244    3248    3252    3256    3260    3264    3268    3272    3276
    3280    3284    3288    3292    3296    3300    3304    3308    3312    3316
    3320    3324    3328    3332    3336    3340    3344    3348    3352    3356
    3360    3364    3368    3372    3376    3380    3384    3388    3392    3396
    3400    3404    3408    3412    3416    3420    3424    3428    3432    3436
    3440    3444    3448    3452    3456    3460    3464    3468    3472    3476
    3480    3484    3488    3492    3496    3500    3504    3508    3512    3516
    3520    3524    3528    3532    3536    3540    3544    3548    3552    3556
    3560    3564    3568    3572    3576    3580    3584    3588    3592    3596
    3600    3604    3608    3612    3616    3620    3624    3628    3632    3636
    3640    3644    3648    3652    3656    3660    3664    3668    3672    3676
    3680    3684    3688    3692    3696    3700    3704    3708    3712    3716
    3720    3724    3728    3732    3736    3740    3744    3748    3752    3756
    3760    3764    3768    3772    3776    3780    3784    3788    3792    3796
    3800    3804    3808    3812    3816    3820    3824    3828    3832    3836
    3840    3844    3848    3852    3856    3860    3864    3868    3872    3876
    3880    3884    3888    3892    3896    3900    3904    3908    3912    3916
    3920    3924    3928    3932    3936    3940    3944    3948    3952    3956
    3960    3964    3968    3972    3976    3980    3984    3988    3992    3996
    4000    4004    4008    4012    4016    4020    4024    4028    4032    4036
    4040    4044    4048    4052    4056    4060    4064    4068    4072    4076
    4080    4084    4088    4092    4096    4100    4104    4108    4112    4116
    4120    4124    4128    4132    4136    4140    4144    4148    4152    4156
    4160    4164    4168    4172    4176    4180    4184    4188    4192    4196
    4200    4204    4208    4212    4216    4220    4224    4228    4232    4236
    4240    4244    4248    4252    4256    4260    4264    4268    4272    4276
    4280    4284    4288    4292    4296    4300    4304    4308    4312    4316
    4320    4324    4328    4332    4336    4340    4344    4348    4352    4356
    4360    4364    4368    4372    4376    4380    4384    4388    4392    4396
    4400    4404    4408    4412    4416    4420    4424    4428    4432    4436
    4440    4444    4448    4452    4456    4460    4464    4468    4472    4476
    4480    4484    4488    4492    4496    4500    4504    4508    4512    4516
    4520    4524    4528    4532    4536    4540    4544    4548    4552    4556
    4560    4564    4568    4572    4576    4580    4584    4588    4592    4596
    4600    4604    4608    4612    4616    4620    4624    4628    4632    4636
    4640    4644    4648    4652    4656    4660    4664    4668    4672    4676
    4680    4684    4688    4692    4696    4700    4704    4708    4712    4716
    4720    4724    4728    4732    4736    4740    4744    4748    4752    4756
    4760    4764    4768    4772    4776    4780    4784    4788    4792    4796
    4800    4804    4808    4812    4816    4820    4824    4828    4832    4836
    4840    4844    4848    4852    4856    4860    4864    4868    4872    4876
    4880    4884    4888    4892    4896    4900    4904    4908    4912    4916
    4920    4924    4928    4932    4936    4940    4944    4948    4952    4956
    4960    4964    4968    4972    4976    4980    4984    4988    4992    4996
    5000    5004    5008    5012    5016    5020    5024    5028    5032    5036
    5040    5044    5048    5052    5056    5060    5064    5068    5072    5076
    5080    5084    5088    5092    5096    5100    5104    5108    5112    5116
    5120    5124    5128    5132    5136    5140    5144    5148    5152    5156
    5160    5164    5168    5172    5176    5180    5184    5188    5192    5196
    5200    5204    5208    5212    5216    5220    5224    5228    5232    5236
    5240    5244    5248    5252    5256    5260    5264    5268    5272    5276
    5280    5284    5288    5292    5296    5300    5304    5308    5312    5316
    5320    5324    5328    5332    5336    5340    5344    5348    5352    5356
    5360    5364    5368    5372    5376    5380    5384    5388    5392    5396
    5400    5404    5408    5412    5416    5420    5424    5428    5432    5436
    5440    5444    5448    5452    5456    5460    5464    5468    5472    5476
    5480    5484    5488    5492    5496    5500    5504    5508    5512    5516
    5520    5524    5528    5532    5536    5540    5544    5548    5552    5556
    5560    5564    5568    5572    5576    5580    5584    5588    5592    5596
    5600    5604    5608    5612    5616    5620    5624    5628    5632    5636
    5640    5644    5648    5652    5656    5660    5664    5668    5672    5676
    5680    5684    5688    5692    5696    5700    5704    5708    5712    5716
    5720    5724    5728    5732    5736    5740    5744    5748    5752    5756
    5760    5764    5768    5772    5776    5780    5784    5788    5792    5796
    5800    5804    5808    5812    5816    5820    5824    5828    5832    5836
    5840    5844    5848    5852    5856    5860    5864    5868    5872    5876
    5880    5884    5888    5892    5896    5900    5904    5908    5912    5916
    5920    5924    5928    5932    5936    5940    5944    5948    5952    5956
    5960    5964    5968    5972    5976    5980    5984    5988    5992    5996
    6000    6004    6008    6012    6016    6020    6024    6028    6032    6036
    6040    6044    6048    6052    6056    6060    6064    6068    6072    6076
    6080    6084    6088    6092    6096    6100    6104    6108    6112    6116
    6120    6124    6128    6132    6136    6140    6144    6148    6152    6156
    6160    6164    6168    6172    6176    6180    6184    6188    6192    6196
    6200    6204    6208    6212    6216    6220    6224    6228    6232    6236
    6240    6244    6248    6252    6256    6260    6264    6268    6272    6276
    6280    6284    6288    6292    6296    6300    6304    6308    6312    6316
    6320    6324    6328    6332    6336    6340    6344    6348    6352    6356
    6360    6364    6368    6372    6376    6380    6384    6388    6392    6396
    6400    6404    6408    6412    6416    6420    6424    6428    6432    6436
    6440    6444    6448    6452    6456    6460    6464    6468    6472    6476
    6480    6484    6488    6492    6496    6500    6504    6508    6512    6516
    6520    6524    6528    6532    6536    6540    6544    6548    6552    6556
    6560    6564    6568    6572    6576    6580    6584    6588    6592    6596
    6600    6604    6608    6612    6616    6620    6624    6628    6632    6636
    6640    6644    6648    6652    6656    6660    6664    6668    6672    6676
    6680    6684    6688    6692    6696    6700    6704    6708    6712    6716
    6720    6724    6728    6732    6736    6740    6744    6748    6752    6756
    6760    6764    6768    6772    6776
%FLAG BOND_FORCE_CONSTANT                                                       
%FORMAT(5E16.8)                                                                 
  5.70000000E+02  4.90000000E+02  3.40000000E+02  3.17000000E+02  4.34000000E+02
  3.40000000E+02  3.67000000E+02  3.40000000E+02  3.10000000E+02  3.40000000E+02
  3.10000000E+02  3.17000000E+02  4.34000000E+02  3.37000000E+02  3.10000000E+02
  6.56000000E+02  3.40000000E+02  3.17000000E+02  3.10000000E+02  3.10000000E+02
  3.40000000E+02  3.37000000E+02  5.53000000E+02  5.53000000E+02  5.53000000E+02
%FLAG BOND_EQUIL_VALUE                                                          
%FORMAT(5E16.8)                                                                 
  1.22900000E+00  1.33500000E+00  1.09000000E+00  1.52200000E+00  1.01000000E+00
  1.09000000E+00  1.47100000E+00  1.09000000E+00  1.52600000E+00  1.09000000E+00
  1.52600000E+00  1.52200000E+00  1.01000000E+00  1.44900000E+00  1.52600000E+00
  1.25000000E+00  1.09000000E+00  1.52200000E+00  1.52600000E+00  1.52600000E+00
  1.09000000E+00  1.44900000E+00  8.72433130E-01  1.37120510E+00  1.59398330E-01
%FLAG ANGLE_FORCE_CONSTANT                                                      
%FORMAT(5E16.8)                                                                 
  8.00000000E+01  5.00000000E+01  5.00000000E+01  5.00000000E+01  3.50000000E+01
  8.00000000E+01  7.00000000E+01  3.50000000E+01  5.00000000E+01  3.50000000E+01
  5.00000000E+01  5.00000000E+01  3.50000000E+01  5.00000000E+01  8.00000000E+01
  4.00000000E+01  6.30000000E+01  5.00000000E+01  5.00000000E+01  5.00000000E+01
  4.00000000E+01  8.00000000E+01  7.00000000E+01  5.00000000E+01  5.00000000E+01
  8.00000000E+01  6.30000000E+01  6.30000000E+01  5.00000000E+01  5.00000000E+01
  8.00000000E+01  5.00000000E+01  8.00000000E+01  5.00000000E+01  3.50000000E+01
  7.00000000E+01  5.00000000E+01  6.30000000E+01  6.30000000E+01  5.00000000E+01
  5.00000000E+01  4.00000000E+01  8.00000000E+01  3.50000000E+01  5.00000000E+01
  5.00000000E+01
%FLAG ANGLE_EQUIL_VALUE                                                         
%FORMAT(5E16.8)                                                                 
  2.14501057E+00  2.09439600E+00  2.12755727E+00  1.91113635E+00  1.91113635E+00
  2.10137732E+00  2.03505478E+00  1.91113635E+00  1.91113635E+00  1.91113635E+00
  1.91113635E+00  1.91113635E+00  1.91113635E+00  1.91113635E+00  1.94080696E+00
  1.91113635E+00  1.93906163E+00  1.91113635E+00  1.91113635E+00  1.91113635E+00
  1.91113635E+00  2.10137732E+00  2.03505478E+00  2.06018753E+00  1.91113635E+00
  1.91462701E+00  1.92160833E+00  1.93906163E+00  1.91113635E+00  1.91113635E+00
  1.91462701E+00  2.12755727E+00  2.19911580E+00  1.91113635E+00  1.91113635E+00
  2.04203610E+00  1.91113635E+00  1.93906163E+00  1.93906163E+00  1.91113635E+00
  1.91113635E+00  1.91113635E+00  1.91462701E+00  1.91113635E+00  2.06018753E+00
  1.91113635E+00
%FLAG DIHEDRAL_FORCE_CONSTANT                                                   
%FORMAT(5E16.8)                                                                 
  2.00000000E+00  2.50000000E+00  0.00000000E+00  0.00000000E+00  0.00000000E+00
  0.00000000E+00  8.00000000E-01  8.00000000E-02  1.55555556E-01  1.50000000E-01
  1.60000000E-01  2.00000000E-01  2.50000000E-01  1.80000000E-01  0.00000000E+00
  0.00000000E+00  0.00000000E+00  4.21000000E-01  3.93000000E-01  1.44000000E-01
  1.45000000E-01  3.90000000E-01  6.40000000E-02  1.36700000E+00  2.22000000E-01
  6.08000000E-01  5.60000000E-02  1.00000000E-01  1.84000000E-01  7.80000000E-02
  1.05000000E+01  1.10000000E+00
%FLAG DIHEDRAL_PERIODICITY                                                      
%FORMAT(5E16.8)                                                                 
  1.00000000E+00  2.00000000E+00  2.00000000E+00  1.00000000E+00  3.00000000E+00
  4.00000000E+00  1.00000000E+00  3.00000000E+00  3.00000000E+00  3.00000000E+00
  3.00000000E+00  1.00000000E+00  2.00000000E+00  3.00000000E+00  3.00000000E+00
  1.00000000E+00  2.00000000E+00  1.00000000E+00  2.00000000E+00  3.00000000E+00
  4.00000000E+00  2.00000000E+00  4.00000000E+00  1.00000000E+00  2.00000000E+00
  3.00000000E+00  4.00000000E+00  1.00000000E+00  2.00000000E+00  4.00000000E+00
  2.00000000E+00  2.00000000E+00
%FLAG DIHEDRAL_PHASE                                                            
%FORMAT(5E16.8)                                                                 
  0.00000000E+00  3.14159400E+00  0.00000000E+00  0.00000000E+00  0.00000000E+00
  0.00000000E+00  0.00000000E+00  3.14159400E+00  0.00000000E+00  0.00000000E+00
  0.00000000E+00  3.14159400E+00  3.14159400E+00  0.00000000E+00  3.14159400E+00
  3.14159400E+00  3.14159400E+00  3.14159400E+00  3.14159400E+00  0.00000000E+00
  0.00000000E+00  3.14159400E+00  0.00000000E+00  3.14159400E+00  3.14159400E+00
  3.14159400E+00  3.14159400E+00  3.14159400E+00  3.14159400E+00  0.00000000E+00
  3.14159400E+00  3.14159400E+00
%FLAG SCEE_SCALE_FACTOR                                                         
%FORMAT(5E16.8)                                                                 
  1.20000000E+00  1.20000000E+00  1.20000000E+00  1.20000000E+00  1.20000000E+00
  1.20000000E+00  1.20000000E+00  1.20000000E+00  1.20000000E+00  1.20000000E+00
  1.20000000E+00  1.20000000E+00  1.20000000E+00  1.20000000E+00  1.20000000E+00
  1.20000000E+00  1.20000000E+00  1.20000000E+00  1.20000000E+00  1.20000000E+00
  1.20000000E+00  1.20000000E+00  1.20000000E+00  1.20000000E+00  1.20000000E+00
  1.20000000E+00  1.20000000E+00  1.20000000E+00  1.20000000E+00  1.20000000E+00
  0.00000000E+00  0.00000000E+00
%FLAG SCNB_SCALE_FACTOR                                                         
%FORMAT(5E16.8)                                                                 
  2.00000000E+00  2.00000000E+00  2.00000000E+00  2.00000000E+00  2.00000000E+00
  2.00000000E+00  2.00000000E+00  2.00000000E+00  2.00000000E+00  2.00000000E+00
  2.00000000E+00  2.00000000E+00  2.00000000E+00  2.00000000E+00  2.00000000E+00
  2.00000000E+00  2.00000000E+00  2.00000000E+00  2.00000000E+00  2.00000000E+00
  2.00000000E+00  2.00000000E+00  2.00000000E+00  2.00000000E+00  2.00000000E+00
  2.00000000E+00  2.00000000E+00  2.00000000E+00  2.00000000E+00  2.00000000E+00
  0.00000000E+00  0.00000000E+00
%FLAG SOLTY                                                                     
%FORMAT(5E16.8)                                                                 
  0.00000000E+00  0.00000000E+00  0.00000000E+00  0.00000000E+00  0.00000000E+00
  0.00000000E+00  0.00000000E+00  0.00000000E+00  0.00000000E+00  0.00000000E+00
  0.00000000E+00  0.00000000E+00  0.00000000E+00  0.00000000E+00  0.00000000E+00
  0.00000000E+00  0.00000000E+00
%FLAG LENNARD_JONES_ACOEF                                                       
%FORMAT(5E16.8)                                                                 
  7.51607703E+03  9.71708117E+04  1.04308023E+06  8.61541883E+04  9.24822270E+05
  8.19971662E+05  5.44261042E+04  6.47841731E+05  5.74393458E+05  3.79876399E+05
  8.96776989E+04  9.95480466E+05  8.82619071E+05  6.06829342E+05  9.44293233E+05
  1.07193646E+02  2.56678134E+03  2.27577561E+03  1.02595236E+03  2.12601181E+03
  1.39982777E-01  4.98586848E+03  6.78771368E+04  6.01816484E+04  3.69471530E+04
  6.20665997E+04  5.94667300E+01  3.25969625E+03  1.41077189E+03  2.27401052E+04
  2.01619733E+04  1.12780457E+04  2.01791425E+04  9.14716912E+00  8.79040886E+02
  2.01823541E+02  8.45678586E+04  9.57153878E+05  8.48637713E+05  5.77196189E+05
  9.04754248E+05  1.88214625E+03  5.82169798E+04  1.86002079E+04  8.65113123E+05
  0.00000000E+00  0.00000000E+00  0.00000000E+00  0.00000000E+00  0.00000000E+00
  0.00000000E+00  0.00000000E+00  0.00000000E+00  0.00000000E+00  0.00000000E+00
  0.00000000E+00  0.00000000E+00  0.00000000E+00  0.00000000E+00  0.00000000E+00
  0.00000000E+00  0.00000000E+00  0.00000000E+00  0.00000000E+00  0.00000000E+00
  0.00000000E+00
%FLAG LENNARD_JONES_BCOEF                                                       
%FORMAT(5E16.8)                                                                 
  2.17257828E+01  1.26919150E+02  6.75612247E+02  1.12529845E+02  5.99015525E+02
  5.31102864E+02  1.11805549E+02  6.26720080E+02  5.55666448E+02  5.64885984E+02
  1.36131731E+02  7.36907417E+02  6.53361429E+02  6.77220874E+02  8.01323529E+02
  2.59456373E+00  2.06278363E+01  1.82891803E+01  1.53505284E+01  2.09604198E+01
  9.37598976E-02  1.76949863E+01  1.06076943E+02  9.40505980E+01  9.21192136E+01
  1.13252061E+02  1.93248820E+00  1.43076527E+01  9.41257003E+00  6.13981767E+01
  5.44372326E+01  5.08951803E+01  6.45756063E+01  7.57919667E-01  7.42992380E+00
  3.56012899E+00  1.39830173E+02  7.64308217E+02  6.77655696E+02  6.98618155E+02
  8.29661356E+02  2.08605096E+01  1.16017383E+02  6.55778432E+01  8.58130004E+02
  0.00000000E+00  0.00000000E+00  0.00000000E+00  0.00000000E+00  0.00000000E+00
  0.00000000E+00  0.00000000E+00  0.00000000E+00  0.00000000E+00  0.00000000E+00
  0.00000000E+00  0.00000000E+00  0.00000000E+00  0.00000000E+00  0.00000000E+00
  0.00000000E+00  0.00000000E+00  0.00000000E+00  0.00000000E+00  0.00000000E+00
  0.00000000E+00
%FLAG BONDS_INC_HYDROGEN                                                        
%FORMAT(10I8)                                                                   
       3       6       3       3       9       3       0       3       3      66
      69       5      66      72       5      66      75       5      57      60
       6      57      63       6      48      51       8      48      54       8
      39      42       8      39      45       8      30      33       8      30
      36       8      24      27      10      18      21      13      96      99
       3      96     102       3      96     105       3      90      93      10
      84      87      13     135     138      17     135     141      17     126
     129      17     126     132      17     120     123      10     114     117
      13     165     168      21     165     171      21     165     174      21
     159     162      13     180     177      23     183     177      23     183
     180      24     192     189      23     195     189      23     195     192
      24     204     201      23     207     201      23     207     204      24
     216     213      23     219     213      23     219     216      24     228
     225      23     231     225      23     231     228      24     240     237
      23     243     237      23     243     240      24     252     249      23
     255     249      23     255     252      24     264     261      23     267
     261      23     267     264      24     276     273      23     279     273
      23     279     276      24     288     285      23     291     285      23
     291     288      24     300     297      23     303     297      23     303
     300      24     312     309      23     315     309      23     315     312
      24     324     321      23     327     321      23     327     324      24
     336     333      23     339     333      23     339     336      24     348
     345      23     351     345      23     351     348      24     360     357
      23     363     357      23     363     360      24     372     369      23
     375     369      23     375     372      24     384     381      23     387
     381      23     387     384      24     396     393      23     399     393
      23     399     396      24     408     405      23     411     405      23
     411     408      24     420     417      23     423     417      23     423
     420      24     432     429      23     435     429      23     435     432
      24     444     441      23     447     441      23     447     444      24
     456     453      23     459     453      23     459     456      24     468
     465      23     471     465      23     471     468      24     480     477
      23     483     477      23     483     480      24     492     489      23
     495     489      23     495     492      24     504     501      23     507
     501      23     507     504      24     516     513      23     519     513
      23     519     516      24     528     525      23     531     525      23
     531     528      24     540     537      23     543     537      23     543
     540      24     552     549      23     555     549      23     555     552
      24     564     561      23     567     561      23     567     564      24
     576     573      23     579     573      23     579     576      24     588
     585      23     591     585      23     591     588      24     600     597
      23     603     597      23     603     600      24     612     609      23
     615     609      23     615     612      24     624     621      23     627
     621      23     627     624      24     636     633      23     639     633
      23     639     636      24     648     645      23     651     645      23
     651     648      24     660     657      23     663     657      23     663
     660      24     672     669      23     675     669      23     675     672
      24     684     681      23     687     681      23     687     684      24
     696     693      23     699     693      23     699     696      24     708
     705      23     711     705      23     711     708      24     720     717
      23     723     717      23     723     720      24     732     729      23
     735     729      23     735     732      24     744     741      23     747
     741      23     747     744      24     756     753      23     759     753
      23     759     756      24     768     765      23     771     765      23
     771     768      24     780     777      23     783     777      23     783
     780      24     792     789      23     795     789      23     795     792
      24     804     801      23     807     801      23     807     804      24
     816     813      23     819     813      23     819     816      24     828
     825      23     831     825      23     831     828      24     840     837
      23     843     837      23     843     840      24     852     849      23
     855     849      23     855     852      24     864     861      23     867
     861      23     867     864      24     876     873      23     879     873
      23     879     876      24     888     885      23     891     885      23
     891     888      24     900     897      23     903     897      23     903
     900      24     912     909      23     915     909      23     915     912
      24     924     921      23     927     921      23     927     924      24
     936     933      23     939     933      23     939     936      24     948
     945      23     951     945      23     951     948      24     960     957
      23     963     957      23     963     960      24     972     969      23
     975     969      23     975     972      24     984     981      23     987
     981      23     987     984      24     996     993      23     999     993
      23     999     996      24    1008    1005      23    1011    1005      23
    1011    1008      24    1020    1017      23    1023    1017      23    1023
    1020      24    1032    1029      23    1035    1029      23    1035    1032
      24    1044    1041      23    1047    1041      23    1047    1044      24
    1056    1053      23    1059    1053      23    1059    1056      24    1068
    1065      23    1071    1065      23    1071    1068      24    1080    1077
      23    1083    1077      23    1083    1080      24    1092    1089      23
    1095    1089      23    1095    1092      24    1104    1101      23    1107
    1101      23    1107    1104      24    1116    1113      23    1119    1113
      23    1119    1116      24    1128    1125      23    1131    1125      23
    1131    1128      24    1140    1137      23    1143    1137      23    1143
    1140      24    1152    1149      23    1155    1149      23    1155    1152
      24    1164    1161      23    1167    1161      23    1167    1164      24
    1176    1173      23    1179    1173      23    1179    1176      24    1188
    1185      23    1191    1185      23    1191    1188      24    1200    1197
      23    1203    1197      23    1203    1200      24    1212    1209      23
    1215    1209      23    1215    1212      24    1224    1221      23    1227
    1221      23    1227    1224      24    1236    1233      23    1239    1233
      23    1239    1236      24    1248    1245      23    1251    1245      23
    1251    1248      24    1260    1257      23    1263    1257      23    1263
    1260      24    1272    1269      23    1275    1269      23    1275    1272
      24    1284    1281      23    1287    1281      23    1287    1284      24
    1296    1293      23    1299    1293      23    1299    1296      24    1308
    1305      23    1311    1305      23    1311    1308      24    1320    1317
      23    1323    1317      23    1323    1320      24    1332    1329      23
    1335    1329      23    1335    1332      24    1344    1341      23    1347
    1341      23    1347    1344      24    1356    1353      23    1359    1353
      23    1359    1356      24    1368    1365      23    1371    1365      23
    1371    1368      24    1380    1377      23    1383    1377      23    1383
    1380      24    1392    1389      23    1395    1389      23    1395    1392
      24    1404    1401      23    1407    1401      23    1407    1404      24
    1416    1413      23    1419    1413      23    1419    1416      24    1428
    1425      23    1431    1425      23    1431    1428      24    1440    1437
      23    1443    1437      23    1443    1440      24    1452    1449      23
    1455    1449      23    1455    1452      24    1464    1461      23    1467
    1461      23    1467    1464      24    1476    1473      23    1479    1473
      23    1479    1476      24    1488    1485      23    1491    1485      23
    1491    1488      24    1500    1497      23    1503    1497      23    1503
    1500      24    1512    1509      23    1515    1509      23    1515    1512
      24    1524    1521      23    1527    1521      23    1527    1524      24
    1536    1533      23    1539    1533      23    1539    1536      24    1548
    1545      23    1551    1545      23    1551    1548      24    1560    1557
      23    1563    1557      23    1563    1560      24    1572    1569      23
    1575    1569      23    1575    1572      24    1584    1581      23    1587
    1581      23    1587    1584      24    1596    1593      23    1599    1593
      23    1599    1596      24    1608    1605      23    1611    1605      23
    1611    1608      24    1620    1617      23    1623    1617      23    1623
    1620      24    1632    1629      23    1635    1629      23    1635    1632
      24    1644    1641      23    1647    1641      23    1647    1644      24
    1656    1653      23    1659    1653      23    1659    1656      24    1668
    1665      23    1671    1665      23    1671    1668      24    1680    1677
      23    1683    1677      23    1683    1680      24    1692    1689      23
    1695    1689      23    1695    1692      24    1704    1701      23    1707
    1701      23    1707    1704      24    1716    1713      23    1719    1713
      23    1719    1716      24    1728    1725      23    1731    1725      23
    1731    1728      24    1740    1737      23    1743    1737      23    1743
    1740      24    1752    1749      23    1755    1749      23    1755    1752
      24    1764    1761      23    1767    1761      23    1767    1764      24
    1776    1773      23    1779    1773      23    1779    1776      24    1788
    1785      23    1791    1785      23    1791    1788      24    1800    1797
      23    1803    1797      23    1803    1800      24    1812    1809      23
    1815    1809      23    1815    1812      24    1824    1821      23    1827
    1821      23    1827    1824      24    1836    1833      23    1839    1833
      23    1839    1836      24    1848    1845      23    1851    1845      23
    1851    1848      24    1860    1857      23    1863    1857      23    1863
    1860      24    1872    1869      23    1875    1869      23    1875    1872
      24    1884    1881      23    1887    1881      23    1887    1884      24
    1896    1893      23    1899    1893      23    1899    1896      24    1908
    1905      23    1911    1905      23    1911    1908      24    1920    1917
      23    1923    1917      23    1923    1920      24    1932    1929      23
    1935    1929      23    1935    1932      24    1944    1941      23    1947
    1941      23    1947    1944      24    1956    1953      23    1959    1953
      23    1959    1956      24    1968    1965      23    1971    1965      23
    1971    1968      24    1980    1977      23    1983    1977      23    1983
    1980      24    1992    1989      23    1995    1989      23    1995    1992
      24    2004    2001      23    2007    2001      23    2007    2004      24
    2016    2013      23    2019    2013      23    2019    2016      24    2028
    2025      23    2031    2025      23    2031    2028      24    2040    2037
      23    2043    2037      23    2043    2040      24    2052    2049      23
    2055    2049      23    2055    2052      24    2064    2061      23    2067
    2061      23    2067    2064      24    2076    2073      23    2079    2073
      23    2079    2076      24    2088    2085      23    2091    2085      23
    2091    2088      24    2100    2097      23    2103    2097      23    2103
    2100      24    2112    2109      23    2115    2109      23    2115    2112
      24    2124    2121      23    2127    2121      23    2127    2124      24
    2136    2133      23    2139    2133      23    2139    2136      24    2148
    2145      23    2151    2145      23    2151    2148      24    2160    2157
      23    2163    2157      23    2163    2160      24    2172    2169      23
    2175    2169      23    2175    2172      24    2184    2181      23    2187
    2181      23    2187    2184      24    2196    2193      23    2199    2193
      23    2199    2196      24    2208    2205      23    2211    2205      23
    2211    2208      24    2220    2217      23    2223    2217      23    2223
    2220      24    2232    2229      23    2235    2229      23    2235    2232
      24    2244    2241      23    2247    2241      23    2247    2244      24
    2256    2253      23    2259    2253      23    2259    2256      24    2268
    2265      23    2271    2265      23    2271    2268      24    2280    2277
      23    2283    2277      23    2283    2280      24    2292    2289      23
    2295    2289      23    2295    2292      24    2304    2301      23    2307
    2301      23    2307    2304      24    2316    2313      23    2319    2313
      23    2319    2316      24    2328    2325      23    2331    2325      23
    2331    2328      24    2340    2337      23    2343    2337      23    2343
    2340      24    2352    2349      23    2355    2349      23    2355    2352
      24    2364    2361      23    2367    2361      23    2367    2364      24
    2376    2373      23    2379    2373      23    2379    2376      24    2388
    2385      23    2391    2385      23    2391    2388      24    2400    2397
      23    2403    2397      23    2403    2400      24    2412    2409      23
    2415    2409      23    2415    2412      24    2424    2421      23    2427
    2421      23    2427    2424      24    2436    2433      23    2439    2433
      23    2439    2436      24    2448    2445      23    2451    2445      23
    2451    2448      24    2460    2457      23    2463    2457      23    2463
    2460      24    2472    2469      23    2475    2469      23    2475    2472
      24    2484    2481      23    2487    2481      23    2487    2484      24
    2496    2493      23    2499    2493      23    2499    2496      24    2508
    2505      23    2511    2505      23    2511    2508      24    2520    2517
      23    2523    2517      23    2523    2520      24    2532    2529      23
    2535    2529      23    2535    2532      24    2544    2541      23    2547
    2541      23    2547    2544      24    2556    2553      23    2559    2553
      23    2559    2556      24    2568    2565      23    2571    2565      23
    2571    2568      24    2580    2577      23    2583    2577      23    2583
    2580      24    2592    2589      23    2595    2589      23    2595    2592
      24    2604    2601      23    2607    2601      23    2607    2604      24
    2616    2613      23    2619    2613      23    2619    2616      24    2628
    2625      23    2631    2625      23    2631    2628      24    2640    2637
      23    2643    2637      23    2643    2640      24    2652    2649      23
    2655    2649      23    2655    2652      24    2664    2661      23    2667
    2661      23    2667    2664      24    2676    2673      23    2679    2673
      23    2679    2676      24    2688    2685      23    2691    2685      23
    2691    2688      24    2700    2697      23    2703    2697      23    2703
    2700      24    2712    2709      23    2715    2709      23    2715    2712
      24    2724    2721      23    2727    2721      23    2727    2724      24
    2736    2733      23    2739    2733      23    2739    2736      24    2748
    2745      23    2751    2745      23    2751    2748      24    2760    2757
      23    2763    2757      23    2763    2760      24    2772    2769      23
    2775    2769      23    2775    2772      24    2784    2781      23    2787
    2781      23    2787    2784      24    2796    2793      23    2799    2793
      23    2799    2796      24    2808    2805      23    2811    2805      23
    2811    2808      24    2820    2817      23    2823    2817      23    2823
    2820      24    2832    2829      23    2835    2829      23    2835    2832
      24    2844    2841      23    2847    2841      23    2847    2844      24
    2856    2853      23    2859    2853      23    2859    2856      24    2868
    2865      23    2871    2865      23    2871    2868      24    2880    2877
      23    2883    2877      23    2883    2880      24    2892    2889      23
    2895    2889      23    2895    2892      24    2904    2901      23    2907
    2901      23    2907    2904      24    2916    2913      23    2919    2913
      23    2919    2916      24    2928    2925      23    2931    2925      23
    2931    2928      24    2940    2937      23    2943    2937      23    2943
    2940      24    2952    2949      23    2955    2949      23    2955    2952
      24    2964    2961      23    2967    2961      23    2967    2964      24
    2976    2973      23    2979    2973      23    2979    2976      24    2988
    2985      23    2991    2985      23    2991    2988      24    3000    2997
      23    3003    2997      23    3003    3000      24    3012    3009      23
    3015    3009      23    3015    3012      24    3024    3021      23    3027
    3021      23    3027    3024      24    3036    3033      23    3039    3033
      23    3039    3036      24    3048    3045      23    3051    3045      23
    3051    3048      24    3060    3057      23    3063    3057      23    3063
    3060      24    3072    3069      23    3075    3069      23    3075    3072
      24    3084    3081      23    3087    3081      23    3087    3084      24
    3096    3093      23    3099    3093      23    3099    3096      24    3108
    3105      23    3111    3105      23    3111    3108      24    3120    3117
      23    3123    3117      23    3123    3120      24    3132    3129      23
    3135    3129      23    3135    3132      24    3144    3141      23    3147
    3141      23    3147    3144      24    3156    3153      23    3159    3153
      23    3159    3156      24    3168    3165      23    3171    3165      23
    3171    3168      24    3180    3177      23    3183    3177      23    3183
    3180      24    3192    3189      23    3195    3189      23    3195    3192
      24    3204    3201      23    3207    3201      23    3207    3204      24
    3216    3213      23    3219    3213      23    3219    3216      24    3228
    3225      23    3231    3225      23    3231    3228      24    3240    3237
      23    3243    3237      23    3243    3240      24    3252    3249      23
    3255    3249      23    3255    3252      24    3264    3261      23    3267
    3261      23    3267    3264      24    3276    3273      23    3279    3273
      23    3279    3276      24    3288    3285      23    3291    3285      23
    3291    3288      24    3300    3297      23    3303    3297      23    3303
    3300      24    3312    3309      23    3315    3309      23    3315    3312
      24    3324    3321      23    3327    3321      23    3327    3324      24
    3336    3333      23    3339    3333      23    3339    3336      24    3348
    3345      23    3351    3345      23    3351    3348      24    3360    3357
      23    3363    3357      23    3363    3360      24    3372    3369      23
    3375    3369      23    3375    3372      24    3384    3381      23    3387
    3381      23    3387    3384      24    3396    3393      23    3399    3393
      23    3399    3396      24    3408    3405      23    3411    3405      23
    3411    3408      24    3420    3417      23    3423    3417      23    3423
    3420      24    3432    3429      23    3435    3429      23    3435    3432
      24    3444    3441      23    3447    3441      23    3447    3444      24
    3456    3453      23    3459    3453      23    3459    3456      24    3468
    3465      23    3471    3465      23    3471    3468      24    3480    3477
      23    3483    3477      23    3483    3480      24    3492    3489      23
    3495    3489      23    3495    3492      24    3504    3501      23    3507
    3501      23    3507    3504      24    3516    3513      23    3519    3513
      23    3519    3516      24    3528    3525      23    3531    3525      23
    3531    3528      24    3540    3537      23    3543    3537      23    3543
    3540      24    3552    3549      23    3555    3549      23    3555    3552
      24    3564    3561      23    3567    3561      23    3567    3564      24
    3576    3573      23    3579    3573      23    3579    3576      24    3588
    3585      23    3591    3585      23    3591    3588      24    3600    3597
      23    3603    3597      23    3603    3600      24    3612    3609      23
    3615    3609      23    3615    3612      24    3624    3621      23    3627
    3621      23    3627    3624      24    3636    3633      23    3639    3633
      23    3639    3636      24    3648    3645      23    3651    3645      23
    3651    3648      24    3660    3657      23    3663    3657      23    3663
    3660      24    3672    3669      23    3675    3669      23    3675    3672
      24    3684    3681      23    3687    3681      23    3687    3684      24
    3696    3693      23    3699    3693      23    3699    3696      24    3708
    3705      23    3711    3705      23    3711    3708      24    3720    3717
      23    3723    3717      23    3723    3720      24    3732    3729      23
    3735    3729      23    3735    3732      24    3744    3741      23    3747
    3741      23    3747    3744      24    3756    3753      23    3759    3753
      23    3759    3756      24    3768    3765      23    3771    3765      23
    3771    3768      24    3780    3777      23    3783    3777      23    3783
    3780      24    3792    3789      23    3795    3789      23    3795    3792
      24    3804    3801      23    3807    3801      23    3807    3804      24
    3816    3813      23    3819    3813      23    3819    3816      24    3828
    3825      23    3831    3825      23    3831    3828      24    3840    3837
      23    3843    3837      23    3843    3840      24    3852    3849      23
    3855    3849      23    3855    3852      24    3864    3861      23    3867
    3861      23    3867    3864      24    3876    3873      23    3879    3873
      23    3879    3876      24    3888    3885      23    3891    3885      23
    3891    3888      24    3900    3897      23    3903    3897      23    3903
    3900      24    3912    3909      23    3915    3909      23    3915    3912
      24    3924    3921      23    3927    3921      23    3927    3924      24
    3936    3933      23    3939    3933      23    3939    3936      24    3948
    3945      23    3951    3945      23    3951    3948      24    3960    3957
      23    3963    3957      23    3963    3960      24    3972    3969      23
    3975    3969      23    3975    3972      24    3984    3981      23    3987
    3981      23    3987    3984      24    3996    3993      23    3999    3993
      23    3999    3996      24    4008    4005      23    4011    4005      23
    4011    4008      24    4020    4017      23    4023    4017      23    4023
    4020      24    4032    4029      23    4035    4029      23    4035    4032
      24    4044    4041      23    4047    4041      23    4047    4044      24
    4056    4053      23    4059    4053      23    4059    4056      24    4068
    4065      23    4071    4065      23    4071    4068      24    4080    4077
      23    4083    4077      23    4083    4080      24    4092    4089      23
    4095    4089      23    4095    4092      24    4104    4101      23    4107
    4101      23    4107    4104      24    4116    4113      23    4119    4113
      23    4119    4116      24    4128    4125      23    4131    4125      23
    4131    4128      24    4140    4137      23    4143    4137      23    4143
    4140      24    4152    4149      23    4155    4149      23    4155    4152
      24    4164    4161      23    4167    4161      23    4167    4164      24
    4176    4173      23    4179    4173      23    4179    4176      24    4188
    4185      23    4191    4185      23    4191    4188      24    4200    4197
      23    4203    4197      23    4203    4200      24    4212    4209      23
    4215    4209      23    4215    4212      24    4224    4221      23    4227
    4221      23    4227    4224      24    4236    4233      23    4239    4233
      23    4239    4236      24    4248    4245      23    4251    4245      23
    4251    4248      24    4260    4257      23    4263    4257      23    4263
    4260      24    4272    4269      23    4275    4269      23    4275    4272
      24    4284    4281      23    4287    4281      23    4287    4284      24
    4296    4293      23    4299    4293      23    4299    4296      24    4308
    4305      23    4311    4305      23    4311    4308      24    4320    4317
      23    4323    4317      23    4323    4320      24    4332    4329      23
    4335    4329      23    4335    4332      24    4344    4341      23    4347
    4341      23    4347    4344      24    4356    4353      23    4359    4353
      23    4359    4356      24    4368    4365      23    4371    4365      23
    4371    4368      24    4380    4377      23    4383    4377      23    4383
    4380      24    4392    4389      23    4395    4389      23    4395    4392
      24    4404    4401      23    4407    4401      23    4407    4404      24
    4416    4413      23    4419    4413      23    4419    4416      24    4428
    4425      23    4431    4425      23    4431    4428      24    4440    4437
      23    4443    4437      23    4443    4440      24    4452    4449      23
    4455    4449      23    4455    4452      24    4464    4461      23    4467
    4461      23    4467    4464      24    4476    4473      23    4479    4473
      23    4479    4476      24    4488    4485      23    4491    4485      23
    4491    4488      24    4500    4497      23    4503    4497      23    4503
    4500      24    4512    4509      23    4515    4509      23    4515    4512
      24    4524    4521      23    4527    4521      23    4527    4524      24
    4536    4533      23    4539    4533      23    4539    4536      24    4548
    4545      23    4551    4545      23    4551    4548      24    4560    4557
      23    4563    4557      23    4563    4560      24    4572    4569      23
    4575    4569      23    4575    4572      24    4584    4581      23    4587
    4581      23    4587    4584      24    4596    4593      23    4599    4593
      23    4599    4596      24    4608    4605      23    4611    4605      23
    4611    4608      24    4620    4617      23    4623    4617      23    4623
    4620      24    4632    4629      23    4635    4629      23    4635    4632
      24    4644    4641      23    4647    4641      23    4647    4644      24
    4656    4653      23    4659    4653      23    4659    4656      24    4668
    4665      23    4671    4665      23    4671    4668      24    4680    4677
      23    4683    4677      23    4683    4680      24    4692    4689      23
    4695    4689      23    4695    4692      24    4704    4701      23    4707
    4701      23    4707    4704      24    4716    4713      23    4719    4713
      23    4719    4716      24    4728    4725      23    4731    4725      23
    4731    4728      24    4740    4737      23    4743    4737      23    4743
    4740      24    4752    4749      23    4755    4749      23    4755    4752
      24    4764    4761      23    4767    4761      23    4767    4764      24
    4776    4773      23    4779    4773      23    4779    4776      24    4788
    4785      23    4791    4785      23    4791    4788      24    4800    4797
      23    4803    4797      23    4803    4800      24    4812    4809      23
    4815    4809      23    4815    4812      24    4824    4821      23    4827
    4821      23    4827    4824      24    4836    4833      23    4839    4833
      23    4839    4836      24    4848    4845      23    4851    4845      23
    4851    4848      24    4860    4857      23    4863    4857      23    4863
    4860      24    4872    4869      23    4875    4869      23    4875    4872
      24    4884    4881      23    4887    4881      23    4887    4884      24
    4896    4893      23    4899    4893      23    4899    4896      24    4908
    4905      23    4911    4905      23    4911    4908      24    4920    4917
      23    4923    4917      23    4923    4920      24    4932    4929      23
    4935    4929      23    4935    4932      24    4944    4941      23    4947
    4941      23    4947    4944      24    4956    4953      23    4959    4953
      23    4959    4956      24    4968    4965      23    4971    4965      23
    4971    4968      24    4980    4977      23    4983    4977      23    4983
    4980      24    4992    4989      23    4995    4989      23    4995    4992
      24    5004    5001      23    5007    5001      23    5007    5004      24
    5016    5013      23    5019    5013      23    5019    5016      24    5028
    5025      23    5031    5025      23    5031    5028      24    5040    5037
      23    5043    5037      23    5043    5040      24    5052    5049      23
    5055    5049      23    5055    5052      24    5064    5061      23    5067
    5061      23    5067    5064      24    5076    5073      23    5079    5073
      23    5079    5076      24    5088    5085      23    5091    5085      23
    5091    5088      24    5100    5097      23    5103    5097      23    5103
    5100      24    5112    5109      23    5115    5109      23    5115    5112
      24    5124    5121      23    5127    5121      23    5127    5124      24
    5136    5133      23    5139    5133      23    5139    5136      24    5148
    5145      23    5151    5145      23    5151    5148      24    5160    5157
      23    5163    5157      23    5163    5160      24    5172    5169      23
    5175    5169      23    5175    5172      24    5184    5181      23    5187
    5181      23    5187    5184      24    5196    5193      23    5199    5193
      23    5199    5196      24    5208    5205      23    5211    5205      23
    5211    5208      24    5220    5217      23    5223    5217      23    5223
    5220      24    5232    5229      23    5235    5229      23    5235    5232
      24    5244    5241      23    5247    5241      23    5247    5244      24
    5256    5253      23    5259    5253      23    5259    5256      24    5268
    5265      23    5271    5265      23    5271    5268      24    5280    5277
      23    5283    5277      23    5283    5280      24    5292    5289      23
    5295    5289      23    5295    5292      24    5304    5301      23    5307
    5301      23    5307    5304      24    5316    5313      23    5319    5313
      23    5319    5316      24    5328    5325      23    5331    5325      23
    5331    5328      24    5340    5337      23    5343    5337      23    5343
    5340      24    5352    5349      23    5355    5349      23    5355    5352
      24    5364    5361      23    5367    5361      23    5367    5364      24
    5376    5373      23    5379    5373      23    5379    5376      24    5388
    5385      23    5391    5385      23    5391    5388      24    5400    5397
      23    5403    5397      23    5403    5400      24    5412    5409      23
    5415    5409      23    5415    5412      24    5424    5421      23    5427
    5421      23    5427    5424      24    5436    5433      23    5439    5433
      23    5439    5436      24    5448    5445      23    5451    5445      23
    5451    5448      24    5460    5457      23    5463    5457      23    5463
    5460      24    5472    5469      23    5475    5469      23    5475    5472
      24    5484    5481      23    5487    5481      23    5487    5484      24
    5496    5493      23    5499    5493      23    5499    5496      24    5508
    5505      23    5511    5505      23    5511    5508      24    5520    5517
      23    5523    5517      23    5523    5520      24    5532    5529      23
    5535    5529      23    5535    5532      24    5544    5541      23    5547
    5541      23    5547    5544      24    5556    5553      23    5559    5553
      23    5559    5556      24    5568    5565      23    5571    5565      23
    5571    5568      24    5580    5577      23    5583    5577      23    5583
    5580      24    5592    5589      23    5595    5589      23    5595    5592
      24    5604    5601      23    5607    5601      23    5607    5604      24
    5616    5613      23    5619    5613      23    5619    5616      24    5628
    5625      23    5631    5625      23    5631    5628      24    5640    5637
      23    5643    5637      23    5643    5640      24    5652    5649      23
    5655    5649      23    5655    5652      24    5664    5661      23    5667
    5661      23    5667    5664      24    5676    5673      23    5679    5673
      23    5679    5676      24    5688    5685      23    5691    5685      23
    5691    5688      24    5700    5697      23    5703    5697      23    5703
    5700      24    5712    5709      23    5715    5709      23    5715    5712
      24    5724    5721      23    5727    5721      23    5727    5724      24
    5736    5733      23    5739    5733      23    5739    5736      24    5748
    5745      23    5751    5745      23    5751    5748      24    5760    5757
      23    5763    5757      23    5763    5760      24    5772    5769      23
    5775    5769      23    5775    5772      24    5784    5781      23    5787
    5781      23    5787    5784      24    5796    5793      23    5799    5793
      23    5799    5796      24    5808    5805      23    5811    5805      23
    5811    5808      24    5820    5817      23    5823    5817      23    5823
    5820      24    5832    5829      23    5835    5829      23    5835    5832
      24    5844    5841      23    5847    5841      23    5847    5844      24
    5856    5853      23    5859    5853      23    5859    5856      24    5868
    5865      23    5871    5865      23    5871    5868      24    5880    5877
      23    5883    5877      23    5883    5880      24    5892    5889      23
    5895    5889      23    5895    5892      24    5904    5901      23    5907
    5901      23    5907    5904      24    5916    5913      23    5919    5913
      23    5919    5916      24    5928    5925      23    5931    5925      23
    5931    5928      24    5940    5937      23    5943    5937      23    5943
    5940      24    5952    5949      23    5955    5949      23    5955    5952
      24    5964    5961      23    5967    5961      23    5967    5964      24
    5976    5973      23    5979    5973      23    5979    5976      24    5988
    5985      23    5991    5985      23    5991    5988      24    6000    5997
      23    6003    5997      23    6003    6000      24    6012    6009      23
    6015    6009      23    6015    6012      24    6024    6021      23    6027
    6021      23    6027    6024      24    6036    6033      23    6039    6033
      23    6039    6036      24    6048    6045      23    6051    6045      23
    6051    6048      24    6060    6057      23    6063    6057      23    6063
    6060      24    6072    6069      23    6075    6069      23    6075    6072
      24    6084    6081      23    6087    6081      23    6087    6084      24
    6096    6093      23    6099    6093      23    6099    6096      24    6108
    6105      23    6111    6105      23    6111    6108      24    6120    6117
      23    6123    6117      23    6123    6120      24    6132    6129      23
    6135    6129      23    6135    6132      24    6144    6141      23    6147
    6141      23    6147    6144      24    6156    6153      23    6159    6153
      23    6159    6156      24    6168    6165      23    6171    6165      23
    6171    6168      24    6180    6177      23    6183    6177      23    6183
    6180      24    6192    6189      23    6195    6189      23    6195    6192
      24    6204    6201      23    6207    6201      23    6207    6204      24
    6216    6213      23    6219    6213      23    6219    6216      24    6228
    6225      23    6231    6225      23    6231    6228      24    6240    6237
      23    6243    6237      23    6243    6240      24    6252    6249      23
    6255    6249      23    6255    6252      24    6264    6261      23    6267
    6261      23    6267    6264      24    6276    6273      23    6279    6273
      23    6279    6276      24    6288    6285      23    6291    6285      23
    6291    6288      24    6300    6297      23    6303    6297      23    6303
    6300      24    6312    6309      23    6315    6309      23    6315    6312
      24    6324    6321      23    6327    6321      23    6327    6324      24
    6336    6333      23    6339    6333      23    6339    6336      24    6348
    6345      23    6351    6345      23    6351    6348      24    6360    6357
      23    6363    6357      23    6363    6360      24    6372    6369      23
    6375    6369      23    6375    6372      24    6384    6381      23    6387
    6381      23    6387    6384      24    6396    6393      23    6399    6393
      23    6399    6396      24    6408    6405      23    6411    6405      23
    6411    6408      24    6420    6417      23    6423    6417      23    6423
    6420      24    6432    6429      23    6435    6429      23    6435    6432
      24    6444    6441      23    6447    6441      23    6447    6444      24
    6456    6453      23    6459    6453      23    6459    6456      24    6468
    6465      23    6471    6465      23    6471    6468      24    6480    6477
      23    6483    6477      23    6483    6480      24    6492    6489      23
    6495    6489      23    6495    6492      24    6504    6501      23    6507
    6501      23    6507    6504      24    6516    6513      23    6519    6513
      23    6519    6516      24    6528    6525      23    6531    6525      23
    6531    6528      24    6540    6537      23    6543    6537      23    6543
    6540      24    6552    6549      23    6555    6549      23    6555    6552
      24    6564    6561      23    6567    6561      23    6567    6564      24
    6576    6573      23    6579    6573      23    6579    6576      24    6588
    6585      23    6591    6585      23    6591    6588      24    6600    6597
      23    6603    6597      23    6603    6600      24    6612    6609      23
    6615    6609      23    6615    6612      24    6624    6621      23    6627
    6621      23    6627    6624      24    6636    6633      23    6639    6633
      23    6639    6636      24    6648    6645      23    6651    6645      23
    6651    6648      24    6660    6657      23    6663    6657      23    6663
    6660      24    6672    6669      23    6675    6669      23    6675    6672
      24    6684    6681      23    6687    6681      23    6687    6684      24
    6696    6693      23    6699    6693      23    6699    6696      24    6708
    6705      23    6711    6705      23    6711    6708      24    6720    6717
      23    6723    6717      23    6723    6720      24    6732    6729      23
    6735    6729      23    6735    6732      24    6744    6741      23    6747
    6741      23    6747    6744      24    6756    6753      23    6759    6753
      23    6759    6756      24    6768    6765      23    6771    6765      23
    6771    6768      24    6780    6777      23    6783    6777      23    6783
    6780      24    6792    6789      23    6795    6789      23    6795    6792
      24    6804    6801      23    6807    6801      23    6807    6804      24
    6816    6813      23    6819    6813      23    6819    6816      24    6828
    6825      23    6831    6825      23    6831    6828      24    6840    6837
      23    6843    6837      23    6843    6840      24    6852    6849      23
    6855    6849      23    6855    6852      24    6864    6861      23    6867
    6861      23    6867    6864      24    6876    6873      23    6879    6873
      23    6879    6876      24    6888    6885      23    6891    6885      23
    6891    6888      24    6900    6897      23    6903    6897      23    6903
    6900      24    6912    6909      23    6915    6909      23    6915    6912
      24    6924    6921      23    6927    6921      23    6927    6924      24
    6936    6933      23    6939    6933      23    6939    6936      24    6948
    6945      23    6951    6945      23    6951    6948      24    6960    6957
      23    6963    6957      23    6963    6960      24    6972    6969      23
    6975    6969      23    6975    6972      24    6984    6981      23    6987
    6981      23    6987    6984      24    6996    6993      23    6999    6993
      23    6999    6996      24    7008    7005      23    7011    7005      23
    7011    7008      24    7020    7017      23    7023    7017      23    7023
    7020      24    7032    7029      23    7035    7029      23    7035    7032
      24    7044    7041      23    7047    7041      23    7047    7044      24
    7056    7053      23    7059    7053      23    7059    7056      24    7068
    7065      23    7071    7065      23    7071    7068      24    7080    7077
      23    7083    7077      23    7083    7080      24    7092    7089      23
    7095    7089      23    7095    7092      24    7104    7101      23    7107
    7101      23    7107    7104      24    7116    7113      23    7119    7113
      23    7119    7116      24    7128    7125      23    7131    7125      23
    7131    7128      24    7140    7137      23    7143    7137      23    7143
    7140      24    7152    7149      23    7155    7149      23    7155    7152
      24    7164    7161      23    7167    7161      23    7167    7164      24
    7176    7173      23    7179    7173      23    7179    7176      24    7188
    7185      23    7191    7185      23    7191    7188      24    7200    7197
      23    7203    7197      23    7203    7200      24    7212    7209      23
    7215    7209      23    7215    7212      24    7224    7221      23    7227
    7221      23    7227    7224      24    7236    7233      23    7239    7233
      23    7239    7236      24    7248    7245      23    7251    7245      23
    7251    7248      24    7260    7257      23    7263    7257      23    7263
    7260      24    7272    7269      23    7275    7269      23    7275    7272
      24    7284    7281      23    7287    7281      23    7287    7284      24
    7296    7293      23    7299    7293      23    7299    7296      24    7308
    7305      23    7311    7305      23    7311    7308      24    7320    7317
      23    7323    7317      23    7323    7320      24    7332    7329      23
    7335    7329      23    7335    7332      24    7344    7341      23    7347
    7341      23    7347    7344      24    7356    7353      23    7359    7353
      23    7359    7356      24    7368    7365      23    7371    7365      23
    7371    7368      24    7380    7377      23    7383    7377      23    7383
    7380      24    7392    7389      23    7395    7389      23    7395    7392
      24    7404    7401      23    7407    7401      23    7407    7404      24
    7416    7413      23    7419    7413      23    7419    7416      24    7428
    7425      23    7431    7425      23    7431    7428      24    7440    7437
      23    7443    7437      23    7443    7440      24    7452    7449      23
    7455    7449      23    7455    7452      24    7464    7461      23    7467
    7461      23    7467    7464      24    7476    7473      23    7479    7473
      23    7479    7476      24    7488    7485      23    7491    7485      23
    7491    7488      24    7500    7497      23    7503    7497      23    7503
    7500      24    7512    7509      23    7515    7509      23    7515    7512
      24    7524    7521      23    7527    7521      23    7527    7524      24
    7536    7533      23    7539    7533      23    7539    7536      24    7548
    7545      23    7551    7545      23    7551    7548      24    7560    7557
      23    7563    7557      23    7563    7560      24    7572    7569      23
    7575    7569      23    7575    7572      24    7584    7581      23    7587
    7581      23    7587    7584      24    7596    7593      23    7599    7593
      23    7599    7596      24    7608    7605      23    7611    7605      23
    7611    7608      24    7620    7617      23    7623    7617      23    7623
    7620      24    7632    7629      23    7635    7629      23    7635    7632
      24    7644    7641      23    7647    7641      23    7647    7644      24
    7656    7653      23    7659    7653      23    7659    7656      24    7668
    7665      23    7671    7665      23    7671    7668      24    7680    7677
      23    7683    7677      23    7683    7680      24    7692    7689      23
    7695    7689      23    7695    7692      24    7704    7701      23    7707
    7701      23    7707    7704      24    7716    7713      23    7719    7713
      23    7719    7716      24    7728    7725      23    7731    7725      23
    7731    7728      24    7740    7737      23    7743    7737      23    7743
    7740      24    7752    7749      23    7755    7749      23    7755    7752
      24    7764    7761      23    7767    7761      23    7767    7764      24
    7776    7773      23    7779    7773      23    7779    7776      24    7788
    7785      23    7791    7785      23    7791    7788      24    7800    7797
      23    7803    7797      23    7803    7800      24    7812    7809      23
    7815    7809      23    7815    7812      24    7824    7821      23    7827
    7821      23    7827    7824      24    7836    7833      23    7839    7833
      23    7839    7836      24    7848    7845      23    7851    7845      23
    7851    7848      24    7860    7857      23    7863    7857      23    7863
    7860      24    7872    7869      23    7875    7869      23    7875    7872
      24    7884    7881      23    7887    7881      23    7887    7884      24
    7896    7893      23    7899    7893      23    7899    7896      24    7908
    7905      23    7911    7905      23    7911    7908      24    7920    7917
      23    7923    7917      23    7923    7920      24    7932    7929      23
    7935    7929      23    7935    7932      24    7944    7941      23    7947
    7941      23    7947    7944      24    7956    7953      23    7959    7953
      23    7959    7956      24    7968    7965      23    7971    7965      23
    7971    7968      24    7980    7977      23    7983    7977      23    7983
    7980      24    7992    7989      23    7995    7989      23    7995    7992
      24    8004    8001      23    8007    8001      23    8007    8004      24
    8016    8013      23    8019    8013      23    8019    8016      24    8028
    8025      23    8031    8025      23    8031    8028      24    8040    8037
      23    8043    8037      23    8043    8040      24    8052    8049      23
    8055    8049      23    8055    8052      24    8064    8061      23    8067
    8061      23    8067    8064      24    8076    8073      23    8079    8073
      23    8079    8076      24    8088    8085      23    8091    8085      23
    8091    8088      24    8100    8097      23    8103    8097      23    8103
    8100      24    8112    8109      23    8115    8109      23    8115    8112
      24    8124    8121      23    8127    8121      23    8127    8124      24
    8136    8133      23    8139    8133      23    8139    8136      24    8148
    8145      23    8151    8145      23    8151    8148      24    8160    8157
      23    8163    8157      23    8163    8160      24    8172    8169      23
    8175    8169      23    8175    8172      24    8184    8181      23    8187
    8181      23    8187    8184      24    8196    8193      23    8199    8193
      23    8199    8196      24    8208    8205      23    8211    8205      23
    8211    8208      24    8220    8217      23    8223    8217      23    8223
    8220      24    8232    8229      23    8235    8229      23    8235    8232
      24    8244    8241      23    8247    8241      23    8247    8244      24
    8256    8253      23    8259    8253      23    8259    8256      24    8268
    8265      23    8271    8265      23    8271    8268      24    8280    8277
      23    8283    8277      23    8283    8280      24    8292    8289      23
    8295    8289      23    8295    8292      24    8304    8301      23    8307
    8301      23    8307    8304      24    8316    8313      23    8319    8313
      23    8319    8316      24    8328    8325      23    8331    8325      23
    8331    8328      24    8340    8337      23    8343    8337      23    8343
    8340      24    8352    8349      23    8355    8349      23    8355    8352
      24    8364    8361      23    8367    8361      23    8367    8364      24
    8376    8373      23    8379    8373      23    8379    8376      24    8388
    8385      23    8391    8385      23    8391    8388      24    8400    8397
      23    8403    8397      23    8403    8400      24    8412    8409      23
    8415    8409      23    8415    8412      24    8424    8421      23    8427
    8421      23    8427    8424      24    8436    8433      23    8439    8433
      23    8439    8436      24    8448    8445      23    8451    8445      23
    8451    8448      24    8460    8457      23    8463    8457      23    8463
    8460      24    8472    8469      23    8475    8469      23    8475    8472
      24    8484    8481      23    8487    8481      23    8487    8484      24
    8496    8493      23    8499    8493      23    8499    8496      24    8508
    8505      23    8511    8505      23    8511    8508      24    8520    8517
      23    8523    8517      23    8523    8520      24    8532    8529      23
    8535    8529      23    8535    8532      24    8544    8541      23    8547
    8541      23    8547    8544      24    8556    8553      23    8559    8553
      23    8559    8556      24    8568    8565      23    8571    8565      23
    8571    8568      24    8580    8577      23    8583    8577      23    8583
    8580      24    8592    8589      23    8595    8589      23    8595    8592
      24    8604    8601      23    8607    8601      23    8607    8604      24
    8616    8613      23    8619    8613      23    8619    8616      24    8628
    8625      23    8631    8625      23    8631    8628      24    8640    8637
      23    8643    8637      23    8643    8640      24    8652    8649      23
    8655    8649      23    8655    8652      24    8664    8661      23    8667
    8661      23    8667    8664      24    8676    8673      23    8679    8673
      23    8679    8676      24    8688    8685      23    8691    8685      23
    8691    8688      24    8700    8697      23    8703    8697      23    8703
    8700      24    8712    8709      23    8715    8709      23    8715    8712
      24    8724    8721      23    8727    8721      23    8727    8724      24
    8736    8733      23    8739    8733      23    8739    8736      24    8748
    8745      23    8751    8745      23    8751    8748      24    8760    8757
      23    8763    8757      23    8763    8760      24    8772    8769      23
    8775    8769      23    8775    8772      24    8784    8781      23    8787
    8781      23    8787    8784      24    8796    8793      23    8799    8793
      23    8799    8796      24    8808    8805      23    8811    8805      23
    8811    8808      24    8820    8817      23    8823    8817      23    8823
    8820      24    8832    8829      23    8835    8829      23    8835    8832
      24    8844    8841      23    8847    8841      23    8847    8844      24
    8856    8853      23    8859    8853      23    8859    8856      24    8868
    8865      23    8871    8865      23    8871    8868      24    8880    8877
      23    8883    8877      23    8883    8880      24    8892    8889      23
    8895    8889      23    8895    8892      24    8904    8901      23    8907
    8901      23    8907    8904      24    8916    8913      23    8919    8913
      23    8919    8916      24    8928    8925      23    8931    8925      23
    8931    8928      24    8940    8937      23    8943    8937      23    8943
    8940      24    8952    8949      23    8955    8949      23    8955    8952
      24    8964    8961      23    8967    8961      23    8967    8964      24
    8976    8973      23    8979    8973      23    8979    8976      24    8988
    8985      23    8991    8985      23    8991    8988      24    9000    8997
      23    9003    8997      23    9003    9000      24    9012    9009      23
    9015    9009      23    9015    9012      24    9024    9021      23    9027
    9021      23    9027    9024      24    9036    9033      23    9039    9033
      23    9039    9036      24    9048    9045      23    9051    9045      23
    9051    9048      24    9060    9057      23    9063    9057      23    9063
    9060      24    9072    9069      23    9075    9069      23    9075    9072
      24    9084    9081      23    9087    9081      23    9087    9084      24
    9096    9093      23    9099    9093      23    9099    9096      24    9108
    9105      23    9111    9105      23    9111    9108      24    9120    9117
      23    9123    9117      23    9123    9120      24    9132    9129      23
    9135    9129      23    9135    9132      24    9144    9141      23    9147
    9141      23    9147    9144      24    9156    9153      23    9159    9153
      23    9159    9156      24    9168    9165      23    9171    9165      23
    9171    9168      24    9180    9177      23    9183    9177      23    9183
    9180      24    9192    9189      23    9195    9189      23    9195    9192
      24    9204    9201      23    9207    9201      23    9207    9204      24
    9216    9213      23    9219    9213      23    9219    9216      24    9228
    9225      23    9231    9225      23    9231    9228      24    9240    9237
      23    9243    9237      23    9243    9240      24    9252    9249      23
    9255    9249      23    9255    9252      24    9264    9261      23    9267
    9261      23    9267    9264      24    9276    9273      23    9279    9273
      23    9279    9276      24    9288    9285      23    9291    9285      23
    9291    9288      24    9300    9297      23    9303    9297      23    9303
    9300      24    9312    9309      23    9315    9309      23    9315    9312
      24    9324    9321      23    9327    9321      23    9327    9324      24
    9336    9333      23    9339    9333      23    9339    9336      24    9348
    9345      23    9351    9345      23    9351    9348      24    9360    9357
      23    9363    9357      23    9363    9360      24    9372    9369      23
    9375    9369      23    9375    9372      24    9384    9381      23    9387
    9381      23    9387    9384      24    9396    9393      23    9399    9393
      23    9399    9396      24    9408    9405      23    9411    9405      23
    9411    9408      24    9420    9417      23    9423    9417      23    9423
    9420      24    9432    9429      23    9435    9429      23    9435    9432
      24    9444    9441      23    9447    9441      23    9447    9444      24
    9456    9453      23    9459    9453      23    9459    9456      24    9468
    9465      23    9471    9465      23    9471    9468      24    9480    9477
      23    9483    9477      23    9483    9480      24    9492    9489      23
    9495    9489      23    9495    9492      24    9504    9501      23    9507
    9501      23    9507    9504      24    9516    9513      23    9519    9513
      23    9519    9516      24    9528    9525      23    9531    9525      23
    9531    9528      24    9540    9537      23    9543    9537      23    9543
    9540      24    9552    9549      23    9555    9549      23    9555    9552
      24    9564    9561      23    9567    9561      23    9567    9564      24
    9576    9573      23    9579    9573      23    9579    9576      24    9588
    9585      23    9591    9585      23    9591    9588      24    9600    9597
      23    9603    9597      23    9603    9600      24    9612    9609      23
    9615    9609      23    9615    9612      24    9624    9621      23    9627
    9621      23    9627    9624      24    9636    9633      23    9639    9633
      23    9639    9636      24    9648    9645      23    9651    9645      23
    9651    9648      24    9660    9657      23    9663    9657      23    9663
    9660      24    9672    9669      23    9675    9669      23    9675    9672
      24    9684    9681      23    9687    9681      23    9687    9684      24
    9696    9693      23    9699    9693      23    9699    9696      24    9708
    9705      23    9711    9705      23    9711    9708      24    9720    9717
      23    9723    9717      23    9723    9720      24    9732    9729      23
    9735    9729      23    9735    9732      24    9744    9741      23    9747
    9741      23    9747    9744      24    9756    9753      23    9759    9753
      23    9759    9756      24    9768    9765      23    9771    9765      23
    9771    9768      24    9780    9777      23    9783    9777      23    9783
    9780      24    9792    9789      23    9795    9789      23    9795    9792
      24    9804    9801      23    9807    9801      23    9807    9804      24
    9816    9813      23    9819    9813      23    9819    9816      24    9828
    9825      23    9831    9825      23    9831    9828      24    9840    9837
      23    9843    9837      23    9843    9840      24    9852    9849      23
    9855    9849      23    9855    9852      24    9864    9861      23    9867
    9861      23    9867    9864      24    9876    9873      23    9879    9873
      23    9879    9876      24    9888    9885      23    9891    9885      23
    9891    9888      24    9900    9897      23    9903    9897      23    9903
    9900      24    9912    9909      23    9915    9909      23    9915    9912
      24    9924    9921      23    9927    9921      23    9927    9924      24
    9936    9933      23    9939    9933      23    9939    9936      24    9948
    9945      23    9951    9945      23    9951    9948      24    9960    9957
      23    9963    9957      23    9963    9960      24    9972    9969      23
    9975    9969      23    9975    9972      24    9984    9981      23    9987
    9981      23    9987    9984      24    9996    9993      23    9999    9993
      23    9999    9996      24   10008   10005      23   10011   10005      23
   10011   10008      24   10020   10017      23   10023   10017      23   10023
   10020      24   10032   10029      23   10035   10029      23   10035   10032
      24   10044   10041      23   10047   10041      23   10047   10044      24
   10056   10053      23   10059   10053      23   10059   10056      24   10068
   10065      23   10071   10065      23   10071   10068      24   10080   10077
      23   10083   10077      23   10083   10080      24   10092   10089      23
   10095   10089      23   10095   10092      24   10104   10101      23   10107
   10101      23   10107   10104      24   10116   10113      23   10119   10113
      23   10119   10116      24   10128   10125      23   10131   10125      23
   10131   10128      24   10140   10137      23   10143   10137      23   10143
   10140      24   10152   10149      23   10155   10149      23   10155   10152
      24   10164   10161      23   10167   10161      23   10167   10164      24
   10176   10173      23   10179   10173      23   10179   10176      24   10188
   10185      23   10191   10185      23   10191   10188      24   10200   10197
      23   10203   10197      23   10203   10200      24   10212   10209      23
   10215   10209      23   10215   10212      24   10224   10221      23   10227
   10221      23   10227   10224      24   10236   10233      23   10239   10233
      23   10239   10236      24   10248   10245      23   10251   10245      23
   10251   10248      24   10260   10257      23   10263   10257      23   10263
   10260      24   10272   10269      23   10275   10269      23   10275   10272
      24   10284   10281      23   10287   10281      23   10287   10284      24
   10296   10293      23   10299   10293      23   10299   10296      24   10308
   10305      23   10311   10305      23   10311   10308      24   10320   10317
      23   10323   10317      23   10323   10320      24   10332   10329      23
   10335   10329      23   10335   10332      24   10344   10341      23   10347
   10341      23   10347   10344      24   10356   10353      23   10359   10353
      23   10359   10356      24   10368   10365      23   10371   10365      23
   10371   10368      24   10380   10377      23   10383   10377      23   10383
   10380      24   10392   10389      23   10395   10389      23   10395   10392
      24   10404   10401      23   10407   10401      23   10407   10404      24
   10416   10413      23   10419   10413      23   10419   10416      24   10428
   10425      23   10431   10425      23   10431   10428      24   10440   10437
      23   10443   10437      23   10443   10440      24   10452   10449      23
   10455   10449      23   10455   10452      24   10464   10461      23   10467
   10461      23   10467   10464      24   10476   10473      23   10479   10473
      23   10479   10476      24   10488   10485      23   10491   10485      23
   10491   10488      24   10500   10497      23   10503   10497      23   10503
   10500      24   10512   10509      23   10515   10509      23   10515   10512
      24   10524   10521      23   10527   10521      23   10527   10524      24
   10536   10533      23   10539   10533      23   10539   10536      24   10548
   10545      23   10551   10545      23   10551   10548      24   10560   10557
      23   10563   10557      23   10563   10560      24   10572   10569      23
   10575   10569      23   10575   10572      24   10584   10581      23   10587
   10581      23   10587   10584      24   10596   10593      23   10599   10593
      23   10599   10596      24   10608   10605      23   10611   10605      23
   10611   10608      24   10620   10617      23   10623   10617      23   10623
   10620      24   10632   10629      23   10635   10629      23   10635   10632
      24   10644   10641      23   10647   10641      23   10647   10644      24
   10656   10653      23   10659   10653      23   10659   10656      24   10668
   10665      23   10671   10665      23   10671   10668      24   10680   10677
      23   10683   10677      23   10683   10680      24   10692   10689      23
   10695   10689      23   10695   10692      24   10704   10701      23   10707
   10701      23   10707   10704      24   10716   10713      23   10719   10713
      23   10719   10716      24   10728   10725      23   10731   10725      23
   10731   10728      24   10740   10737      23   10743   10737      23   10743
   10740      24   10752   10749      23   10755   10749      23   10755   10752
      24   10764   10761      23   10767   10761      23   10767   10764      24
   10776   10773      23   10779   10773      23   10779   10776      24   10788
   10785      23   10791   10785      23   10791   10788      24   10800   10797
      23   10803   10797      23   10803   10800      24   10812   10809      23
   10815   10809      23   10815   10812      24   10824   10821      23   10827
   10821      23   10827   10824      24   10836   10833      23   10839   10833
      23   10839   10836      24   10848   10845      23   10851   10845      23
   10851   10848      24   10860   10857      23   10863   10857      23   10863
   10860      24   10872   10869      23   10875   10869      23   10875   10872
      24   10884   10881      23   10887   10881      23   10887   10884      24
   10896   10893      23   10899   10893      23   10899   10896      24   10908
   10905      23   10911   10905      23   10911   10908      24   10920   10917
      23   10923   10917      23   10923   10920      24   10932   10929      23
   10935   10929      23   10935   10932      24   10944   10941      23   10947
   10941      23   10947   10944      24   10956   10953      23   10959   10953
      23   10959   10956      24   10968   10965      23   10971   10965      23
   10971   10968      24   10980   10977      23   10983   10977      23   10983
   10980      24   10992   10989      23   10995   10989      23   10995   10992
      24   11004   11001      23   11007   11001      23   11007   11004      24
   11016   11013      23   11019   11013      23   11019   11016      24   11028
   11025      23   11031   11025      23   11031   11028      24   11040   11037
      23   11043   11037      23   11043   11040      24   11052   11049      23
   11055   11049      23   11055   11052      24   11064   11061      23   11067
   11061      23   11067   11064      24   11076   11073      23   11079   11073
      23   11079   11076      24   11088   11085      23   11091   11085      23
   11091   11088      24   11100   11097      23   11103   11097      23   11103
   11100      24   11112   11109      23   11115   11109      23   11115   11112
      24   11124   11121      23   11127   11121      23   11127   11124      24
   11136   11133      23   11139   11133      23   11139   11136      24   11148
   11145      23   11151   11145      23   11151   11148      24   11160   11157
      23   11163   11157      23   11163   11160      24   11172   11169      23
   11175   11169      23   11175   11172      24   11184   11181      23   11187
   11181      23   11187   11184      24   11196   11193      23   11199   11193
      23   11199   11196      24   11208   11205      23   11211   11205      23
   11211   11208      24   11220   11217      23   11223   11217      23   11223
   11220      24   11232   11229      23   11235   11229      23   11235   11232
      24   11244   11241      23   11247   11241      23   11247   11244      24
   11256   11253      23   11259   11253      23   11259   11256      24   11268
   11265      23   11271   11265      23   11271   11268      24   11280   11277
      23   11283   11277      23   11283   11280      24   11292   11289      23
   11295   11289      23   11295   11292      24   11304   11301      23   11307
   11301      23   11307   11304      24   11316   11313      23   11319   11313
      23   11319   11316      24   11328   11325      23   11331   11325      23
   11331   11328      24   11340   11337      23   11343   11337      23   11343
   11340      24   11352   11349      23   11355   11349      23   11355   11352
      24   11364   11361      23   11367   11361      23   11367   11364      24
   11376   11373      23   11379   11373      23   11379   11376      24   11388
   11385      23   11391   11385      23   11391   11388      24   11400   11397
      23   11403   11397      23   11403   11400      24   11412   11409      23
   11415   11409      23   11415   11412      24   11424   11421      23   11427
   11421      23   11427   11424      24   11436   11433      23   11439   11433
      23   11439   11436      24   11448   11445      23   11451   11445      23
   11451   11448      24   11460   11457      23   11463   11457      23   11463
   11460      24   11472   11469      23   11475   11469      23   11475   11472
      24   11484   11481      23   11487   11481      23   11487   11484      24
   11496   11493      23   11499   11493      23   11499   11496      24   11508
   11505      23   11511   11505      23   11511   11508      24   11520   11517
      23   11523   11517      23   11523   11520      24   11532   11529      23
   11535   11529      23   11535   11532      24   11544   11541      23   11547
   11541      23   11547   11544      24   11556   11553      23   11559   11553
      23   11559   11556      24   11568   11565      23   11571   11565      23
   11571   11568      24   11580   11577      23   11583   11577      23   11583
   11580      24   11592   11589      23   11595   11589      23   11595   11592
      24   11604   11601      23   11607   11601      23   11607   11604      24
   11616   11613      23   11619   11613      23   11619   11616      24   11628
   11625      23   11631   11625      23   11631   11628      24   11640   11637
      23   11643   11637      23   11643   11640      24   11652   11649      23
   11655   11649      23   11655   11652      24   11664   11661      23   11667
   11661      23   11667   11664      24   11676   11673      23   11679   11673
      23   11679   11676      24   11688   11685      23   11691   11685      23
   11691   11688      24   11700   11697      23   11703   11697      23   11703
   11700      24   11712   11709      23   11715   11709      23   11715   11712
      24   11724   11721      23   11727   11721      23   11727   11724      24
   11736   11733      23   11739   11733      23   11739   11736      24   11748
   11745      23   11751   11745      23   11751   11748      24   11760   11757
      23   11763   11757      23   11763   11760      24   11772   11769      23
   11775   11769      23   11775   11772      24   11784   11781      23   11787
   11781      23   11787   11784      24   11796   11793      23   11799   11793
      23   11799   11796      24   11808   11805      23   11811   11805      23
   11811   11808      24   11820   11817      23   11823   11817      23   11823
   11820      24   11832   11829      23   11835   11829      23   11835   11832
      24   11844   11841      23   11847   11841      23   11847   11844      24
   11856   11853      23   11859   11853      23   11859   11856      24   11868
   11865      23   11871   11865      23   11871   11868      24   11880   11877
      23   11883   11877      23   11883   11880      24   11892   11889      23
   11895   11889      23   11895   11892      24   11904   11901      23   11907
   11901      23   11907   11904      24   11916   11913      23   11919   11913
      23   11919   11916      24   11928   11925      23   11931   11925      23
   11931   11928      24   11940   11937      23   11943   11937      23   11943
   11940      24   11952   11949      23   11955   11949      23   11955   11952
      24   11964   11961      23   11967   11961      23   11967   11964      24
   11976   11973      23   11979   11973      23   11979   11976      24   11988
   11985      23   11991   11985      23   11991   11988      24   12000   11997
      23   12003   11997      23   12003   12000      24   12012   12009      23
   12015   12009      23   12015   12012      24   12024   12021      23   12027
   12021      23   12027   12024      24   12036   12033      23   12039   12033
      23   12039   12036      24   12048   12045      23   12051   12045      23
   12051   12048      24   12060   12057      23   12063   12057      23   12063
   12060      24   12072   12069      23   12075   12069      23   12075   12072
      24   12084   12081      23   12087   12081      23   12087   12084      24
   12096   12093      23   12099   12093      23   12099   12096      24   12108
   12105      23   12111   12105      23   12111   12108      24   12120   12117
      23   12123   12117      23   12123   12120      24   12132   12129      23
   12135   12129      23   12135   12132      24   12144   12141      23   12147
   12141      23   12147   12144      24   12156   12153      23   12159   12153
      23   12159   12156      24   12168   12165      23   12171   12165      23
   12171   12168      24   12180   12177      23   12183   12177      23   12183
   12180      24   12192   12189      23   12195   12189      23   12195   12192
      24   12204   12201      23   12207   12201      23   12207   12204      24
   12216   12213      23   12219   12213      23   12219   12216      24   12228
   12225      23   12231   12225      23   12231   12228      24   12240   12237
      23   12243   12237      23   12243   12240      24   12252   12249      23
   12255   12249      23   12255   12252      24   12264   12261      23   12267
   12261      23   12267   12264      24   12276   12273      23   12279   12273
      23   12279   12276      24   12288   12285      23   12291   12285      23
   12291   12288      24   12300   12297      23   12303   12297      23   12303
   12300      24   12312   12309      23   12315   12309      23   12315   12312
      24   12324   12321      23   12327   12321      23   12327   12324      24
   12336   12333      23   12339   12333      23   12339   12336      24   12348
   12345      23   12351   12345      23   12351   12348      24   12360   12357
      23   12363   12357      23   12363   12360      24   12372   12369      23
   12375   12369      23   12375   12372      24   12384   12381      23   12387
   12381      23   12387   12384      24   12396   12393      23   12399   12393
      23   12399   12396      24   12408   12405      23   12411   12405      23
   12411   12408      24   12420   12417      23   12423   12417      23   12423
   12420      24   12432   12429      23   12435   12429      23   12435   12432
      24   12444   12441      23   12447   12441      23   12447   12444      24
   12456   12453      23   12459   12453      23   12459   12456      24   12468
   12465      23   12471   12465      23   12471   12468      24   12480   12477
      23   12483   12477      23   12483   12480      24   12492   12489      23
   12495   12489      23   12495   12492      24   12504   12501      23   12507
   12501      23   12507   12504      24   12516   12513      23   12519   12513
      23   12519   12516      24   12528   12525      23   12531   12525      23
   12531   12528      24   12540   12537      23   12543   12537      23   12543
   12540      24   12552   12549      23   12555   12549      23   12555   12552
      24   12564   12561      23   12567   12561      23   12567   12564      24
   12576   12573      23   12579   12573      23   12579   12576      24   12588
   12585      23   12591   12585      23   12591   12588      24   12600   12597
      23   12603   12597      23   12603   12600      24   12612   12609      23
   12615   12609      23   12615   12612      24   12624   12621      23   12627
   12621      23   12627   12624      24   12636   12633      23   12639   12633
      23   12639   12636      24   12648   12645      23   12651   12645      23
   12651   12648      24   12660   12657      23   12663   12657      23   12663
   12660      24   12672   12669      23   12675   12669      23   12675   12672
      24   12684   12681      23   12687   12681      23   12687   12684      24
   12696   12693      23   12699   12693      23   12699   12696      24   12708
   12705      23   12711   12705      23   12711   12708      24   12720   12717
      23   12723   12717      23   12723   12720      24   12732   12729      23
   12735   12729      23   12735   12732      24   12744   12741      23   12747
   12741      23   12747   12744      24   12756   12753      23   12759   12753
      23   12759   12756      24   12768   12765      23   12771   12765      23
   12771   12768      24   12780   12777      23   12783   12777      23   12783
   12780      24   12792   12789      23   12795   12789      23   12795   12792
      24   12804   12801      23   12807   12801      23   12807   12804      24
   12816   12813      23   12819   12813      23   12819   12816      24   12828
   12825      23   12831   12825      23   12831   12828      24   12840   12837
      23   12843   12837      23   12843   12840      24   12852   12849      23
   12855   12849      23   12855   12852      24   12864   12861      23   12867
   12861      23   12867   12864      24   12876   12873      23   12879   12873
      23   12879   12876      24   12888   12885      23   12891   12885      23
   12891   12888      24   12900   12897      23   12903   12897      23   12903
   12900      24   12912   12909      23   12915   12909      23   12915   12912
      24   12924   12921      23   12927   12921      23   12927   12924      24
   12936   12933      23   12939   12933      23   12939   12936      24   12948
   12945      23   12951   12945      23   12951   12948      24   12960   12957
      23   12963   12957      23   12963   12960      24   12972   12969      23
   12975   12969      23   12975   12972      24   12984   12981      23   12987
   12981      23   12987   12984      24   12996   12993      23   12999   12993
      23   12999   12996      24   13008   13005      23   13011   13005      23
   13011   13008      24   13020   13017      23   13023   13017      23   13023
   13020      24   13032   13029      23   13035   13029      23   13035   13032
      24   13044   13041      23   13047   13041      23   13047   13044      24
   13056   13053      23   13059   13053      23   13059   13056      24   13068
   13065      23   13071   13065      23   13071   13068      24   13080   13077
      23   13083   13077      23   13083   13080      24   13092   13089      23
   13095   13089      23   13095   13092      24   13104   13101      23   13107
   13101      23   13107   13104      24   13116   13113      23   13119   13113
      23   13119   13116      24   13128   13125      23   13131   13125      23
   13131   13128      24   13140   13137      23   13143   13137      23   13143
   13140      24   13152   13149      23   13155   13149      23   13155   13152
      24   13164   13161      23   13167   13161      23   13167   13164      24
   13176   13173      23   13179   13173      23   13179   13176      24   13188
   13185      23   13191   13185      23   13191   13188      24   13200   13197
      23   13203   13197      23   13203   13200      24   13212   13209      23
   13215   13209      23   13215   13212      24   13224   13221      23   13227
   13221      23   13227   13224      24   13236   13233      23   13239   13233
      23   13239   13236      24   13248   13245      23   13251   13245      23
   13251   13248      24   13260   13257      23   13263   13257      23   13263
   13260      24   13272   13269      23   13275   13269      23   13275   13272
      24   13284   13281      23   13287   13281      23   13287   13284      24
   13296   13293      23   13299   13293      23   13299   13296      24   13308
   13305      23   13311   13305      23   13311   13308      24   13320   13317
      23   13323   13317      23   13323   13320      24   13332   13329      23
   13335   13329      23   13335   13332      24   13344   13341      23   13347
   13341      23   13347   13344      24   13356   13353      23   13359   13353
      23   13359   13356      24   13368   13365      23   13371   13365      23
   13371   13368      24   13380   13377      23   13383   13377      23   13383
   13380      24   13392   13389      23   13395   13389      23   13395   13392
      24   13404   13401      23   13407   13401      23   13407   13404      24
   13416   13413      23   13419   13413      23   13419   13416      24   13428
   13425      23   13431   13425      23   13431   13428      24   13440   13437
      23   13443   13437      23   13443   13440      24   13452   13449      23
   13455   13449      23   13455   13452      24   13464   13461      23   13467
   13461      23   13467   13464      24   13476   13473      23   13479   13473
      23   13479   13476      24   13488   13485      23   13491   13485      23
   13491   13488      24   13500   13497      23   13503   13497      23   13503
   13500      24   13512   13509      23   13515   13509      23   13515   13512
      24   13524   13521      23   13527   13521      23   13527   13524      24
   13536   13533      23   13539   13533      23   13539   13536      24   13548
   13545      23   13551   13545      23   13551   13548      24   13560   13557
      23   13563   13557      23   13563   13560      24   13572   13569      23
   13575   13569      23   13575   13572      24   13584   13581      23   13587
   13581      23   13587   13584      24   13596   13593      23   13599   13593
      23   13599   13596      24   13608   13605      23   13611   13605      23
   13611   13608      24   13620   13617      23   13623   13617      23   13623
   13620      24   13632   13629      23   13635   13629      23   13635   13632
      24   13644   13641      23   13647   13641      23   13647   13644      24
   13656   13653      23   13659   13653      23   13659   13656      24   13668
   13665      23   13671   13665      23   13671   13668      24   13680   13677
      23   13683   13677      23   13683   13680      24   13692   13689      23
   13695   13689      23   13695   13692      24   13704   13701      23   13707
   13701      23   13707   13704      24   13716   13713      23   13719   13713
      23   13719   13716      24   13728   13725      23   13731   13725      23
   13731   13728      24   13740   13737      23   13743   13737      23   13743
   13740      24   13752   13749      23   13755   13749      23   13755   13752
      24   13764   13761      23   13767   13761      23   13767   13764      24
   13776   13773      23   13779   13773      23   13779   13776      24   13788
   13785      23   13791   13785      23   13791   13788      24   13800   13797
      23   13803   13797      23   13803   13800      24   13812   13809      23
   13815   13809      23   13815   13812      24   13824   13821      23   13827
   13821      23   13827   13824      24   13836   13833      23   13839   13833
      23   13839   13836      24   13848   13845      23   13851   13845      23
   13851   13848      24   13860   13857      23   13863   13857      23   13863
   13860      24   13872   13869      23   13875   13869      23   13875   13872
      24   13884   13881      23   13887   13881      23   13887   13884      24
   13896   13893      23   13899   13893      23   13899   13896      24   13908
   13905      23   13911   13905      23   13911   13908      24   13920   13917
      23   13923   13917      23   13923   13920      24   13932   13929      23
   13935   13929      23   13935   13932      24   13944   13941      23   13947
   13941      23   13947   13944      24   13956   13953      23   13959   13953
      23   13959   13956      24   13968   13965      23   13971   13965      23
   13971   13968      24   13980   13977      23   13983   13977      23   13983
   13980      24   13992   13989      23   13995   13989      23   13995   13992
      24   14004   14001      23   14007   14001      23   14007   14004      24
   14016   14013      23   14019   14013      23   14019   14016      24   14028
   14025      23   14031   14025      23   14031   14028      24   14040   14037
      23   14043   14037      23   14043   14040      24   14052   14049      23
   14055   14049      23   14055   14052      24   14064   14061      23   14067
   14061      23   14067   14064      24   14076   14073      23   14079   14073
      23   14079   14076      24   14088   14085      23   14091   14085      23
   14091   14088      24   14100   14097      23   14103   14097      23   14103
   14100      24   14112   14109      23   14115   14109      23   14115   14112
      24   14124   14121      23   14127   14121      23   14127   14124      24
   14136   14133      23   14139   14133      23   14139   14136      24   14148
   14145      23   14151   14145      23   14151   14148      24   14160   14157
      23   14163   14157      23   14163   14160      24   14172   14169      23
   14175   14169      23   14175   14172      24   14184   14181      23   14187
   14181      23   14187   14184      24   14196   14193      23   14199   14193
      23   14199   14196      24   14208   14205      23   14211   14205      23
   14211   14208      24   14220   14217      23   14223   14217      23   14223
   14220      24   14232   14229      23   14235   14229      23   14235   14232
      24   14244   14241      23   14247   14241      23   14247   14244      24
   14256   14253      23   14259   14253      23   14259   14256      24   14268
   14265      23   14271   14265      23   14271   14268      24   14280   14277
      23   14283   14277      23   14283   14280      24   14292   14289      23
   14295   14289      23   14295   14292      24   14304   14301      23   14307
   14301      23   14307   14304      24   14316   14313      23   14319   14313
      23   14319   14316      24   14328   14325      23   14331   14325      23
   14331   14328      24   14340   14337      23   14343   14337      23   14343
   14340      24   14352   14349      23   14355   14349      23   14355   14352
      24   14364   14361      23   14367   14361      23   14367   14364      24
   14376   14373      23   14379   14373      23   14379   14376      24   14388
   14385      23   14391   14385      23   14391   14388      24   14400   14397
      23   14403   14397      23   14403   14400      24   14412   14409      23
   14415   14409      23   14415   14412      24   14424   14421      23   14427
   14421      23   14427   14424      24   14436   14433      23   14439   14433
      23   14439   14436      24   14448   14445      23   14451   14445      23
   14451   14448      24   14460   14457      23   14463   14457      23   14463
   14460      24   14472   14469      23   14475   14469      23   14475   14472
      24   14484   14481      23   14487   14481      23   14487   14484      24
   14496   14493      23   14499   14493      23   14499   14496      24   14508
   14505      23   14511   14505      23   14511   14508      24   14520   14517
      23   14523   14517      23   14523   14520      24   14532   14529      23
   14535   14529      23   14535   14532      24   14544   14541      23   14547
   14541      23   14547   14544      24   14556   14553      23   14559   14553
      23   14559   14556      24   14568   14565      23   14571   14565      23
   14571   14568      24   14580   14577      23   14583   14577      23   14583
   14580      24   14592   14589      23   14595   14589      23   14595   14592
      24   14604   14601      23   14607   14601      23   14607   14604      24
   14616   14613      23   14619   14613      23   14619   14616      24   14628
   14625      23   14631   14625      23   14631   14628      24   14640   14637
      23   14643   14637      23   14643   14640      24   14652   14649      23
   14655   14649      23   14655   14652      24   14664   14661      23   14667
   14661      23   14667   14664      24   14676   14673      23   14679   14673
      23   14679   14676      24   14688   14685      23   14691   14685      23
   14691   14688      24   14700   14697      23   14703   14697      23   14703
   14700      24   14712   14709      23   14715   14709      23   14715   14712
      24   14724   14721      23   14727   14721      23   14727   14724      24
   14736   14733      23   14739   14733      23   14739   14736      24   14748
   14745      23   14751   14745      23   14751   14748      24   14760   14757
      23   14763   14757      23   14763   14760      24   14772   14769      23
   14775   14769      23   14775   14772      24   14784   14781      23   14787
   14781      23   14787   14784      24   14796   14793      23   14799   14793
      23   14799   14796      24   14808   14805      23   14811   14805      23
   14811   14808      24   14820   14817      23   14823   14817      23   14823
   14820      24   14832   14829      23   14835   14829      23   14835   14832
      24   14844   14841      23   14847   14841      23   14847   14844      24
   14856   14853      23   14859   14853      23   14859   14856      24   14868
   14865      23   14871   14865      23   14871   14868      24   14880   14877
      23   14883   14877      23   14883   14880      24   14892   14889      23
   14895   14889      23   14895   14892      24   14904   14901      23   14907
   14901      23   14907   14904      24   14916   14913      23   14919   14913
      23   14919   14916      24   14928   14925      23   14931   14925      23
   14931   14928      24   14940   14937      23   14943   14937      23   14943
   14940      24   14952   14949      23   14955   14949      23   14955   14952
      24   14964   14961      23   14967   14961      23   14967   14964      24
   14976   14973      23   14979   14973      23   14979   14976      24   14988
   14985      23   14991   14985      23   14991   14988      24   15000   14997
      23   15003   14997      23   15003   15000      24   15012   15009      23
   15015   15009      23   15015   15012      24   15024   15021      23   15027
   15021      23   15027   15024      24   15036   15033      23   15039   15033
      23   15039   15036      24   15048   15045      23   15051   15045      23
   15051   15048      24   15060   15057      23   15063   15057      23   15063
   15060      24   15072   15069      23   15075   15069      23   15075   15072
      24   15084   15081      23   15087   15081      23   15087   15084      24
   15096   15093      23   15099   15093      23   15099   15096      24   15108
   15105      23   15111   15105      23   15111   15108      24   15120   15117
      23   15123   15117      23   15123   15120      24   15132   15129      23
   15135   15129      23   15135   15132      24   15144   15141      23   15147
   15141      23   15147   15144      24   15156   15153      23   15159   15153
      23   15159   15156      24   15168   15165      23   15171   15165      23
   15171   15168      24   15180   15177      23   15183   15177      23   15183
   15180      24   15192   15189      23   15195   15189      23   15195   15192
      24   15204   15201      23   15207   15201      23   15207   15204      24
   15216   15213      23   15219   15213      23   15219   15216      24   15228
   15225      23   15231   15225      23   15231   15228      24   15240   15237
      23   15243   15237      23   15243   15240      24   15252   15249      23
   15255   15249      23   15255   15252      24   15264   15261      23   15267
   15261      23   15267   15264      24   15276   15273      23   15279   15273
      23   15279   15276      24   15288   15285      23   15291   15285      23
   15291   15288      24   15300   15297      23   15303   15297      23   15303
   15300      24   15312   15309      23   15315   15309      23   15315   15312
      24   15324   15321      23   15327   15321      23   15327   15324      24
   15336   15333      23   15339   15333      23   15339   15336      24   15348
   15345      23   15351   15345      23   15351   15348      24   15360   15357
      23   15363   15357      23   15363   15360      24   15372   15369      23
   15375   15369      23   15375   15372      24   15384   15381      23   15387
   15381      23   15387   15384      24   15396   15393      23   15399   15393
      23   15399   15396      24   15408   15405      23   15411   15405      23
   15411   15408      24   15420   15417      23   15423   15417      23   15423
   15420      24   15432   15429      23   15435   15429      23   15435   15432
      24   15444   15441      23   15447   15441      23   15447   15444      24
   15456   15453      23   15459   15453      23   15459   15456      24   15468
   15465      23   15471   15465      23   15471   15468      24   15480   15477
      23   15483   15477      23   15483   15480      24   15492   15489      23
   15495   15489      23   15495   15492      24   15504   15501      23   15507
   15501      23   15507   15504      24   15516   15513      23   15519   15513
      23   15519   15516      24   15528   15525      23   15531   15525      23
   15531   15528      24   15540   15537      23   15543   15537      23   15543
   15540      24   15552   15549      23   15555   15549      23   15555   15552
      24   15564   15561      23   15567   15561      23   15567   15564      24
   15576   15573      23   15579   15573      23   15579   15576      24   15588
   15585      23   15591   15585      23   15591   15588      24   15600   15597
      23   15603   15597      23   15603   15600      24   15612   15609      23
   15615   15609      23   15615   15612      24   15624   15621      23   15627
   15621      23   15627   15624      24   15636   15633      23   15639   15633
      23   15639   15636      24   15648   15645      23   15651   15645      23
   15651   15648      24   15660   15657      23   15663   15657      23   15663
   15660      24   15672   15669      23   15675   15669      23   15675   15672
      24   15684   15681      23   15687   15681      23   15687   15684      24
   15696   15693      23   15699   15693      23   15699   15696      24   15708
   15705      23   15711   15705      23   15711   15708      24   15720   15717
      23   15723   15717      23   15723   15720      24   15732   15729      23
   15735   15729      23   15735   15732      24   15744   15741      23   15747
   15741      23   15747   15744      24   15756   15753      23   15759   15753
      23   15759   15756      24   15768   15765      23   15771   15765      23
   15771   15768      24   15780   15777      23   15783   15777      23   15783
   15780      24   15792   15789      23   15795   15789      23   15795   15792
      24   15804   15801      23   15807   15801      23   15807   15804      24
   15816   15813      23   15819   15813      23   15819   15816      24   15828
   15825      23   15831   15825      23   15831   15828      24   15840   15837
      23   15843   15837      23   15843   15840      24   15852   15849      23
   15855   15849      23   15855   15852      24   15864   15861      23   15867
   15861      23   15867   15864      24   15876   15873      23   15879   15873
      23   15879   15876      24   15888   15885      23   15891   15885      23
   15891   15888      24   15900   15897      23   15903   15897      23   15903
   15900      24   15912   15909      23   15915   15909      23   15915   15912
      24   15924   15921      23   15927   15921      23   15927   15924      24
   15936   15933      23   15939   15933      23   15939   15936      24   15948
   15945      23   15951   15945      23   15951   15948      24   15960   15957
      23   15963   15957      23   15963   15960      24   15972   15969      23
   15975   15969      23   15975   15972      24   15984   15981      23   15987
   15981      23   15987   15984      24   15996   15993      23   15999   15993
      23   15999   15996      24   16008   16005      23   16011   16005      23
   16011   16008      24   16020   16017      23   16023   16017      23   16023
   16020      24   16032   16029      23   16035   16029      23   16035   16032
      24   16044   16041      23   16047   16041      23   16047   16044      24
   16056   16053      23   16059   16053      23   16059   16056      24   16068
   16065      23   16071   16065      23   16071   16068      24   16080   16077
      23   16083   16077      23   16083   16080      24   16092   16089      23
   16095   16089      23   16095   16092      24   16104   16101      23   16107
   16101      23   16107   16104      24   16116   16113      23   16119   16113
      23   16119   16116      24   16128   16125      23   16131   16125      23
   16131   16128      24   16140   16137      23   16143   16137      23   16143
   16140      24   16152   16149      23   16155   16149      23   16155   16152
      24   16164   16161      23   16167   16161      23   16167   16164      24
   16176   16173      23   16179   16173      23   16179   16176      24   16188
   16185      23   16191   16185      23   16191   16188      24   16200   16197
      23   16203   16197      23   16203   16200      24   16212   16209      23
   16215   16209      23   16215   16212      24   16224   16221      23   16227
   16221      23   16227   16224      24   16236   16233      23   16239   16233
      23   16239   16236      24   16248   16245      23   16251   16245      23
   16251   16248      24   16260   16257      23   16263   16257      23   16263
   16260      24   16272   16269      23   16275   16269      23   16275   16272
      24   16284   16281      23   16287   16281      23   16287   16284      24
   16296   16293      23   16299   16293      23   16299   16296      24   16308
   16305      23   16311   16305      23   16311   16308      24   16320   16317
      23   16323   16317      23   16323   16320      24   16332   16329      23
   16335   16329      23   16335   16332      24   16344   16341      23   16347
   16341      23   16347   16344      24   16356   16353      23   16359   16353
      23   16359   16356      24   16368   16365      23   16371   16365      23
   16371   16368      24   16380   16377      23   16383   16377      23   16383
   16380      24   16392   16389      23   16395   16389      23   16395   16392
      24   16404   16401      23   16407   16401      23   16407   16404      24
   16416   16413      23   16419   16413      23   16419   16416      24   16428
   16425      23   16431   16425      23   16431   16428      24   16440   16437
      23   16443   16437      23   16443   16440      24   16452   16449      23
   16455   16449      23   16455   16452      24   16464   16461      23   16467
   16461      23   16467   16464      24   16476   16473      23   16479   16473
      23   16479   16476      24   16488   16485      23   16491   16485      23
   16491   16488      24   16500   16497      23   16503   16497      23   16503
   16500      24   16512   16509      23   16515   16509      23   16515   16512
      24   16524   16521      23   16527   16521      23   16527   16524      24
   16536   16533      23   16539   16533      23   16539   16536      24   16548
   16545      23   16551   16545      23   16551   16548      24   16560   16557
      23   16563   16557      23   16563   16560      24   16572   16569      23
   16575   16569      23   16575   16572      24   16584   16581      23   16587
   16581      23   16587   16584      24   16596   16593      23   16599   16593
      23   16599   16596      24   16608   16605      23   16611   16605      23
   16611   16608      24   16620   16617      23   16623   16617      23   16623
   16620      24   16632   16629      23   16635   16629      23   16635   16632
      24   16644   16641      23   16647   16641      23   16647   16644      24
   16656   16653      23   16659   16653      23   16659   16656      24   16668
   16665      23   16671   16665      23   16671   16668      24   16680   16677
      23   16683   16677      23   16683   16680      24   16692   16689      23
   16695   16689      23   16695   16692      24   16704   16701      23   16707
   16701      23   16707   16704      24   16716   16713      23   16719   16713
      23   16719   16716      24   16728   16725      23   16731   16725      23
   16731   16728      24   16740   16737      23   16743   16737      23   16743
   16740      24   16752   16749      23   16755   16749      23   16755   16752
      24   16764   16761      23   16767   16761      23   16767   16764      24
   16776   16773      23   16779   16773      23   16779   16776      24   16788
   16785      23   16791   16785      23   16791   16788      24   16800   16797
      23   16803   16797      23   16803   16800      24   16812   16809      23
   16815   16809      23   16815   16812      24   16824   16821      23   16827
   16821      23   16827   16824      24   16836   16833      23   16839   16833
      23   16839   16836      24   16848   16845      23   16851   16845      23
   16851   16848      24   16860   16857      23   16863   16857      23   16863
   16860      24   16872   16869      23   16875   16869      23   16875   16872
      24   16884   16881      23   16887   16881      23   16887   16884      24
   16896   16893      23   16899   16893      23   16899   16896      24   16908
   16905      23   16911   16905      23   16911   16908      24   16920   16917
      23   16923   16917      23   16923   16920      24   16932   16929      23
   16935   16929      23   16935   16932      24   16944   16941      23   16947
   16941      23   16947   16944      24   16956   16953      23   16959   16953
      23   16959   16956      24   16968   16965      23   16971   16965      23
   16971   16968      24   16980   16977      23   16983   16977      23   16983
   16980      24   16992   16989      23   16995   16989      23   16995   16992
      24   17004   17001      23   17007   17001      23   17007   17004      24
   17016   17013      23   17019   17013      23   17019   17016      24   17028
   17025      23   17031   17025      23   17031   17028      24   17040   17037
      23   17043   17037      23   17043   17040      24   17052   17049      23
   17055   17049      23   17055   17052      24   17064   17061      23   17067
   17061      23   17067   17064      24   17076   17073      23   17079   17073
      23   17079   17076      24   17088   17085      23   17091   17085      23
   17091   17088      24   17100   17097      23   17103   17097      23   17103
   17100      24   17112   17109      23   17115   17109      23   17115   17112
      24   17124   17121      23   17127   17121      23   17127   17124      24
   17136   17133      23   17139   17133      23   17139   17136      24   17148
   17145      23   17151   17145      23   17151   17148      24   17160   17157
      23   17163   17157      23   17163   17160      24   17172   17169      23
   17175   17169      23   17175   17172      24   17184   17181      23   17187
   17181      23   17187   17184      24   17196   17193      23   17199   17193
      23   17199   17196      24   17208   17205      23   17211   17205      23
   17211   17208      24   17220   17217      23   17223   17217      23   17223
   17220      24   17232   17229      23   17235   17229      23   17235   17232
      24   17244   17241      23   17247   17241      23   17247   17244      24
   17256   17253      23   17259   17253      23   17259   17256      24   17268
   17265      23   17271   17265      23   17271   17268      24   17280   17277
      23   17283   17277      23   17283   17280      24   17292   17289      23
   17295   17289      23   17295   17292      24   17304   17301      23   17307
   17301      23   17307   17304      24   17316   17313      23   17319   17313
      23   17319   17316      24   17328   17325      23   17331   17325      23
   17331   17328      24   17340   17337      23   17343   17337      23   17343
   17340      24   17352   17349      23   17355   17349      23   17355   17352
      24   17364   17361      23   17367   17361      23   17367   17364      24
   17376   17373      23   17379   17373      23   17379   17376      24   17388
   17385      23   17391   17385      23   17391   17388      24   17400   17397
      23   17403   17397      23   17403   17400      24   17412   17409      23
   17415   17409      23   17415   17412      24   17424   17421      23   17427
   17421      23   17427   17424      24   17436   17433      23   17439   17433
      23   17439   17436      24   17448   17445      23   17451   17445      23
   17451   17448      24   17460   17457      23   17463   17457      23   17463
   17460      24   17472   17469      23   17475   17469      23   17475   17472
      24   17484   17481      23   17487   17481      23   17487   17484      24
   17496   17493      23   17499   17493      23   17499   17496      24   17508
   17505      23   17511   17505      23   17511   17508      24   17520   17517
      23   17523   17517      23   17523   17520      24   17532   17529      23
   17535   17529      23   17535   17532      24   17544   17541      23   17547
   17541      23   17547   17544      24   17556   17553      23   17559   17553
      23   17559   17556      24   17568   17565      23   17571   17565      23
   17571   17568      24   17580   17577      23   17583   17577      23   17583
   17580      24   17592   17589      23   17595   17589      23   17595   17592
      24   17604   17601      23   17607   17601      23   17607   17604      24
   17616   17613      23   17619   17613      23   17619   17616      24   17628
   17625      23   17631   17625      23   17631   17628      24   17640   17637
      23   17643   17637      23   17643   17640      24   17652   17649      23
   17655   17649      23   17655   17652      24   17664   17661      23   17667
   17661      23   17667   17664      24   17676   17673      23   17679   17673
      23   17679   17676      24   17688   17685      23   17691   17685      23
   17691   17688      24   17700   17697      23   17703   17697      23   17703
   17700      24   17712   17709      23   17715   17709      23   17715   17712
      24   17724   17721      23   17727   17721      23   17727   17724      24
   17736   17733      23   17739   17733      23   17739   17736      24   17748
   17745      23   17751   17745      23   17751   17748      24   17760   17757
      23   17763   17757      23   17763   17760      24   17772   17769      23
   17775   17769      23   17775   17772      24   17784   17781      23   17787
   17781      23   17787   17784      24   17796   17793      23   17799   17793
      23   17799   17796      24   17808   17805      23   17811   17805      23
   17811   17808      24   17820   17817      23   17823   17817      23   17823
   17820      24   17832   17829      23   17835   17829      23   17835   17832
      24   17844   17841      23   17847   17841      23   17847   17844      24
   17856   17853      23   17859   17853      23   17859   17856      24   17868
   17865      23   17871   17865      23   17871   17868      24   17880   17877
      23   17883   17877      23   17883   17880      24   17892   17889      23
   17895   17889      23   17895   17892      24   17904   17901      23   17907
   17901      23   17907   17904      24   17916   17913      23   17919   17913
      23   17919   17916      24   17928   17925      23   17931   17925      23
   17931   17928      24   17940   17937      23   17943   17937      23   17943
   17940      24   17952   17949      23   17955   17949      23   17955   17952
      24   17964   17961      23   17967   17961      23   17967   17964      24
   17976   17973      23   17979   17973      23   17979   17976      24   17988
   17985      23   17991   17985      23   17991   17988      24   18000   17997
      23   18003   17997      23   18003   18000      24   18012   18009      23
   18015   18009      23   18015   18012      24   18024   18021      23   18027
   18021      23   18027   18024      24   18036   18033      23   18039   18033
      23   18039   18036      24   18048   18045      23   18051   18045      23
   18051   18048      24   18060   18057      23   18063   18057      23   18063
   18060      24   18072   18069      23   18075   18069      23   18075   18072
      24   18084   18081      23   18087   18081      23   18087   18084      24
   18096   18093      23   18099   18093      23   18099   18096      24   18108
   18105      23   18111   18105      23   18111   18108      24   18120   18117
      23   18123   18117      23   18123   18120      24   18132   18129      23
   18135   18129      23   18135   18132      24   18144   18141      23   18147
   18141      23   18147   18144      24   18156   18153      23   18159   18153
      23   18159   18156      24   18168   18165      23   18171   18165      23
   18171   18168      24   18180   18177      23   18183   18177      23   18183
   18180      24   18192   18189      23   18195   18189      23   18195   18192
      24   18204   18201      23   18207   18201      23   18207   18204      24
   18216   18213      23   18219   18213      23   18219   18216      24   18228
   18225      23   18231   18225      23   18231   18228      24   18240   18237
      23   18243   18237      23   18243   18240      24   18252   18249      23
   18255   18249      23   18255   18252      24   18264   18261      23   18267
   18261      23   18267   18264      24   18276   18273      23   18279   18273
      23   18279   18276      24   18288   18285      23   18291   18285      23
   18291   18288      24   18300   18297      23   18303   18297      23   18303
   18300      24   18312   18309      23   18315   18309      23   18315   18312
      24   18324   18321      23   18327   18321      23   18327   18324      24
   18336   18333      23   18339   18333      23   18339   18336      24   18348
   18345      23   18351   18345      23   18351   18348      24   18360   18357
      23   18363   18357      23   18363   18360      24   18372   18369      23
   18375   18369      23   18375   18372      24   18384   18381      23   18387
   18381      23   18387   18384      24   18396   18393      23   18399   18393
      23   18399   18396      24   18408   18405      23   18411   18405      23
   18411   18408      24   18420   18417      23   18423   18417      23   18423
   18420      24   18432   18429      23   18435   18429      23   18435   18432
      24   18444   18441      23   18447   18441      23   18447   18444      24
   18456   18453      23   18459   18453      23   18459   18456      24   18468
   18465      23   18471   18465      23   18471   18468      24   18480   18477
      23   18483   18477      23   18483   18480      24   18492   18489      23
   18495   18489      23   18495   18492      24   18504   18501      23   18507
   18501      23   18507   18504      24   18516   18513      23   18519   18513
      23   18519   18516      24   18528   18525      23   18531   18525      23
   18531   18528      24   18540   18537      23   18543   18537      23   18543
   18540      24   18552   18549      23   18555   18549      23   18555   18552
      24   18564   18561      23   18567   18561      23   18567   18564      24
   18576   18573      23   18579   18573      23   18579   18576      24   18588
   18585      23   18591   18585      23   18591   18588      24   18600   18597
      23   18603   18597      23   18603   18600      24   18612   18609      23
   18615   18609      23   18615   18612      24   18624   18621      23   18627
   18621      23   18627   18624      24   18636   18633      23   18639   18633
      23   18639   18636      24   18648   18645      23   18651   18645      23
   18651   18648      24   18660   18657      23   18663   18657      23   18663
   18660      24   18672   18669      23   18675   18669      23   18675   18672
      24   18684   18681      23   18687   18681      23   18687   18684      24
   18696   18693      23   18699   18693      23   18699   18696      24   18708
   18705      23   18711   18705      23   18711   18708      24   18720   18717
      23   18723   18717      23   18723   18720      24   18732   18729      23
   18735   18729      23   18735   18732      24   18744   18741      23   18747
   18741      23   18747   18744      24   18756   18753      23   18759   18753
      23   18759   18756      24   18768   18765      23   18771   18765      23
   18771   18768      24   18780   18777      23   18783   18777      23   18783
   18780      24   18792   18789      23   18795   18789      23   18795   18792
      24   18804   18801      23   18807   18801      23   18807   18804      24
   18816   18813      23   18819   18813      23   18819   18816      24   18828
   18825      23   18831   18825      23   18831   18828      24   18840   18837
      23   18843   18837      23   18843   18840      24   18852   18849      23
   18855   18849      23   18855   18852      24   18864   18861      23   18867
   18861      23   18867   18864      24   18876   18873      23   18879   18873
      23   18879   18876      24   18888   18885      23   18891   18885      23
   18891   18888      24   18900   18897      23   18903   18897      23   18903
   18900      24   18912   18909      23   18915   18909      23   18915   18912
      24   18924   18921      23   18927   18921      23   18927   18924      24
   18936   18933      23   18939   18933      23   18939   18936      24   18948
   18945      23   18951   18945      23   18951   18948      24   18960   18957
      23   18963   18957      23   18963   18960      24   18972   18969      23
   18975   18969      23   18975   18972      24   18984   18981      23   18987
   18981      23   18987   18984      24   18996   18993      23   18999   18993
      23   18999   18996      24   19008   19005      23   19011   19005      23
   19011   19008      24   19020   19017      23   19023   19017      23   19023
   19020      24   19032   19029      23   19035   19029      23   19035   19032
      24   19044   19041      23   19047   19041      23   19047   19044      24
   19056   19053      23   19059   19053      23   19059   19056      24   19068
   19065      23   19071   19065      23   19071   19068      24   19080   19077
      23   19083   19077      23   19083   19080      24   19092   19089      23
   19095   19089      23   19095   19092      24   19104   19101      23   19107
   19101      23   19107   19104      24   19116   19113      23   19119   19113
      23   19119   19116      24   19128   19125      23   19131   19125      23
   19131   19128      24   19140   19137      23   19143   19137      23   19143
   19140      24   19152   19149      23   19155   19149      23   19155   19152
      24   19164   19161      23   19167   19161      23   19167   19164      24
   19176   19173      23   19179   19173      23   19179   19176      24   19188
   19185      23   19191   19185      23   19191   19188      24   19200   19197
      23   19203   19197      23   19203   19200      24   19212   19209      23
   19215   19209      23   19215   19212      24   19224   19221      23   19227
   19221      23   19227   19224      24   19236   19233      23   19239   19233
      23   19239   19236      24   19248   19245      23   19251   19245      23
   19251   19248      24   19260   19257      23   19263   19257      23   19263
   19260      24   19272   19269      23   19275   19269      23   19275   19272
      24   19284   19281      23   19287   19281      23   19287   19284      24
   19296   19293      23   19299   19293      23   19299   19296      24   19308
   19305      23   19311   19305      23   19311   19308      24   19320   19317
      23   19323   19317      23   19323   19320      24   19332   19329      23
   19335   19329      23   19335   19332      24   19344   19341      23   19347
   19341      23   19347   19344      24   19356   19353      23   19359   19353
      23   19359   19356      24   19368   19365      23   19371   19365      23
   19371   19368      24   19380   19377      23   19383   19377      23   19383
   19380      24   19392   19389      23   19395   19389      23   19395   19392
      24   19404   19401      23   19407   19401      23   19407   19404      24
   19416   19413      23   19419   19413      23   19419   19416      24   19428
   19425      23   19431   19425      23   19431   19428      24   19440   19437
      23   19443   19437      23   19443   19440      24   19452   19449      23
   19455   19449      23   19455   19452      24   19464   19461      23   19467
   19461      23   19467   19464      24   19476   19473      23   19479   19473
      23   19479   19476      24   19488   19485      23   19491   19485      23
   19491   19488      24   19500   19497      23   19503   19497      23   19503
   19500      24   19512   19509      23   19515   19509      23   19515   19512
      24   19524   19521      23   19527   19521      23   19527   19524      24
   19536   19533      23   19539   19533      23   19539   19536      24   19548
   19545      23   19551   19545      23   19551   19548      24   19560   19557
      23   19563   19557      23   19563   19560      24   19572   19569      23
   19575   19569      23   19575   19572      24   19584   19581      23   19587
   19581      23   19587   19584      24   19596   19593      23   19599   19593
      23   19599   19596      24   19608   19605      23   19611   19605      23
   19611   19608      24   19620   19617      23   19623   19617      23   19623
   19620      24   19632   19629      23   19635   19629      23   19635   19632
      24   19644   19641      23   19647   19641      23   19647   19644      24
   19656   19653      23   19659   19653      23   19659   19656      24   19668
   19665      23   19671   19665      23   19671   19668      24   19680   19677
      23   19683   19677      23   19683   19680      24   19692   19689      23
   19695   19689      23   19695   19692      24   19704   19701      23   19707
   19701      23   19707   19704      24   19716   19713      23   19719   19713
      23   19719   19716      24   19728   19725      23   19731   19725      23
   19731   19728      24   19740   19737      23   19743   19737      23   19743
   19740      24   19752   19749      23   19755   19749      23   19755   19752
      24   19764   19761      23   19767   19761      23   19767   19764      24
   19776   19773      23   19779   19773      23   19779   19776      24   19788
   19785      23   19791   19785      23   19791   19788      24   19800   19797
      23   19803   19797      23   19803   19800      24   19812   19809      23
   19815   19809      23   19815   19812      24   19824   19821      23   19827
   19821      23   19827   19824      24   19836   19833      23   19839   19833
      23   19839   19836      24   19848   19845      23   19851   19845      23
   19851   19848      24   19860   19857      23   19863   19857      23   19863
   19860      24   19872   19869      23   19875   19869      23   19875   19872
      24   19884   19881      23   19887   19881      23   19887   19884      24
   19896   19893      23   19899   19893      23   19899   19896      24   19908
   19905      23   19911   19905      23   19911   19908      24   19920   19917
      23   19923   19917      23   19923   19920      24   19932   19929      23
   19935   19929      23   19935   19932      24   19944   19941      23   19947
   19941      23   19947   19944      24   19956   19953      23   19959   19953
      23   19959   19956      24   19968   19965      23   19971   19965      23
   19971   19968      24   19980   19977      23   19983   19977      23   19983
   19980      24   19992   19989      23   19995   19989      23   19995   19992
      24   20004   20001      23   20007   20001      23   20007   20004      24
   20016   20013      23   20019   20013      23   20019   20016      24   20028
   20025      23   20031   20025      23   20031   20028      24   20040   20037
      23   20043   20037      23   20043   20040      24   20052   20049      23
   20055   20049      23   20055   20052      24   20064   20061      23   20067
   20061      23   20067   20064      24   20076   20073      23   20079   20073
      23   20079   20076      24   20088   20085      23   20091   20085      23
   20091   20088      24   20100   20097      23   20103   20097      23   20103
   20100      24   20112   20109      23   20115   20109      23   20115   20112
      24   20124   20121      23   20127   20121      23   20127   20124      24
   20136   20133      23   20139   20133      23   20139   20136      24   20148
   20145      23   20151   20145      23   20151   20148      24   20160   20157
      23   20163   20157      23   20163   20160      24   20172   20169      23
   20175   20169      23   20175   20172      24   20184   20181      23   20187
   20181      23   20187   20184      24   20196   20193      23   20199   20193
      23   20199   20196      24   20208   20205      23   20211   20205      23
   20211   20208      24   20220   20217      23   20223   20217      23   20223
   20220      24   20232   20229      23   20235   20229      23   20235   20232
      24   20244   20241      23   20247   20241      23   20247   20244      24
   20256   20253      23   20259   20253      23   20259   20256      24   20268
   20265      23   20271   20265      23   20271   20268      24   20280   20277
      23   20283   20277      23   20283   20280      24   20292   20289      23
   20295   20289      23   20295   20292      24   20304   20301      23   20307
   20301      23   20307   20304      24   20316   20313      23   20319   20313
      23   20319   20316      24   20328   20325      23   20331   20325      23
   20331   20328      24
%FLAG BONDS_WITHOUT_HYDROGEN                                                    
%FORMAT(10I8)                                                                   
      12      15       1      12      18       2       3      12       4      78
      81       1      78      84       2      57      66       7      48      57
       9      39      48       9      30      39       9      24      30      11
      24      78      12      18      24      14     108     111       1     108
     114       2      90      96      15      90     108      12      84      90
      14     153     156       1     153     159       2     144     147      16
     144     150      16     135     144      18     126     135      19     120
     126      20     120     153      12     114     120      14     159     165
      22     186     177      25     198     189      25     210     201      25
     222     213      25     234     225      25     246     237      25     258
     249      25     270     261      25     282     273      25     294     285
      25     306     297      25     318     309      25     330     321      25
     342     333      25     354     345      25     366     357      25     378
     369      25     390     381      25     402     393      25     414     405
      25     426     417      25     438     429      25     450     441      25
     462     453      25     474     465      25     486     477      25     498
     489      25     510     501      25     522     513      25     534     525
      25     546     537      25     558     549      25     570     561      25
     582     573      25     594     585      25     606     597      25     618
     609      25     630     621      25     642     633      25     654     645
      25     666     657      25     678     669      25     690     681      25
     702     693      25     714     705      25     726     717      25     738
     729      25     750     741      25     762     753      25     774     765
      25     786     777      25     798     789      25     810     801      25
     822     813      25     834     825      25     846     837      25     858
     849      25     870     861      25     882     873      25     894     885
      25     906     897      25     918     909      25     930     921      25
     942     933      25     954     945      25     966     957      25     978
     969      25     990     981      25    1002     993      25    1014    1005
      25    1026    1017      25    1038    1029      25    1050    1041      25
    1062    1053      25    1074    1065      25    1086    1077      25    1098
    1089      25    1110    1101      25    1122    1113      25    1134    1125
      25    1146    1137      25    1158    1149      25    1170    1161      25
    1182    1173      25    1194    1185      25    1206    1197      25    1218
    1209      25    1230    1221      25    1242    1233      25    1254    1245
      25    1266    1257      25    1278    1269      25    1290    1281      25
    1302    1293      25    1314    1305      25    1326    1317      25    1338
    1329      25    1350    1341      25    1362    1353      25    1374    1365
      25    1386    1377      25    1398    1389      25    1410    1401      25
    1422    1413      25    1434    1425      25    1446    1437      25    1458
    1449      25    1470    1461      25    1482    1473      25    1494    1485
      25    1506    1497      25    1518    1509      25    1530    1521      25
    1542    1533      25    1554    1545      25    1566    1557      25    1578
    1569      25    1590    1581      25    1602    1593      25    1614    1605
      25    1626    1617      25    1638    1629      25    1650    1641      25
    1662    1653      25    1674    1665      25    1686    1677      25    1698
    1689      25    1710    1701      25    1722    1713      25    1734    1725
      25    1746    1737      25    1758    1749      25    1770    1761      25
    1782    1773      25    1794    1785      25    1806    1797      25    1818
    1809      25    1830    1821      25    1842    1833      25    1854    1845
      25    1866    1857      25    1878    1869      25    1890    1881      25
    1902    1893      25    1914    1905      25    1926    1917      25    1938
    1929      25    1950    1941      25    1962    1953      25    1974    1965
      25    1986    1977      25    1998    1989      25    2010    2001      25
    2022    2013      25    2034    2025      25    2046    2037      25    2058
    2049      25    2070    2061      25    2082    2073      25    2094    2085
      25    2106    2097      25    2118    2109      25    2130    2121      25
    2142    2133      25    2154    2145      25    2166    2157      25    2178
    2169      25    2190    2181      25    2202    2193      25    2214    2205
      25    2226    2217      25    2238    2229      25    2250    2241      25
    2262    2253      25    2274    2265      25    2286    2277      25    2298
    2289      25    2310    2301      25    2322    2313      25    2334    2325
      25    2346    2337      25    2358    2349      25    2370    2361      25
    2382    2373      25    2394    2385      25    2406    2397      25    2418
    2409      25    2430    2421      25    2442    2433      25    2454    2445
      25    2466    2457      25    2478    2469      25    2490    2481      25
    2502    2493      25    2514    2505      25    2526    2517      25    2538
    2529      25    2550    2541      25    2562    2553      25    2574    2565
      25    2586    2577      25    2598    2589      25    2610    2601      25
    2622    2613      25    2634    2625      25    2646    2637      25    2658
    2649      25    2670    2661      25    2682    2673      25    2694    2685
      25    2706    2697      25    2718    2709      25    2730    2721      25
    2742    2733      25    2754    2745      25    2766    2757      25    2778
    2769      25    2790    2781      25    2802    2793      25    2814    2805
      25    2826    2817      25    2838    2829      25    2850    2841      25
    2862    2853      25    2874    2865      25    2886    2877      25    2898
    2889      25    2910    2901      25    2922    2913      25    2934    2925
      25    2946    2937      25    2958    2949      25    2970    2961      25
    2982    2973      25    2994    2985      25    3006    2997      25    3018
    3009      25    3030    3021      25    3042    3033      25    3054    3045
      25    3066    3057      25    3078    3069      25    3090    3081      25
    3102    3093      25    3114    3105      25    3126    3117      25    3138
    3129      25    3150    3141      25    3162    3153      25    3174    3165
      25    3186    3177      25    3198    3189      25    3210    3201      25
    3222    3213      25    3234    3225      25    3246    3237      25    3258
    3249      25    3270    3261      25    3282    3273      25    3294    3285
      25    3306    3297      25    3318    3309      25    3330    3321      25
    3342    3333      25    3354    3345      25    3366    3357      25    3378
    3369      25    3390    3381      25    3402    3393      25    3414    3405
      25    3426    3417      25    3438    3429      25    3450    3441      25
    3462    3453      25    3474    3465      25    3486    3477      25    3498
    3489      25    3510    3501      25    3522    3513      25    3534    3525
      25    3546    3537      25    3558    3549      25    3570    3561      25
    3582    3573      25    3594    3585      25    3606    3597      25    3618
    3609      25    3630    3621      25    3642    3633      25    3654    3645
      25    3666    3657      25    3678    3669      25    3690    3681      25
    3702    3693      25    3714    3705      25    3726    3717      25    3738
    3729      25    3750    3741      25    3762    3753      25    3774    3765
      25    3786    3777      25    3798    3789      25    3810    3801      25
    3822    3813      25    3834    3825      25    3846    3837      25    3858
    3849      25    3870    3861      25    3882    3873      25    3894    3885
      25    3906    3897      25    3918    3909      25    3930    3921      25
    3942    3933      25    3954    3945      25    3966    3957      25    3978
    3969      25    3990    3981      25    4002    3993      25    4014    4005
      25    4026    4017      25    4038    4029      25    4050    4041      25
    4062    4053      25    4074    4065      25    4086    4077      25    4098
    4089      25    4110    4101      25    4122    4113      25    4134    4125
      25    4146    4137      25    4158    4149      25    4170    4161      25
    4182    4173      25    4194    4185      25    4206    4197      25    4218
    4209      25    4230    4221      25    4242    4233      25    4254    4245
      25    4266    4257      25    4278    4269      25    4290    4281      25
    4302    4293      25    4314    4305      25    4326    4317      25    4338
    4329      25    4350    4341      25    4362    4353      25    4374    4365
      25    4386    4377      25    4398    4389      25    4410    4401      25
    4422    4413      25    4434    4425      25    4446    4437      25    4458
    4449      25    4470    4461      25    4482    4473      25    4494    4485
      25    4506    4497      25    4518    4509      25    4530    4521      25
    4542    4533      25    4554    4545      25    4566    4557      25    4578
    4569      25    4590    4581      25    4602    4593      25    4614    4605
      25    4626    4617      25    4638    4629      25    4650    4641      25
    4662    4653      25    4674    4665      25    4686    4677      25    4698
    4689      25    4710    4701      25    4722    4713      25    4734    4725
      25    4746    4737      25    4758    4749      25    4770    4761      25
    4782    4773      25    4794    4785      25    4806    4797      25    4818
    4809      25    4830    4821      25    4842    4833      25    4854    4845
      25    4866    4857      25    4878    4869      25    4890    4881      25
    4902    4893      25    4914    4905      25    4926    4917      25    4938
    4929      25    4950    4941      25    4962    4953      25    4974    4965
      25    4986    4977      25    4998    4989      25    5010    5001      25
    5022    5013      25    5034    5025      25    5046    5037      25    5058
    5049      25    5070    5061      25    5082    5073      25    5094    5085
      25    5106    5097      25    5118    5109      25    5130    5121      25
    5142    5133      25    5154    5145      25    5166    5157      25    5178
    5169      25    5190    5181      25    5202    5193      25    5214    5205
      25    5226    5217      25    5238    5229      25    5250    5241      25
    5262    5253      25    5274    5265      25    5286    5277      25    5298
    5289      25    5310    5301      25    5322    5313      25    5334    5325
      25    5346    5337      25    5358    5349      25    5370    5361      25
    5382    5373      25    5394    5385      25    5406    5397      25    5418
    5409      25    5430    5421      25    5442    5433      25    5454    5445
      25    5466    5457      25    5478    5469      25    5490    5481      25
    5502    5493      25    5514    5505      25    5526    5517      25    5538
    5529      25    5550    5541      25    5562    5553      25    5574    5565
      25    5586    5577      25    5598    5589      25    5610    5601      25
    5622    5613      25    5634    5625      25    5646    5637      25    5658
    5649      25    5670    5661      25    5682    5673      25    5694    5685
      25    5706    5697      25    5718    5709      25    5730    5721      25
    5742    5733      25    5754    5745      25    5766    5757      25    5778
    5769      25    5790    5781      25    5802    5793      25    5814    5805
      25    5826    5817      25    5838    5829      25    5850    5841      25
    5862    5853      25    5874    5865      25    5886    5877      25    5898
    5889      25    5910    5901      25    5922    5913      25    5934    5925
      25    5946    5937      25    5958    5949      25    5970    5961      25
    5982    5973      25    5994    5985      25    6006    5997      25    6018
    6009      25    6030    6021      25    6042    6033      25    6054    6045
      25    6066    6057      25    6078    6069      25    6090    6081      25
    6102    6093      25    6114    6105      25    6126    6117      25    6138
    6129      25    6150    6141      25    6162    6153      25    6174    6165
      25    6186    6177      25    6198    6189      25    6210    6201      25
    6222    6213      25    6234    6225      25    6246    6237      25    6258
    6249      25    6270    6261      25    6282    6273      25    6294    6285
      25    6306    6297      25    6318    6309      25    6330    6321      25
    6342    6333      25    6354    6345      25    6366    6357      25    6378
    6369      25    6390    6381      25    6402    6393      25    6414    6405
      25    6426    6417      25    6438    6429      25    6450    6441      25
    6462    6453      25    6474    6465      25    6486    6477      25    6498
    6489      25    6510    6501      25    6522    6513      25    6534    6525
      25    6546    6537      25    6558    6549      25    6570    6561      25
    6582    6573      25    6594    6585      25    6606    6597      25    6618
    6609      25    6630    6621      25    6642    6633      25    6654    6645
      25    6666    6657      25    6678    6669      25    6690    6681      25
    6702    6693      25    6714    6705      25    6726    6717      25    6738
    6729      25    6750    6741      25    6762    6753      25    6774    6765
      25    6786    6777      25    6798    6789      25    6810    6801      25
    6822    6813      25    6834    6825      25    6846    6837      25    6858
    6849      25    6870    6861      25    6882    6873      25    6894    6885
      25    6906    6897      25    6918    6909      25    6930    6921      25
    6942    6933      25    6954    6945      25    6966    6957      25    6978
    6969      25    6990    6981      25    7002    6993      25    7014    7005
      25    7026    7017      25    7038    7029      25    7050    7041      25
    7062    7053      25    7074    7065      25    7086    7077      25    7098
    7089      25    7110    7101      25    7122    7113      25    7134    7125
      25    7146    7137      25    7158    7149      25    7170    7161      25
    7182    7173      25    7194    7185      25    7206    7197      25    7218
    7209      25    7230    7221      25    7242    7233      25    7254    7245
      25    7266    7257      25    7278    7269      25    7290    7281      25
    7302    7293      25    7314    7305      25    7326    7317      25    7338
    7329      25    7350    7341      25    7362    7353      25    7374    7365
      25    7386    7377      25    7398    7389      25    7410    7401      25
    7422    7413      25    7434    7425      25    7446    7437      25    7458
    7449      25    7470    7461      25    7482    7473      25    7494    7485
      25    7506    7497      25    7518    7509      25    7530    7521      25
    7542    7533      25    7554    7545      25    7566    7557      25    7578
    7569      25    7590    7581      25    7602    7593      25    7614    7605
      25    7626    7617      25    7638    7629      25    7650    7641      25
    7662    7653      25    7674    7665      25    7686    7677      25    7698
    7689      25    7710    7701      25    7722    7713      25    7734    7725
      25    7746    7737      25    7758    7749      25    7770    7761      25
    7782    7773      25    7794    7785      25    7806    7797      25    7818
    7809      25    7830    7821      25    7842    7833      25    7854    7845
      25    7866    7857      25    7878    7869      25    7890    7881      25
    7902    7893      25    7914    7905      25    7926    7917      25    7938
    7929      25    7950    7941      25    7962    7953      25    7974    7965
      25    7986    7977      25    7998    7989      25    8010    8001      25
    8022    8013      25    8034    8025      25    8046    8037      25    8058
    8049      25    8070    8061      25    8082    8073      25    8094    8085
      25    8106    8097      25    8118    8109      25    8130    8121      25
    8142    8133      25    8154    8145      25    8166    8157      25    8178
    8169      25    8190    8181      25    8202    8193      25    8214    8205
      25    8226    8217      25    8238    8229      25    8250    8241      25
    8262    8253      25    8274    8265      25    8286    8277      25    8298
    8289      25    8310    8301      25    8322    8313      25    8334    8325
      25    8346    8337      25    8358    8349      25    8370    8361      25
    8382    8373      25    8394    8385      25    8406    8397      25    8418
    8409      25    8430    8421      25    8442    8433      25    8454    8445
      25    8466    8457      25    8478    8469      25    8490    8481      25
    8502    8493      25    8514    8505      25    8526    8517      25    8538
    8529      25    8550    8541      25    8562    8553      25    8574    8565
      25    8586    8577      25    8598    8589      25    8610    8601      25
    8622    8613      25    8634    8625      25    8646    8637      25    8658
    8649      25    8670    8661      25    8682    8673      25    8694    8685
      25    8706    8697      25    8718    8709      25    8730    8721      25
    8742    8733      25    8754    8745      25    8766    8757      25    8778
    8769      25    8790    8781      25    8802    8793      25    8814    8805
      25    8826    8817      25    8838    8829      25    8850    8841      25
    8862    8853      25    8874    8865      25    8886    8877      25    8898
    8889      25    8910    8901      25    8922    8913      25    8934    8925
      25    8946    8937      25    8958    8949      25    8970    8961      25
    8982    8973      25    8994    8985      25    9006    8997      25    9018
    9009      25    9030    9021      25    9042    9033      25    9054    9045
      25    9066    9057      25    9078    9069      25    9090    9081      25
    9102    9093      25    9114    9105      25    9126    9117      25    9138
    9129      25    9150    9141      25    9162    9153      25    9174    9165
      25    9186    9177      25    9198    9189      25    9210    9201      25
    9222    9213      25    9234    9225      25    9246    9237      25    9258
    9249      25    9270    9261      25    9282    9273      25    9294    9285
      25    9306    9297      25    9318    9309      25    9330    9321      25
    9342    9333      25    9354    9345      25    9366    9357      25    9378
    9369      25    9390    9381      25    9402    9393      25    9414    9405
      25    9426    9417      25    9438    9429      25    9450    9441      25
    9462    9453      25    9474    9465      25    9486    9477      25    9498
    9489      25    9510    9501      25    9522    9513      25    9534    9525
      25    9546    9537      25    9558    9549      25    9570    9561      25
    9582    9573      25    9594    9585      25    9606    9597      25    9618
    9609      25    9630    9621      25    9642    9633      25    9654    9645
      25    9666    9657      25    9678    9669      25    9690    9681      25
    9702    9693      25    9714    9705      25    9726    9717      25    9738
    9729      25    9750    9741      25    9762    9753      25    9774    9765
      25    9786    9777      25    9798    9789      25    9810    9801      25
    9822    9813      25    9834    9825      25    9846    9837      25    9858
    9849      25    9870    9861      25    9882    9873      25    9894    9885
      25    9906    9897      25    9918    9909      25    9930    9921      25
    9942    9933      25    9954    9945      25    9966    9957      25    9978
    9969      25    9990    9981      25   10002    9993      25   10014   10005
      25   10026   10017      25   10038   10029      25   10050   10041      25
   10062   10053      25   10074   10065      25   10086   10077      25   10098
   10089      25   10110   10101      25   10122   10113      25   10134   10125
      25   10146   10137      25   10158   10149      25   10170   10161      25
   10182   10173      25   10194   10185      25   10206   10197      25   10218
   10209      25   10230   10221      25   10242   10233      25   10254   10245
      25   10266   10257      25   10278   10269      25   10290   10281      25
   10302   10293      25   10314   10305      25   10326   10317      25   10338
   10329      25   10350   10341      25   10362   10353      25   10374   10365
      25   10386   10377      25   10398   10389      25   10410   10401      25
   10422   10413      25   10434   10425      25   10446   10437      25   10458
   10449      25   10470   10461      25   10482   10473      25   10494   10485
      25   10506   10497      25   10518   10509      25   10530   10521      25
   10542   10533      25   10554   10545      25   10566   10557      25   10578
   10569      25   10590   10581      25   10602   10593      25   10614   10605
      25   10626   10617      25   10638   10629      25   10650   10641      25
   10662   10653      25   10674   10665      25   10686   10677      25   10698
   10689      25   10710   10701      25   10722   10713      25   10734   10725
      25   10746   10737      25   10758   10749      25   10770   10761      25
   10782   10773      25   10794   10785      25   10806   10797      25   10818
   10809      25   10830   10821      25   10842   10833      25   10854   10845
      25   10866   10857      25   10878   10869      25   10890   10881      25
   10902   10893      25   10914   10905      25   10926   10917      25   10938
   10929      25   10950   10941      25   10962   10953      25   10974   10965
      25   10986   10977      25   10998   10989      25   11010   11001      25
   11022   11013      25   11034   11025      25   11046   11037      25   11058
   11049      25   11070   11061      25   11082   11073      25   11094   11085
      25   11106   11097      25   11118   11109      25   11130   11121      25
   11142   11133      25   11154   11145      25   11166   11157      25   11178
   11169      25   11190   11181      25   11202   11193      25   11214   11205
      25   11226   11217      25   11238   11229      25   11250   11241      25
   11262   11253      25   11274   11265      25   11286   11277      25   11298
   11289      25   11310   11301      25   11322   11313      25   11334   11325
      25   11346   11337      25   11358   11349      25   11370   11361      25
   11382   11373      25   11394   11385      25   11406   11397      25   11418
   11409      25   11430   11421      25   11442   11433      25   11454   11445
      25   11466   11457      25   11478   11469      25   11490   11481      25
   11502   11493      25   11514   11505      25   11526   11517      25   11538
   11529      25   11550   11541      25   11562   11553      25   11574   11565
      25   11586   11577      25   11598   11589      25   11610   11601      25
   11622   11613      25   11634   11625      25   11646   11637      25   11658
   11649      25   11670   11661      25   11682   11673      25   11694   11685
      25   11706   11697      25   11718   11709      25   11730   11721      25
   11742   11733      25   11754   11745      25   11766   11757      25   11778
   11769      25   11790   11781      25   11802   11793      25   11814   11805
      25   11826   11817      25   11838   11829      25   11850   11841      25
   11862   11853      25   11874   11865      25   11886   11877      25   11898
   11889      25   11910   11901      25   11922   11913      25   11934   11925
      25   11946   11937      25   11958   11949      25   11970   11961      25
   11982   11973      25   11994   11985      25   12006   11997      25   12018
   12009      25   12030   12021      25   12042   12033      25   12054   12045
      25   12066   12057      25   12078   12069      25   12090   12081      25
   12102   12093      25   12114   12105      25   12126   12117      25   12138
   12129      25   12150   12141      25   12162   12153      25   12174   12165
      25   12186   12177      25   12198   12189      25   12210   12201      25
   12222   12213      25   12234   12225      25   12246   12237      25   12258
   12249      25   12270   12261      25   12282   12273      25   12294   12285
      25   12306   12297      25   12318   12309      25   12330   12321      25
   12342   12333      25   12354   12345      25   12366   12357      25   12378
   12369      25   12390   12381      25   12402   12393      25   12414   12405
      25   12426   12417      25   12438   12429      25   12450   12441      25
   12462   12453      25   12474   12465      25   12486   12477      25   12498
   12489      25   12510   12501      25   12522   12513      25   12534   12525
      25   12546   12537      25   12558   12549      25   12570   12561      25
   12582   12573      25   12594   12585      25   12606   12597      25   12618
   12609      25   12630   12621      25   12642   12633      25   12654   12645
      25   12666   12657      25   12678   12669      25   12690   12681      25
   12702   12693      25   12714   12705      25   12726   12717      25   12738
   12729      25   12750   12741      25   12762   12753      25   12774   12765
      25   12786   12777      25   12798   12789      25   12810   12801      25
   12822   12813      25   12834   12825      25   12846   12837      25   12858
   12849      25   12870   12861      25   12882   12873      25   12894   12885
      25   12906   12897      25   12918   12909      25   12930   12921      25
   12942   12933      25   12954   12945      25   12966   12957      25   12978
   12969      25   12990   12981      25   13002   12993      25   13014   13005
      25   13026   13017      25   13038   13029      25   13050   13041      25
   13062   13053      25   13074   13065      25   13086   13077      25   13098
   13089      25   13110   13101      25   13122   13113      25   13134   13125
      25   13146   13137      25   13158   13149      25   13170   13161      25
   13182   13173      25   13194   13185      25   13206   13197      25   13218
   13209      25   13230   13221      25   13242   13233      25   13254   13245
      25   13266   13257      25   13278   13269      25   13290   13281      25
   13302   13293      25   13314   13305      25   13326   13317      25   13338
   13329      25   13350   13341      25   13362   13353      25   13374   13365
      25   13386   13377      25   13398   13389      25   13410   13401      25
   13422   13413      25   13434   13425      25   13446   13437      25   13458
   13449      25   13470   13461      25   13482   13473      25   13494   13485
      25   13506   13497      25   13518   13509      25   13530   13521      25
   13542   13533      25   13554   13545      25   13566   13557      25   13578
   13569      25   13590   13581      25   13602   13593      25   13614   13605
      25   13626   13617      25   13638   13629      25   13650   13641      25
   13662   13653      25   13674   13665      25   13686   13677      25   13698
   13689      25   13710   13701      25   13722   13713      25   13734   13725
      25   13746   13737      25   13758   13749      25   13770   13761      25
   13782   13773      25   13794   13785      25   13806   13797      25   13818
   13809      25   13830   13821      25   13842   13833      25   13854   13845
      25   13866   13857      25   13878   13869      25   13890   13881      25
   13902   13893      25   13914   13905      25   13926   13917      25   13938
   13929      25   13950   13941      25   13962   13953      25   13974   13965
      25   13986   13977      25   13998   13989      25   14010   14001      25
   14022   14013      25   14034   14025      25   14046   14037      25   14058
   14049      25   14070   14061      25   14082   14073      25   14094   14085
      25   14106   14097      25   14118   14109      25   14130   14121      25
   14142   14133      25   14154   14145      25   14166   14157      25   14178
   14169      25   14190   14181      25   14202   14193      25   14214   14205
      25   14226   14217      25   14238   14229      25   14250   14241      25
   14262   14253      25   14274   14265      25   14286   14277      25   14298
   14289      25   14310   14301      25   14322   14313      25   14334   14325
      25   14346   14337      25   14358   14349      25   14370   14361      25
   14382   14373      25   14394   14385      25   14406   14397      25   14418
   14409      25   14430   14421      25   14442   14433      25   14454   14445
      25   14466   14457      25   14478   14469      25   14490   14481      25
   14502   14493      25   14514   14505      25   14526   14517      25   14538
   14529      25   14550   14541      25   14562   14553      25   14574   14565
      25   14586   14577      25   14598   14589      25   14610   14601      25
   14622   14613      25   14634   14625      25   14646   14637      25   14658
   14649      25   14670   14661      25   14682   14673      25   14694   14685
      25   14706   14697      25   14718   14709      25   14730   14721      25
   14742   14733      25   14754   14745      25   14766   14757      25   14778
   14769      25   14790   14781      25   14802   14793      25   14814   14805
      25   14826   14817      25   14838   14829      25   14850   14841      25
   14862   14853      25   14874   14865      25   14886   14877      25   14898
   14889      25   14910   14901      25   14922   14913      25   14934   14925
      25   14946   14937      25   14958   14949      25   14970   14961      25
   14982   14973      25   14994   14985      25   15006   14997      25   15018
   15009      25   15030   15021      25   15042   15033      25   15054   15045
      25   15066   15057      25   15078   15069      25   15090   15081      25
   15102   15093      25   15114   15105      25   15126   15117      25   15138
   15129      25   15150   15141      25   15162   15153      25   15174   15165
      25   15186   15177      25   15198   15189      25   15210   15201      25
   15222   15213      25   15234   15225      25   15246   15237      25   15258
   15249      25   15270   15261      25   15282   15273      25   15294   15285
      25   15306   15297      25   15318   15309      25   15330   15321      25
   15342   15333      25   15354   15345      25   15366   15357      25   15378
   15369      25   15390   15381      25   15402   15393      25   15414   15405
      25   15426   15417      25   15438   15429      25   15450   15441      25
   15462   15453      25   15474   15465      25   15486   15477      25   15498
   15489      25   15510   15501      25   15522   15513      25   15534   15525
      25   15546   15537      25   15558   15549      25   15570   15561      25
   15582   15573      25   15594   15585      25   15606   15597      25   15618
   15609      25   15630   15621      25   15642   15633      25   15654   15645
      25   15666   15657      25   15678   15669      25   15690   15681      25
   15702   15693      25   15714   15705      25   15726   15717      25   15738
   15729      25   15750   15741      25   15762   15753      25   15774   15765
      25   15786   15777      25   15798   15789      25   15810   15801      25
   15822   15813      25   15834   15825      25   15846   15837      25   15858
   15849      25   15870   15861      25   15882   15873      25   15894   15885
      25   15906   15897      25   15918   15909      25   15930   15921      25
   15942   15933      25   15954   15945      25   15966   15957      25   15978
   15969      25   15990   15981      25   16002   15993      25   16014   16005
      25   16026   16017      25   16038   16029      25   16050   16041      25
   16062   16053      25   16074   16065      25   16086   16077      25   16098
   16089      25   16110   16101      25   16122   16113      25   16134   16125
      25   16146   16137      25   16158   16149      25   16170   16161      25
   16182   16173      25   16194   16185      25   16206   16197      25   16218
   16209      25   16230   16221      25   16242   16233      25   16254   16245
      25   16266   16257      25   16278   16269      25   16290   16281      25
   16302   16293      25   16314   16305      25   16326   16317      25   16338
   16329      25   16350   16341      25   16362   16353      25   16374   16365
      25   16386   16377      25   16398   16389      25   16410   16401      25
   16422   16413      25   16434   16425      25   16446   16437      25   16458
   16449      25   16470   16461      25   16482   16473      25   16494   16485
      25   16506   16497      25   16518   16509      25   16530   16521      25
   16542   16533      25   16554   16545      25   16566   16557      25   16578
   16569      25   16590   16581      25   16602   16593      25   16614   16605
      25   16626   16617      25   16638   16629      25   16650   16641      25
   16662   16653      25   16674   16665      25   16686   16677      25   16698
   16689      25   16710   16701      25   16722   16713      25   16734   16725
      25   16746   16737      25   16758   16749      25   16770   16761      25
   16782   16773      25   16794   16785      25   16806   16797      25   16818
   16809      25   16830   16821      25   16842   16833      25   16854   16845
      25   16866   16857      25   16878   16869      25   16890   16881      25
   16902   16893      25   16914   16905      25   16926   16917      25   16938
   16929      25   16950   16941      25   16962   16953      25   16974   16965
      25   16986   16977      25   16998   16989      25   17010   17001      25
   17022   17013      25   17034   17025      25   17046   17037      25   17058
   17049      25   17070   17061      25   17082   17073      25   17094   17085
      25   17106   17097      25   17118   17109      25   17130   17121      25
   17142   17133      25   17154   17145      25   17166   17157      25   17178
   17169      25   17190   17181      25   17202   17193      25   17214   17205
      25   17226   17217      25   17238   17229      25   17250   17241      25
   17262   17253      25   17274   17265      25   17286   17277      25   17298
   17289      25   17310   17301      25   17322   17313      25   17334   17325
      25   17346   17337      25   17358   17349      25   17370   17361      25
   17382   17373      25   17394   17385      25   17406   17397      25   17418
   17409      25   17430   17421      25   17442   17433      25   17454   17445
      25   17466   17457      25   17478   17469      25   17490   17481      25
   17502   17493      25   17514   17505      25   17526   17517      25   17538
   17529      25   17550   17541      25   17562   17553      25   17574   17565
      25   17586   17577      25   17598   17589      25   17610   17601      25
   17622   17613      25   17634   17625      25   17646   17637      25   17658
   17649      25   17670   17661      25   17682   17673      25   17694   17685
      25   17706   17697      25   17718   17709      25   17730   17721      25
   17742   17733      25   17754   17745      25   17766   17757      25   17778
   17769      25   17790   17781      25   17802   17793      25   17814   17805
      25   17826   17817      25   17838   17829      25   17850   17841      25
   17862   17853      25   17874   17865      25   17886   17877      25   17898
   17889      25   17910   17901      25   17922   17913      25   17934   17925
      25   17946   17937      25   17958   17949      25   17970   17961      25
   17982   17973      25   17994   17985      25   18006   17997      25   18018
   18009      25   18030   18021      25   18042   18033      25   18054   18045
      25   18066   18057      25   18078   18069      25   18090   18081      25
   18102   18093      25   18114   18105      25   18126   18117      25   18138
   18129      25   18150   18141      25   18162   18153      25   18174   18165
      25   18186   18177      25   18198   18189      25   18210   18201      25
   18222   18213      25   18234   18225      25   18246   18237      25   18258
   18249      25   18270   18261      25   18282   18273      25   18294   18285
      25   18306   18297      25   18318   18309      25   18330   18321      25
   18342   18333      25   18354   18345      25   18366   18357      25   18378
   18369      25   18390   18381      25   18402   18393      25   18414   18405
      25   18426   18417      25   18438   18429      25   18450   18441      25
   18462   18453      25   18474   18465      25   18486   18477      25   18498
   18489      25   18510   18501      25   18522   18513      25   18534   18525
      25   18546   18537      25   18558   18549      25   18570   18561      25
   18582   18573      25   18594   18585      25   18606   18597      25   18618
   18609      25   18630   18621      25   18642   18633      25   18654   18645
      25   18666   18657      25   18678   18669      25   18690   18681      25
   18702   18693      25   18714   18705      25   18726   18717      25   18738
   18729      25   18750   18741      25   18762   18753      25   18774   18765
      25   18786   18777      25   18798   18789      25   18810   18801      25
   18822   18813      25   18834   18825      25   18846   18837      25   18858
   18849      25   18870   18861      25   18882   18873      25   18894   18885
      25   18906   18897      25   18918   18909      25   18930   18921      25
   18942   18933      25   18954   18945      25   18966   18957      25   18978
   18969      25   18990   18981      25   19002   18993      25   19014   19005
      25   19026   19017      25   19038   19029      25   19050   19041      25
   19062   19053      25   19074   19065      25   19086   19077      25   19098
   19089      25   19110   19101      25   19122   19113      25   19134   19125
      25   19146   19137      25   19158   19149      25   19170   19161      25
   19182   19173      25   19194   19185      25   19206   19197      25   19218
   19209      25   19230   19221      25   19242   19233      25   19254   19245
      25   19266   19257      25   19278   19269      25   19290   19281      25
   19302   19293      25   19314   19305      25   19326   19317      25   19338
   19329      25   19350   19341      25   19362   19353      25   19374   19365
      25   19386   19377      25   19398   19389      25   19410   19401      25
   19422   19413      25   19434   19425      25   19446   19437      25   19458
   19449      25   19470   19461      25   19482   19473      25   19494   19485
      25   19506   19497      25   19518   19509      25   19530   19521      25
   19542   19533      25   19554   19545      25   19566   19557      25   19578
   19569      25   19590   19581      25   19602   19593      25   19614   19605
      25   19626   19617      25   19638   19629      25   19650   19641      25
   19662   19653      25   19674   19665      25   19686   19677      25   19698
   19689      25   19710   19701      25   19722   19713      25   19734   19725
      25   19746   19737      25   19758   19749      25   19770   19761      25
   19782   19773      25   19794   19785      25   19806   19797      25   19818
   19809      25   19830   19821      25   19842   19833      25   19854   19845
      25   19866   19857      25   19878   19869      25   19890   19881      25
   19902   19893      25   19914   19905      25   19926   19917      25   19938
   19929      25   19950   19941      25   19962   19953      25   19974   19965
      25   19986   19977      25   19998   19989      25   20010   20001      25
   20022   20013      25   20034   20025      25   20046   20037      25   20058
   20049      25   20070   20061      25   20082   20073      25   20094   20085
      25   20106   20097      25   20118   20109      25   20130   20121      25
   20142   20133      25   20154   20145      25   20166   20157      25   20178
   20169      25   20190   20181      25   20202   20193      25   20214   20205
      25   20226   20217      25   20238   20229      25   20250   20241      25
   20262   20253      25   20274   20265      25   20286   20277      25   20298
   20289      25   20310   20301      25   20322   20313      25   20334   20325
      25
%FLAG ANGLES_INC_HYDROGEN                                                       
%FORMAT(10I8)                                                                   
      12      18      21       2       9       3      12       4       6       3
       9       5       6       3      12       4       0       3       6       5
       0       3       9       5       0       3      12       4      78      84
      87       2      72      66      75       8      69      66      72       8
      69      66      75       8      63      57      66       9      60      57
      63      10      60      57      66       9      57      66      69      11
      57      66      72      11      57      66      75      11      54      48
      57      12      51      48      54      13      51      48      57      12
      48      57      60      14      48      57      63      14      45      39
      48      12      42      39      45      13      42      39      48      12
      39      48      51      12      39      48      54      12      36      30
      39      12      33      30      36      13      33      30      39      12
      30      39      42      12      30      39      45      12      27      24
      30      18      27      24      78      19      24      30      33      20
      24      30      36      20      21      18      24      24      18      24
      27      25     108     114     117       2     102      96     105       5
      99      96     102       5      99      96     105       5      93      90
      96      29      93      90     108      19      90      96      99      30
      90      96     102      30      90      96     105      30      87      84
      90      24      84      90      93      25     153     159     162       2
     141     135     144      34     138     135     141      35     138     135
     144      34     132     126     135      37     129     126     132      35
     129     126     135      37     126     135     138      37     126     135
     141      37     123     120     126      40     123     120     153      19
     120     126     129      41     120     126     132      41     117     114
     120      24     114     120     123      25     171     165     174      44
     168     165     171      44     168     165     174      44     162     159
     165      45     159     165     168      46     159     165     171      46
     159     165     174      46
%FLAG ANGLES_WITHOUT_HYDROGEN                                                   
%FORMAT(10I8)                                                                   
      15      12      18       1      12      18      24       3       3      12
      15       6       3      12      18       7      81      78      84       1
      78      84      90       3      48      57      66      15      39      48
      57      16      30      24      78      17      30      39      48      16
      24      30      39      21      24      78      81      22      24      78
      84      23      18      24      30      26      18      24      78      27
     111     108     114       1     108     114     120       3      96      90
     108      28      90     108     111      22      90     108     114      23
      84      90      96      31      84      90     108      27     156     153
     159       1     153     159     165      32     147     144     150      33
     135     144     147      36     135     144     150      36     126     120
     153      38     126     135     144      39     120     126     135      42
     120     153     156      22     120     153     159      23     114     120
     126      43     114     120     153      27
%FLAG DIHEDRALS_INC_HYDROGEN                                                    
%FORMAT(10I8)                                                                   
      15      12      18      21       1      15      12     -18      21       2
      12      18      24      27       3       9       3      12      15       7
       9       3     -12      15       3       9       3     -12      15       8
       9       3      12      18       3       6       3      12      15       7
       6       3     -12      15       3       6       3     -12      15       8
       6       3      12      18       3       3      12      18      21       2
       0       3      12      15       7       0       3     -12      15       3
       0       3     -12      15       8       0       3      12      18       3
      81      78      84      87       1      81      78     -84      87       2
      78      84      90      93       3      63      57      66      69       9
      63      57      66      72       9      63      57      66      75       9
      60      57      66      69       9      60      57      66      72       9
      60      57      66      75       9      54      48      57      60       9
      54      48      57      63       9      54      48      57      66       9
      51      48      57      60       9      51      48      57      63       9
      51      48      57      66       9      48      57      66      69       9
      48      57      66      72       9      48      57      66      75       9
      45      39      48      51      10      45      39      48      54      10
      45      39      48      57      11      42      39      48      51      10
      42      39      48      54      10      42      39      48      57      11
      39      48      57      60       9      39      48      57      63       9
      36      30      24      78       9      36      30      39      42      10
      36      30      39      45      10      36      30      39      48      11
      33      30      24      78       9      33      30      39      42      10
      33      30      39      45      10      33      30      39      48      11
      30      39      48      51      11      30      39      48      54      11
      27      24      30      33       9      27      24      30      36       9
      27      24      30      39       9      27      24      78      81       4
      27      24     -78      81       3      27      24     -78      81      15
      27      24      78      84       3      24      30      39      42      11
      24      30      39      45      11      24      78      84      87       2
      21      18      24      27       3      21      18      24      30       3
      21      18      24      78       3      18      24      30      33       9
      18      24      30      36       9     111     108     114     117       1
     111     108    -114     117       2     108     114     120     123       3
     105      96      90     108       9     102      96      90     108       9
      99      96      90     108       9      93      90      96      99       9
      93      90      96     102       9      93      90      96     105       9
      93      90     108     111       4      93      90    -108     111       3
      93      90    -108     111      15      93      90     108     114       3
      90     108     114     117       2      87      84      90      93       3
      87      84      90      96       3      87      84      90     108       3
      84      90      96      99       9      84      90      96     102       9
      84      90      96     105       9     156     153     159     162       1
     156     153    -159     162       2     153     159     165     168       3
     153     159     165     171       3     153     159     165     174       3
     141     135     144     147       3     141     135     144     150       3
     138     135     144     147       3     138     135     144     150       3
     132     126     120     153       9     132     126     135     138      10
     132     126     135     141      10     132     126     135     144       9
     129     126     120     153       9     129     126     135     138      10
     129     126     135     141      10     129     126     135     144       9
     123     120     126     129       9     123     120     126     132       9
     123     120     126     135       9     123     120     153     156       4
     123     120    -153     156       3     123     120    -153     156      15
     123     120     153     159       3     120     126     135     138      11
     120     126     135     141      11     120     153     159     162       2
     117     114     120     123       3     117     114     120     126       3
     117     114     120     153       3     114     120     126     129       9
     114     120     126     132       9     162     159     165     168       3
     162     159     165     171       3     162     159     165     174       3
      12      24     -18     -21      32      78      87     -84     -90      32
     108     117    -114    -120      32     153     165    -159    -162      32
%FLAG DIHEDRALS_WITHOUT_HYDROGEN                                                
%FORMAT(10I8)                                                                   
      15      12      18      24       2      12      18      24      30       4
      12      18     -24      30       3      12      18     -24      30       5
      12      18     -24      30       6      12      18      24      78       4
      12      18     -24      78       3      12      18     -24      78       5
      12      18     -24      78       6       3      12      18      24       2
      81      78      84      90       2      78      84      90      96       4
      78      84     -90      96       3      78      84     -90      96       5
      78      84     -90      96       6      78      84      90     108       4
      78      84     -90     108       3      78      84     -90     108       5
      78      84     -90     108       6      39      30      24      78       9
      39      48      57      66       9      30      24      78      81       3
      30      24      78      84       4      30      24     -78      84       3
      30      24     -78      84       5      30      24     -78      84       6
      30      39      48      57      12      30      39     -48      57      13
      30      39     -48      57      14      24      30      39      48      12
      24      30     -39      48      13      24      30     -39      48      14
      24      78      84      90       2      18      24      30      39       9
      18      24      78      81       3      18      24      78      84      16
      18      24     -78      84      17      18      24     -78      84      15
      18      24     -78      84       6     111     108     114     120       2
     108     114     120     126       4     108     114    -120     126       3
     108     114    -120     126       5     108     114    -120     126       6
     108     114     120     153       4     108     114    -120     153       3
     108     114    -120     153       5     108     114    -120     153       6
      96      90     108     111       3      96      90     108     114       4
      96      90    -108     114       3      96      90    -108     114       5
      96      90    -108     114       6      90     108     114     120       2
      84      90     108     111       3      84      90     108     114      16
      84      90    -108     114      17      84      90    -108     114      15
      84      90    -108     114       6     156     153     159     165       2
     135     126     120     153      18     135     126    -120     153      19
     135     126    -120     153      20     135     126    -120     153      21
     126     120     153     156       3     126     120     153     159       4
     126     120    -153     159       3     126     120    -153     159       5
     126     120    -153     159       6     126     135     144     147      22
     126     135    -144     147      23     126     135     144     150      22
     126     135    -144     150      23     120     126     135     144      24
     120     126    -135     144      25     120     126    -135     144      26
     120     126    -135     144      27     120     153     159     165       2
     114     120     126     135      28     114     120    -126     135      29
     114     120    -126     135      20     114     120    -126     135      30
     114     120     153     156       3     114     120     153     159      16
     114     120    -153     159      17     114     120    -153     159      15
     114     120    -153     159       6       3      18     -12     -15      31
      24      84     -78     -81      31      90     114    -108    -111      31
     120     159    -153    -156      31     135     147    -144    -150      31
%FLAG EXCLUDED_ATOMS_LIST                                                       
%FORMAT(10I8)                                                                   
       2       3       4       5       6       7       3       4       5       6
       7       8       9       4       5       6       7       5       6       7
       6       7       8       9      10      11      27       7       8       9
       8       9      10      11      12      13      14      27      28      29
       9      10      11      27      10      11      12      13      14      15
      16      17      27      28      29      30      31      11      12      13
      14      27      28      29      12      13      14      15      16      17
      18      19      20      27      28      29      13      14      15      16
      17      27      14      15      16      17      27      15      16      17
      18      19      20      21      22      23      27      16      17      18
      19      20      17      18      19      20      18      19      20      21
      22      23      24      25      26      19      20      21      22      23
      20      21      22      23      21      22      23      24      25      26
      22      23      24      25      26      23      24      25      26      24
      25      26      25      26      26       0      28      29      30      31
      32      33      37      29      30      31      30      31      32      33
      34      35      36      37      38      39      31      32      33      37
      32      33      34      35      36      37      38      39      40      41
      33      34      35      36      37      38      39      34      35      36
      37      38      39      35      36      37      36      37      37      38
      39      40      41      42      43      52      39      40      41      40
      41      42      43      44      45      46      52      53      54      41
      42      43      52      42      43      44      45      46      47      48
      49      52      53      54      55      56      43      44      45      46
      52      53      54      44      45      46      47      48      49      50
      51      52      53      54      45      46      47      48      49      52
      46      47      48      49      52      47      48      49      50      51
      52      48      49      50      51      49      50      51      50      51
      51       0      53      54      55      56      57      58      59      54
      55      56      55      56      57      58      59      56      57      58
      59      57      58      59      58      59      59       0      61      62
      63      62      63      63       0      65      66      67      66      67
      67       0      69      70      71      70      71      71       0      73
      74      75      74      75      75       0      77      78      79      78
      79      79       0      81      82      83      82      83      83       0
      85      86      87      86      87      87       0      89      90      91
      90      91      91       0      93      94      95      94      95      95
       0      97      98      99      98      99      99       0     101     102
     103     102     103     103       0     105     106     107     106     107
     107       0     109     110     111     110     111     111       0     113
     114     115     114     115     115       0     117     118     119     118
     119     119       0     121     122     123     122     123     123       0
     125     126     127     126     127     127       0     129     130     131
     130     131     131       0     133     134     135     134     135     135
       0     137     138     139     138     139     139       0     141     142
     143     142     143     143       0     145     146     147     146     147
     147       0     149     150     151     150     151     151       0     153
     154     155     154     155     155       0     157     158     159     158
     159     159       0     161     162     163     162     163     163       0
     165     166     167     166     167     167       0     169     170     171
     170     171     171       0     173     174     175     174     175     175
       0     177     178     179     178     179     179       0     181     182
     183     182     183     183       0     185     186     187     186     187
     187       0     189     190     191     190     191     191       0     193
     194     195     194     195     195       0     197     198     199     198
     199     199       0     201     202     203     202     203     203       0
     205     206     207     206     207     207       0     209     210     211
     210     211     211       0     213     214     215     214     215     215
       0     217     218     219     218     219     219       0     221     222
     223     222     223     223       0     225     226     227     226     227
     227       0     229     230     231     230     231     231       0     233
     234     235     234     235     235       0     237     238     239     238
     239     239       0     241     242     243     242     243     243       0
     245     246     247     246     247     247       0     249     250     251
     250     251     251       0     253     254     255     254     255     255
       0     257     258     259     258     259     259       0     261     262
     263     262     263     263       0     265     266     267     266     267
     267       0     269     270     271     270     271     271       0     273
     274     275     274     275     275       0     277     278     279     278
     279     279       0     281     282     283     282     283     283       0
     285     286     287     286     287     287       0     289     290     291
     290     291     291       0     293     294     295     294     295     295
       0     297     298     299     298     299     299       0     301     302
     303     302     303     303       0     305     306     307     306     307
     307       0     309     310     311     310     311     311       0     313
     314     315     314     315     315       0     317     318     319     318
     319     319       0     321     322     323     322     323     323       0
     325     326     327     326     327     327       0     329     330     331
     330     331     331       0     333     334     335     334     335     335
       0     337     338     339     338     339     339       0     341     342
     343     342     343     343       0     345     346     347     346     347
     347       0     349     350     351     350     351     351       0     353
     354     355     354     355     355       0     357     358     359     358
     359     359       0     361     362     363     362     363     363       0
     365     366     367     366     367     367       0     369     370     371
     370     371     371       0     373     374     375     374     375     375
       0     377     378     379     378     379     379       0     381     382
     383     382     383     383       0     385     386     387     386     387
     387       0     389     390     391     390     391     391       0     393
     394     395     394     395     395       0     397     398     399     398
     399     399       0     401     402     403     402     403     403       0
     405     406     407     406     407     407       0     409     410     411
     410     411     411       0     413     414     415     414     415     415
       0     417     418     419     418     419     419       0     421     422
     423     422     423     423       0     425     426     427     426     427
     427       0     429     430     431     430     431     431       0     433
     434     435     434     435     435       0     437     438     439     438
     439     439       0     441     442     443     442     443     443       0
     445     446     447     446     447     447       0     449     450     451
     450     451     451       0     453     454     455     454     455     455
       0     457     458     459     458     459     459       0     461     462
     463     462     463     463       0     465     466     467     466     467
     467       0     469     470     471     470     471     471       0     473
     474     475     474     475     475       0     477     478     479     478
     479     479       0     481     482     483     482     483     483       0
     485     486     487     486     487     487       0     489     490     491
     490     491     491       0     493     494     495     494     495     495
       0     497     498     499     498     499     499       0     501     502
     503     502     503     503       0     505     506     507     506     507
     507       0     509     510     511     510     511     511       0     513
     514     515     514     515     515       0     517     518     519     518
     519     519       0     521     522     523     522     523     523       0
     525     526     527     526     527     527       0     529     530     531
     530     531     531       0     533     534     535     534     535     535
       0     537     538     539     538     539     539       0     541     542
     543     542     543     543       0     545     546     547     546     547
     547       0     549     550     551     550     551     551       0     553
     554     555     554     555     555       0     557     558     559     558
     559     559       0     561     562     563     562     563     563       0
     565     566     567     566     567     567       0     569     570     571
     570     571     571       0     573     574     575     574     575     575
       0     577     578     579     578     579     579       0     581     582
     583     582     583     583       0     585     586     587     586     587
     587       0     589     590     591     590     591     591       0     593
     594     595     594     595     595       0     597     598     599     598
     599     599       0     601     602     603     602     603     603       0
     605     606     607     606     607     607       0     609     610     611
     610     611     611       0     613     614     615     614     615     615
       0     617     618     619     618     619     619       0     621     622
     623     622     623     623       0     625     626     627     626     627
     627       0     629     630     631     630     631     631       0     633
     634     635     634     635     635       0     637     638     639     638
     639     639       0     641     642     643     642     643     643       0
     645     646     647     646     647     647       0     649     650     651
     650     651     651       0     653     654     655     654     655     655
       0     657     658     659     658     659     659       0     661     662
     663     662     663     663       0     665     666     667     666     667
     667       0     669     670     671     670     671     671       0     673
     674     675     674     675     675       0     677     678     679     678
     679     679       0     681     682     683     682     683     683       0
     685     686     687     686     687     687       0     689     690     691
     690     691     691       0     693     694     695     694     695     695
       0     697     698     699     698     699     699       0     701     702
     703     702     703     703       0     705     706     707     706     707
     707       0     709     710     711     710     711     711       0     713
     714     715     714     715     715       0     717     718     719     718
     719     719       0     721     722     723     722     723     723       0
     725     726     727     726     727     727       0     729     730     731
     730     731     731       0     733     734     735     734     735     735
       0     737     738     739     738     739     739       0     741     742
     743     742     743     743       0     745     746     747     746     747
     747       0     749     750     751     750     751     751       0     753
     754     755     754     755     755       0     757     758     759     758
     759     759       0     761     762     763     762     763     763       0
     765     766     767     766     767     767       0     769     770     771
     770     771     771       0     773     774     775     774     775     775
       0     777     778     779     778     779     779       0     781     782
     783     782     783     783       0     785     786     787     786     787
     787       0     789     790     791     790     791     791       0     793
     794     795     794     795     795       0     797     798     799     798
     799     799       0     801     802     803     802     803     803       0
     805     806     807     806     807     807       0     809     810     811
     810     811     811       0     813     814     815     814     815     815
       0     817     818     819     818     819     819       0     821     822
     823     822     823     823       0     825     826     827     826     827
     827       0     829     830     831     830     831     831       0     833
     834     835     834     835     835       0     837     838     839     838
     839     839       0     841     842     843     842     843     843       0
     845     846     847     846     847     847       0     849     850     851
     850     851     851       0     853     854     855     854     855     855
       0     857     858     859     858     859     859       0     861     862
     863     862     863     863       0     865     866     867     866     867
     867       0     869     870     871     870     871     871       0     873
     874     875     874     875     875       0     877     878     879     878
     879     879       0     881     882     883     882     883     883       0
     885     886     887     886     887     887       0     889     890     891
     890     891     891       0     893     894     895     894     895     895
       0     897     898     899     898     899     899       0     901     902
     903     902     903     903       0     905     906     907     906     907
     907       0     909     910     911     910     911     911       0     913
     914     915     914     915     915       0     917     918     919     918
     919     919       0     921     922     923     922     923     923       0
     925     926     927     926     927     927       0     929     930     931
     930     931     931       0     933     934     935     934     935     935
       0     937     938     939     938     939     939       0     941     942
     943     942     943     943       0     945     946     947     946     947
     947       0     949     950     951     950     951     951       0     953
     954     955     954     955     955       0     957     958     959     958
     959     959       0     961     962     963     962     963     963       0
     965     966     967     966     967     967       0     969     970     971
     970     971     971       0     973     974     975     974     975     975
       0     977     978     979     978     979     979       0     981     982
     983     982     983     983       0     985     986     987     986     987
     987       0     989     990     991     990     991     991       0     993
     994     995     994     995     995       0     997     998     999     998
     999     999       0    1001    1002    1003    1002    1003    1003       0
    1005    1006    1007    1006    1007    1007       0    1009    1010    1011
    1010    1011    1011       0    1013    1014    1015    1014    1015    1015
       0    1017    1018    1019    1018    1019    1019       0    1021    1022
    1023    1022    1023    1023       0    1025    1026    1027    1026    1027
    1027       0    1029    1030    1031    1030    1031    1031       0    1033
    1034    1035    1034    1035    1035       0    1037    1038    1039    1038
    1039    1039       0    1041    1042    1043    1042    1043    1043       0
    1045    1046    1047    1046    1047    1047       0    1049    1050    1051
    1050    1051    1051       0    1053    1054    1055    1054    1055    1055
       0    1057    1058    1059    1058    1059    1059       0    1061    1062
    1063    1062    1063    1063       0    1065    1066    1067    1066    1067
    1067       0    1069    1070    1071    1070    1071    1071       0    1073
    1074    1075    1074    1075    1075       0    1077    1078    1079    1078
    1079    1079       0    1081    1082    1083    1082    1083    1083       0
    1085    1086    1087    1086    1087    1087       0    1089    1090    1091
    1090    1091    1091       0    1093    1094    1095    1094    1095    1095
       0    1097    1098    1099    1098    1099    1099       0    1101    1102
    1103    1102    1103    1103       0    1105    1106    1107    1106    1107
    1107       0    1109    1110    1111    1110    1111    1111       0    1113
    1114    1115    1114    1115    1115       0    1117    1118    1119    1118
    1119    1119       0    1121    1122    1123    1122    1123    1123       0
    1125    1126    1127    1126    1127    1127       0    1129    1130    1131
    1130    1131    1131       0    1133    1134    1135    1134    1135    1135
       0    1137    1138    1139    1138    1139    1139       0    1141    1142
    1143    1142    1143    1143       0    1145    1146    1147    1146    1147
    1147       0    1149    1150    1151    1150    1151    1151       0    1153
    1154    1155    1154    1155    1155       0    1157    1158    1159    1158
    1159    1159       0    1161    1162    1163    1162    1163    1163       0
    1165    1166    1167    1166    1167    1167       0    1169    1170    1171
    1170    1171    1171       0    1173    1174    1175    1174    1175    1175
       0    1177    1178    1179    1178    1179    1179       0    1181    1182
    1183    1182    1183    1183       0    1185    1186    1187    1186    1187
    1187       0    1189    1190    1191    1190    1191    1191       0    1193
    1194    1195    1194    1195    1195       0    1197    1198    1199    1198
    1199    1199       0    1201    1202    1203    1202    1203    1203       0
    1205    1206    1207    1206    1207    1207       0    1209    1210    1211
    1210    1211    1211       0    1213    1214    1215    1214    1215    1215
       0    1217    1218    1219    1218    1219    1219       0    1221    1222
    1223    1222    1223    1223       0    1225    1226    1227    1226    1227
    1227       0    1229    1230    1231    1230    1231    1231       0    1233
    1234    1235    1234    1235    1235       0    1237    1238    1239    1238
    1239    1239       0    1241    1242    1243    1242    1243    1243       0
    1245    1246    1247    1246    1247    1247       0    1249    1250    1251
    1250    1251    1251       0    1253    1254    1255    1254    1255    1255
       0    1257    1258    1259    1258    1259    1259       0    1261    1262
    1263    1262    1263    1263       0    1265    1266    1267    1266    1267
    1267       0    1269    1270    1271    1270    1271    1271       0    1273
    1274    1275    1274    1275    1275       0    1277    1278    1279    1278
    1279    1279       0    1281    1282    1283    1282    1283    1283       0
    1285    1286    1287    1286    1287    1287       0    1289    1290    1291
    1290    1291    1291       0    1293    1294    1295    1294    1295    1295
       0    1297    1298    1299    1298    1299    1299       0    1301    1302
    1303    1302    1303    1303       0    1305    1306    1307    1306    1307
    1307       0    1309    1310    1311    1310    1311    1311       0    1313
    1314    1315    1314    1315    1315       0    1317    1318    1319    1318
    1319    1319       0    1321    1322    1323    1322    1323    1323       0
    1325    1326    1327    1326    1327    1327       0    1329    1330    1331
    1330    1331    1331       0    1333    1334    1335    1334    1335    1335
       0    1337    1338    1339    1338    1339    1339       0    1341    1342
    1343    1342    1343    1343       0    1345    1346    1347    1346    1347
    1347       0    1349    1350    1351    1350    1351    1351       0    1353
    1354    1355    1354    1355    1355       0    1357    1358    1359    1358
    1359    1359       0    1361    1362    1363    1362    1363    1363       0
    1365    1366    1367    1366    1367    1367       0    1369    1370    1371
    1370    1371    1371       0    1373    1374    1375    1374    1375    1375
       0    1377    1378    1379    1378    1379    1379       0    1381    1382
    1383    1382    1383    1383       0    1385    1386    1387    1386    1387
    1387       0    1389    1390    1391    1390    1391    1391       0    1393
    1394    1395    1394    1395    1395       0    1397    1398    1399    1398
    1399    1399       0    1401    1402    1403    1402    1403    1403       0
    1405    1406    1407    1406    1407    1407       0    1409    1410    1411
    1410    1411    1411       0    1413    1414    1415    1414    1415    1415
       0    1417    1418    1419    1418    1419    1419       0    1421    1422
    1423    1422    1423    1423       0    1425    1426    1427    1426    1427
    1427       0    1429    1430    1431    1430    1431    1431       0    1433
    1434    1435    1434    1435    1435       0    1437    1438    1439    1438
    1439    1439       0    1441    1442    1443    1442    1443    1443       0
    1445    1446    1447    1446    1447    1447       0    1449    1450    1451
    1450    1451    1451       0    1453    1454    1455    1454    1455    1455
       0    1457    1458    1459    1458    1459    1459       0    1461    1462
    1463    1462    1463    1463       0    1465    1466    1467    1466    1467
    1467       0    1469    1470    1471    1470    1471    1471       0    1473
    1474    1475    1474    1475    1475       0    1477    1478    1479    1478
    1479    1479       0    1481    1482    1483    1482    1483    1483       0
    1485    1486    1487    1486    1487    1487       0    1489    1490    1491
    1490    1491    1491       0    1493    1494    1495    1494    1495    1495
       0    1497    1498    1499    1498    1499    1499       0    1501    1502
    1503    1502    1503    1503       0    1505    1506    1507    1506    1507
    1507       0    1509    1510    1511    1510    1511    1511       0    1513
    1514    1515    1514    1515    1515       0    1517    1518    1519    1518
    1519    1519       0    1521    1522    1523    1522    1523    1523       0
    1525    1526    1527    1526    1527    1527       0    1529    1530    1531
    1530    1531    1531       0    1533    1534    1535    1534    1535    1535
       0    1537    1538    1539    1538    1539    1539       0    1541    1542
    1543    1542    1543    1543       0    1545    1546    1547    1546    1547
    1547       0    1549    1550    1551    1550    1551    1551       0    1553
    1554    1555    1554    1555    1555       0    1557    1558    1559    1558
    1559    1559       0    1561    1562    1563    1562    1563    1563       0
    1565    1566    1567    1566    1567    1567       0    1569    1570    1571
    1570    1571    1571       0    1573    1574    1575    1574    1575    1575
       0    1577    1578    1579    1578    1579    1579       0    1581    1582
    1583    1582    1583    1583       0    1585    1586    1587    1586    1587
    1587       0    1589    1590    1591    1590    1591    1591       0    1593
    1594    1595    1594    1595    1595       0    1597    1598    1599    1598
    1599    1599       0    1601    1602    1603    1602    1603    1603       0
    1605    1606    1607    1606    1607    1607       0    1609    1610    1611
    1610    1611    1611       0    1613    1614    1615    1614    1615    1615
       0    1617    1618    1619    1618    1619    1619       0    1621    1622
    1623    1622    1623    1623       0    1625    1626    1627    1626    1627
    1627       0    1629    1630    1631    1630    1631    1631       0    1633
    1634    1635    1634    1635    1635       0    1637    1638    1639    1638
    1639    1639       0    1641    1642    1643    1642    1643    1643       0
    1645    1646    1647    1646    1647    1647       0    1649    1650    1651
    1650    1651    1651       0    1653    1654    1655    1654    1655    1655
       0    1657    1658    1659    1658    1659    1659       0    1661    1662
    1663    1662    1663    1663       0    1665    1666    1667    1666    1667
    1667       0    1669    1670    1671    1670    1671    1671       0    1673
    1674    1675    1674    1675    1675       0    1677    1678    1679    1678
    1679    1679       0    1681    1682    1683    1682    1683    1683       0
    1685    1686    1687    1686    1687    1687       0    1689    1690    1691
    1690    1691    1691       0    1693    1694    1695    1694    1695    1695
       0    1697    1698    1699    1698    1699    1699       0    1701    1702
    1703    1702    1703    1703       0    1705    1706    1707    1706    1707
    1707       0    1709    1710    1711    1710    1711    1711       0    1713
    1714    1715    1714    1715    1715       0    1717    1718    1719    1718
    1719    1719       0    1721    1722    1723    1722    1723    1723       0
    1725    1726    1727    1726    1727    1727       0    1729    1730    1731
    1730    1731    1731       0    1733    1734    1735    1734    1735    1735
       0    1737    1738    1739    1738    1739    1739       0    1741    1742
    1743    1742    1743    1743       0    1745    1746    1747    1746    1747
    1747       0    1749    1750    1751    1750    1751    1751       0    1753
    1754    1755    1754    1755    1755       0    1757    1758    1759    1758
    1759    1759       0    1761    1762    1763    1762    1763    1763       0
    1765    1766    1767    1766    1767    1767       0    1769    1770    1771
    1770    1771    1771       0    1773    1774    1775    1774    1775    1775
       0    1777    1778    1779    1778    1779    1779       0    1781    1782
    1783    1782    1783    1783       0    1785    1786    1787    1786    1787
    1787       0    1789    1790    1791    1790    1791    1791       0    1793
    1794    1795    1794    1795    1795       0    1797    1798    1799    1798
    1799    1799       0    1801    1802    1803    1802    1803    1803       0
    1805    1806    1807    1806    1807    1807       0    1809    1810    1811
    1810    1811    1811       0    1813    1814    1815    1814    1815    1815
       0    1817    1818    1819    1818    1819    1819       0    1821    1822
    1823    1822    1823    1823       0    1825    1826    1827    1826    1827
    1827       0    1829    1830    1831    1830    1831    1831       0    1833
    1834    1835    1834    1835    1835       0    1837    1838    1839    1838
    1839    1839       0    1841    1842    1843    1842    1843    1843       0
    1845    1846    1847    1846    1847    1847       0    1849    1850    1851
    1850    1851    1851       0    1853    1854    1855    1854    1855    1855
       0    1857    1858    1859    1858    1859    1859       0    1861    1862
    1863    1862    1863    1863       0    1865    1866    1867    1866    1867
    1867       0    1869    1870    1871    1870    1871    1871       0    1873
    1874    1875    1874    1875    1875       0    1877    1878    1879    1878
    1879    1879       0    1881    1882    1883    1882    1883    1883       0
    1885    1886    1887    1886    1887    1887       0    1889    1890    1891
    1890    1891    1891       0    1893    1894    1895    1894    1895    1895
       0    1897    1898    1899    1898    1899    1899       0    1901    1902
    1903    1902    1903    1903       0    1905    1906    1907    1906    1907
    1907       0    1909    1910    1911    1910    1911    1911       0    1913
    1914    1915    1914    1915    1915       0    1917    1918    1919    1918
    1919    1919       0    1921    1922    1923    1922    1923    1923       0
    1925    1926    1927    1926    1927    1927       0    1929    1930    1931
    1930    1931    1931       0    1933    1934    1935    1934    1935    1935
       0    1937    1938    1939    1938    1939    1939       0    1941    1942
    1943    1942    1943    1943       0    1945    1946    1947    1946    1947
    1947       0    1949    1950    1951    1950    1951    1951       0    1953
    1954    1955    1954    1955    1955       0    1957    1958    1959    1958
    1959    1959       0    1961    1962    1963    1962    1963    1963       0
    1965    1966    1967    1966    1967    1967       0    1969    1970    1971
    1970    1971    1971       0    1973    1974    1975    1974    1975    1975
       0    1977    1978    1979    1978    1979    1979       0    1981    1982
    1983    1982    1983    1983       0    1985    1986    1987    1986    1987
    1987       0    1989    1990    1991    1990    1991    1991       0    1993
    1994    1995    1994    1995    1995       0    1997    1998    1999    1998
    1999    1999       0    2001    2002    2003    2002    2003    2003       0
    2005    2006    2007    2006    2007    2007       0    2009    2010    2011
    2010    2011    2011       0    2013    2014    2015    2014    2015    2015
       0    2017    2018    2019    2018    2019    2019       0    2021    2022
    2023    2022    2023    2023       0    2025    2026    2027    2026    2027
    2027       0    2029    2030    2031    2030    2031    2031       0    2033
    2034    2035    2034    2035    2035       0    2037    2038    2039    2038
    2039    2039       0    2041    2042    2043    2042    2043    2043       0
    2045    2046    2047    2046    2047    2047       0    2049    2050    2051
    2050    2051    2051       0    2053    2054    2055    2054    2055    2055
       0    2057    2058    2059    2058    2059    2059       0    2061    2062
    2063    2062    2063    2063       0    2065    2066    2067    2066    2067
    2067       0    2069    2070    2071    2070    2071    2071       0    2073
    2074    2075    2074    2075    2075       0    2077    2078    2079    2078
    2079    2079       0    2081    2082    2083    2082    2083    2083       0
    2085    2086    2087    2086    2087    2087       0    2089    2090    2091
    2090    2091    2091       0    2093    2094    2095    2094    2095    2095
       0    2097    2098    2099    2098    2099    2099       0    2101    2102
    2103    2102    2103    2103       0    2105    2106    2107    2106    2107
    2107       0    2109    2110    2111    2110    2111    2111       0    2113
    2114    2115    2114    2115    2115       0    2117    2118    2119    2118
    2119    2119       0    2121    2122    2123    2122    2123    2123       0
    2125    2126    2127    2126    2127    2127       0    2129    2130    2131
    2130    2131    2131       0    2133    2134    2135    2134    2135    2135
       0    2137    2138    2139    2138    2139    2139       0    2141    2142
    2143    2142    2143    2143       0    2145    2146    2147    2146    2147
    2147       0    2149    2150    2151    2150    2151    2151       0    2153
    2154    2155    2154    2155    2155       0    2157    2158    2159    2158
    2159    2159       0    2161    2162    2163    2162    2163    2163       0
    2165    2166    2167    2166    2167    2167       0    2169    2170    2171
    2170    2171    2171       0    2173    2174    2175    2174    2175    2175
       0    2177    2178    2179    2178    2179    2179       0    2181    2182
    2183    2182    2183    2183       0    2185    2186    2187    2186    2187
    2187       0    2189    2190    2191    2190    2191    2191       0    2193
    2194    2195    2194    2195    2195       0    2197    2198    2199    2198
    2199    2199       0    2201    2202    2203    2202    2203    2203       0
    2205    2206    2207    2206    2207    2207       0    2209    2210    2211
    2210    2211    2211       0    2213    2214    2215    2214    2215    2215
       0    2217    2218    2219    2218    2219    2219       0    2221    2222
    2223    2222    2223    2223       0    2225    2226    2227    2226    2227
    2227       0    2229    2230    2231    2230    2231    2231       0    2233
    2234    2235    2234    2235    2235       0    2237    2238    2239    2238
    2239    2239       0    2241    2242    2243    2242    2243    2243       0
    2245    2246    2247    2246    2247    2247       0    2249    2250    2251
    2250    2251    2251       0    2253    2254    2255    2254    2255    2255
       0    2257    2258    2259    2258    2259    2259       0    2261    2262
    2263    2262    2263    2263       0    2265    2266    2267    2266    2267
    2267       0    2269    2270    2271    2270    2271    2271       0    2273
    2274    2275    2274    2275    2275       0    2277    2278    2279    2278
    2279    2279       0    2281    2282    2283    2282    2283    2283       0
    2285    2286    2287    2286    2287    2287       0    2289    2290    2291
    2290    2291    2291       0    2293    2294    2295    2294    2295    2295
       0    2297    2298    2299    2298    2299    2299       0    2301    2302
    2303    2302    2303    2303       0    2305    2306    2307    2306    2307
    2307       0    2309    2310    2311    2310    2311    2311       0    2313
    2314    2315    2314    2315    2315       0    2317    2318    2319    2318
    2319    2319       0    2321    2322    2323    2322    2323    2323       0
    2325    2326    2327    2326    2327    2327       0    2329    2330    2331
    2330    2331    2331       0    2333    2334    2335    2334    2335    2335
       0    2337    2338    2339    2338    2339    2339       0    2341    2342
    2343    2342    2343    2343       0    2345    2346    2347    2346    2347
    2347       0    2349    2350    2351    2350    2351    2351       0    2353
    2354    2355    2354    2355    2355       0    2357    2358    2359    2358
    2359    2359       0    2361    2362    2363    2362    2363    2363       0
    2365    2366    2367    2366    2367    2367       0    2369    2370    2371
    2370    2371    2371       0    2373    2374    2375    2374    2375    2375
       0    2377    2378    2379    2378    2379    2379       0    2381    2382
    2383    2382    2383    2383       0    2385    2386    2387    2386    2387
    2387       0    2389    2390    2391    2390    2391    2391       0    2393
    2394    2395    2394    2395    2395       0    2397    2398    2399    2398
    2399    2399       0    2401    2402    2403    2402    2403    2403       0
    2405    2406    2407    2406    2407    2407       0    2409    2410    2411
    2410    2411    2411       0    2413    2414    2415    2414    2415    2415
       0    2417    2418    2419    2418    2419    2419       0    2421    2422
    2423    2422    2423    2423       0    2425    2426    2427    2426    2427
    2427       0    2429    2430    2431    2430    2431    2431       0    2433
    2434    2435    2434    2435    2435       0    2437    2438    2439    2438
    2439    2439       0    2441    2442    2443    2442    2443    2443       0
    2445    2446    2447    2446    2447    2447       0    2449    2450    2451
    2450    2451    2451       0    2453    2454    2455    2454    2455    2455
       0    2457    2458    2459    2458    2459    2459       0    2461    2462
    2463    2462    2463    2463       0    2465    2466    2467    2466    2467
    2467       0    2469    2470    2471    2470    2471    2471       0    2473
    2474    2475    2474    2475    2475       0    2477    2478    2479    2478
    2479    2479       0    2481    2482    2483    2482    2483    2483       0
    2485    2486    2487    2486    2487    2487       0    2489    2490    2491
    2490    2491    2491       0    2493    2494    2495    2494    2495    2495
       0    2497    2498    2499    2498    2499    2499       0    2501    2502
    2503    2502    2503    2503       0    2505    2506    2507    2506    2507
    2507       0    2509    2510    2511    2510    2511    2511       0    2513
    2514    2515    2514    2515    2515       0    2517    2518    2519    2518
    2519    2519       0    2521    2522    2523    2522    2523    2523       0
    2525    2526    2527    2526    2527    2527       0    2529    2530    2531
    2530    2531    2531       0    2533    2534    2535    2534    2535    2535
       0    2537    2538    2539    2538    2539    2539       0    2541    2542
    2543    2542    2543    2543       0    2545    2546    2547    2546    2547
    2547       0    2549    2550    2551    2550    2551    2551       0    2553
    2554    2555    2554    2555    2555       0    2557    2558    2559    2558
    2559    2559       0    2561    2562    2563    2562    2563    2563       0
    2565    2566    2567    2566    2567    2567       0    2569    2570    2571
    2570    2571    2571       0    2573    2574    2575    2574    2575    2575
       0    2577    2578    2579    2578    2579    2579       0    2581    2582
    2583    2582    2583    2583       0    2585    2586    2587    2586    2587
    2587       0    2589    2590    2591    2590    2591    2591       0    2593
    2594    2595    2594    2595    2595       0    2597    2598    2599    2598
    2599    2599       0    2601    2602    2603    2602    2603    2603       0
    2605    2606    2607    2606    2607    2607       0    2609    2610    2611
    2610    2611    2611       0    2613    2614    2615    2614    2615    2615
       0    2617    2618    2619    2618    2619    2619       0    2621    2622
    2623    2622    2623    2623       0    2625    2626    2627    2626    2627
    2627       0    2629    2630    2631    2630    2631    2631       0    2633
    2634    2635    2634    2635    2635       0    2637    2638    2639    2638
    2639    2639       0    2641    2642    2643    2642    2643    2643       0
    2645    2646    2647    2646    2647    2647       0    2649    2650    2651
    2650    2651    2651       0    2653    2654    2655    2654    2655    2655
       0    2657    2658    2659    2658    2659    2659       0    2661    2662
    2663    2662    2663    2663       0    2665    2666    2667    2666    2667
    2667       0    2669    2670    2671    2670    2671    2671       0    2673
    2674    2675    2674    2675    2675       0    2677    2678    2679    2678
    2679    2679       0    2681    2682    2683    2682    2683    2683       0
    2685    2686    2687    2686    2687    2687       0    2689    2690    2691
    2690    2691    2691       0    2693    2694    2695    2694    2695    2695
       0    2697    2698    2699    2698    2699    2699       0    2701    2702
    2703    2702    2703    2703       0    2705    2706    2707    2706    2707
    2707       0    2709    2710    2711    2710    2711    2711       0    2713
    2714    2715    2714    2715    2715       0    2717    2718    2719    2718
    2719    2719       0    2721    2722    2723    2722    2723    2723       0
    2725    2726    2727    2726    2727    2727       0    2729    2730    2731
    2730    2731    2731       0    2733    2734    2735    2734    2735    2735
       0    2737    2738    2739    2738    2739    2739       0    2741    2742
    2743    2742    2743    2743       0    2745    2746    2747    2746    2747
    2747       0    2749    2750    2751    2750    2751    2751       0    2753
    2754    2755    2754    2755    2755       0    2757    2758    2759    2758
    2759    2759       0    2761    2762    2763    2762    2763    2763       0
    2765    2766    2767    2766    2767    2767       0    2769    2770    2771
    2770    2771    2771       0    2773    2774    2775    2774    2775    2775
       0    2777    2778    2779    2778    2779    2779       0    2781    2782
    2783    2782    2783    2783       0    2785    2786    2787    2786    2787
    2787       0    2789    2790    2791    2790    2791    2791       0    2793
    2794    2795    2794    2795    2795       0    2797    2798    2799    2798
    2799    2799       0    2801    2802    2803    2802    2803    2803       0
    2805    2806    2807    2806    2807    2807       0    2809    2810    2811
    2810    2811    2811       0    2813    2814    2815    2814    2815    2815
       0    2817    2818    2819    2818    2819    2819       0    2821    2822
    2823    2822    2823    2823       0    2825    2826    2827    2826    2827
    2827       0    2829    2830    2831    2830    2831    2831       0    2833
    2834    2835    2834    2835    2835       0    2837    2838    2839    2838
    2839    2839       0    2841    2842    2843    2842    2843    2843       0
    2845    2846    2847    2846    2847    2847       0    2849    2850    2851
    2850    2851    2851       0    2853    2854    2855    2854    2855    2855
       0    2857    2858    2859    2858    2859    2859       0    2861    2862
    2863    2862    2863    2863       0    2865    2866    2867    2866    2867
    2867       0    2869    2870    2871    2870    2871    2871       0    2873
    2874    2875    2874    2875    2875       0    2877    2878    2879    2878
    2879    2879       0    2881    2882    2883    2882    2883    2883       0
    2885    2886    2887    2886    2887    2887       0    2889    2890    2891
    2890    2891    2891       0    2893    2894    2895    2894    2895    2895
       0    2897    2898    2899    2898    2899    2899       0    2901    2902
    2903    2902    2903    2903       0    2905    2906    2907    2906    2907
    2907       0    2909    2910    2911    2910    2911    2911       0    2913
    2914    2915    2914    2915    2915       0    2917    2918    2919    2918
    2919    2919       0    2921    2922    2923    2922    2923    2923       0
    2925    2926    2927    2926    2927    2927       0    2929    2930    2931
    2930    2931    2931       0    2933    2934    2935    2934    2935    2935
       0    2937    2938    2939    2938    2939    2939       0    2941    2942
    2943    2942    2943    2943       0    2945    2946    2947    2946    2947
    2947       0    2949    2950    2951    2950    2951    2951       0    2953
    2954    2955    2954    2955    2955       0    2957    2958    2959    2958
    2959    2959       0    2961    2962    2963    2962    2963    2963       0
    2965    2966    2967    2966    2967    2967       0    2969    2970    2971
    2970    2971    2971       0    2973    2974    2975    2974    2975    2975
       0    2977    2978    2979    2978    2979    2979       0    2981    2982
    2983    2982    2983    2983       0    2985    2986    2987    2986    2987
    2987       0    2989    2990    2991    2990    2991    2991       0    2993
    2994    2995    2994    2995    2995       0    2997    2998    2999    2998
    2999    2999       0    3001    3002    3003    3002    3003    3003       0
    3005    3006    3007    3006    3007    3007       0    3009    3010    3011
    3010    3011    3011       0    3013    3014    3015    3014    3015    3015
       0    3017    3018    3019    3018    3019    3019       0    3021    3022
    3023    3022    3023    3023       0    3025    3026    3027    3026    3027
    3027       0    3029    3030    3031    3030    3031    3031       0    3033
    3034    3035    3034    3035    3035       0    3037    3038    3039    3038
    3039    3039       0    3041    3042    3043    3042    3043    3043       0
    3045    3046    3047    3046    3047    3047       0    3049    3050    3051
    3050    3051    3051       0    3053    3054    3055    3054    3055    3055
       0    3057    3058    3059    3058    3059    3059       0    3061    3062
    3063    3062    3063    3063       0    3065    3066    3067    3066    3067
    3067       0    3069    3070    3071    3070    3071    3071       0    3073
    3074    3075    3074    3075    3075       0    3077    3078    3079    3078
    3079    3079       0    3081    3082    3083    3082    3083    3083       0
    3085    3086    3087    3086    3087    3087       0    3089    3090    3091
    3090    3091    3091       0    3093    3094    3095    3094    3095    3095
       0    3097    3098    3099    3098    3099    3099       0    3101    3102
    3103    3102    3103    3103       0    3105    3106    3107    3106    3107
    3107       0    3109    3110    3111    3110    3111    3111       0    3113
    3114    3115    3114    3115    3115       0    3117    3118    3119    3118
    3119    3119       0    3121    3122    3123    3122    3123    3123       0
    3125    3126    3127    3126    3127    3127       0    3129    3130    3131
    3130    3131    3131       0    3133    3134    3135    3134    3135    3135
       0    3137    3138    3139    3138    3139    3139       0    3141    3142
    3143    3142    3143    3143       0    3145    3146    3147    3146    3147
    3147       0    3149    3150    3151    3150    3151    3151       0    3153
    3154    3155    3154    3155    3155       0    3157    3158    3159    3158
    3159    3159       0    3161    3162    3163    3162    3163    3163       0
    3165    3166    3167    3166    3167    3167       0    3169    3170    3171
    3170    3171    3171       0    3173    3174    3175    3174    3175    3175
       0    3177    3178    3179    3178    3179    3179       0    3181    3182
    3183    3182    3183    3183       0    3185    3186    3187    3186    3187
    3187       0    3189    3190    3191    3190    3191    3191       0    3193
    3194    3195    3194    3195    3195       0    3197    3198    3199    3198
    3199    3199       0    3201    3202    3203    3202    3203    3203       0
    3205    3206    3207    3206    3207    3207       0    3209    3210    3211
    3210    3211    3211       0    3213    3214    3215    3214    3215    3215
       0    3217    3218    3219    3218    3219    3219       0    3221    3222
    3223    3222    3223    3223       0    3225    3226    3227    3226    3227
    3227       0    3229    3230    3231    3230    3231    3231       0    3233
    3234    3235    3234    3235    3235       0    3237    3238    3239    3238
    3239    3239       0    3241    3242    3243    3242    3243    3243       0
    3245    3246    3247    3246    3247    3247       0    3249    3250    3251
    3250    3251    3251       0    3253    3254    3255    3254    3255    3255
       0    3257    3258    3259    3258    3259    3259       0    3261    3262
    3263    3262    3263    3263       0    3265    3266    3267    3266    3267
    3267       0    3269    3270    3271    3270    3271    3271       0    3273
    3274    3275    3274    3275    3275       0    3277    3278    3279    3278
    3279    3279       0    3281    3282    3283    3282    3283    3283       0
    3285    3286    3287    3286    3287    3287       0    3289    3290    3291
    3290    3291    3291       0    3293    3294    3295    3294    3295    3295
       0    3297    3298    3299    3298    3299    3299       0    3301    3302
    3303    3302    3303    3303       0    3305    3306    3307    3306    3307
    3307       0    3309    3310    3311    3310    3311    3311       0    3313
    3314    3315    3314    3315    3315       0    3317    3318    3319    3318
    3319    3319       0    3321    3322    3323    3322    3323    3323       0
    3325    3326    3327    3326    3327    3327       0    3329    3330    3331
    3330    3331    3331       0    3333    3334    3335    3334    3335    3335
       0    3337    3338    3339    3338    3339    3339       0    3341    3342
    3343    3342    3343    3343       0    3345    3346    3347    3346    3347
    3347       0    3349    3350    3351    3350    3351    3351       0    3353
    3354    3355    3354    3355    3355       0    3357    3358    3359    3358
    3359    3359       0    3361    3362    3363    3362    3363    3363       0
    3365    3366    3367    3366    3367    3367       0    3369    3370    3371
    3370    3371    3371       0    3373    3374    3375    3374    3375    3375
       0    3377    3378    3379    3378    3379    3379       0    3381    3382
    3383    3382    3383    3383       0    3385    3386    3387    3386    3387
    3387       0    3389    3390    3391    3390    3391    3391       0    3393
    3394    3395    3394    3395    3395       0    3397    3398    3399    3398
    3399    3399       0    3401    3402    3403    3402    3403    3403       0
    3405    3406    3407    3406    3407    3407       0    3409    3410    3411
    3410    3411    3411       0    3413    3414    3415    3414    3415    3415
       0    3417    3418    3419    3418    3419    3419       0    3421    3422
    3423    3422    3423    3423       0    3425    3426    3427    3426    3427
    3427       0    3429    3430    3431    3430    3431    3431       0    3433
    3434    3435    3434    3435    3435       0    3437    3438    3439    3438
    3439    3439       0    3441    3442    3443    3442    3443    3443       0
    3445    3446    3447    3446    3447    3447       0    3449    3450    3451
    3450    3451    3451       0    3453    3454    3455    3454    3455    3455
       0    3457    3458    3459    3458    3459    3459       0    3461    3462
    3463    3462    3463    3463       0    3465    3466    3467    3466    3467
    3467       0    3469    3470    3471    3470    3471    3471       0    3473
    3474    3475    3474    3475    3475       0    3477    3478    3479    3478
    3479    3479       0    3481    3482    3483    3482    3483    3483       0
    3485    3486    3487    3486    3487    3487       0    3489    3490    3491
    3490    3491    3491       0    3493    3494    3495    3494    3495    3495
       0    3497    3498    3499    3498    3499    3499       0    3501    3502
    3503    3502    3503    3503       0    3505    3506    3507    3506    3507
    3507       0    3509    3510    3511    3510    3511    3511       0    3513
    3514    3515    3514    3515    3515       0    3517    3518    3519    3518
    3519    3519       0    3521    3522    3523    3522    3523    3523       0
    3525    3526    3527    3526    3527    3527       0    3529    3530    3531
    3530    3531    3531       0    3533    3534    3535    3534    3535    3535
       0    3537    3538    3539    3538    3539    3539       0    3541    3542
    3543    3542    3543    3543       0    3545    3546    3547    3546    3547
    3547       0    3549    3550    3551    3550    3551    3551       0    3553
    3554    3555    3554    3555    3555       0    3557    3558    3559    3558
    3559    3559       0    3561    3562    3563    3562    3563    3563       0
    3565    3566    3567    3566    3567    3567       0    3569    3570    3571
    3570    3571    3571       0    3573    3574    3575    3574    3575    3575
       0    3577    3578    3579    3578    3579    3579       0    3581    3582
    3583    3582    3583    3583       0    3585    3586    3587    3586    3587
    3587       0    3589    3590    3591    3590    3591    3591       0    3593
    3594    3595    3594    3595    3595       0    3597    3598    3599    3598
    3599    3599       0    3601    3602    3603    3602    3603    3603       0
    3605    3606    3607    3606    3607    3607       0    3609    3610    3611
    3610    3611    3611       0    3613    3614    3615    3614    3615    3615
       0    3617    3618    3619    3618    3619    3619       0    3621    3622
    3623    3622    3623    3623       0    3625    3626    3627    3626    3627
    3627       0    3629    3630    3631    3630    3631    3631       0    3633
    3634    3635    3634    3635    3635       0    3637    3638    3639    3638
    3639    3639       0    3641    3642    3643    3642    3643    3643       0
    3645    3646    3647    3646    3647    3647       0    3649    3650    3651
    3650    3651    3651       0    3653    3654    3655    3654    3655    3655
       0    3657    3658    3659    3658    3659    3659       0    3661    3662
    3663    3662    3663    3663       0    3665    3666    3667    3666    3667
    3667       0    3669    3670    3671    3670    3671    3671       0    3673
    3674    3675    3674    3675    3675       0    3677    3678    3679    3678
    3679    3679       0    3681    3682    3683    3682    3683    3683       0
    3685    3686    3687    3686    3687    3687       0    3689    3690    3691
    3690    3691    3691       0    3693    3694    3695    3694    3695    3695
       0    3697    3698    3699    3698    3699    3699       0    3701    3702
    3703    3702    3703    3703       0    3705    3706    3707    3706    3707
    3707       0    3709    3710    3711    3710    3711    3711       0    3713
    3714    3715    3714    3715    3715       0    3717    3718    3719    3718
    3719    3719       0    3721    3722    3723    3722    3723    3723       0
    3725    3726    3727    3726    3727    3727       0    3729    3730    3731
    3730    3731    3731       0    3733    3734    3735    3734    3735    3735
       0    3737    3738    3739    3738    3739    3739       0    3741    3742
    3743    3742    3743    3743       0    3745    3746    3747    3746    3747
    3747       0    3749    3750    3751    3750    3751    3751       0    3753
    3754    3755    3754    3755    3755       0    3757    3758    3759    3758
    3759    3759       0    3761    3762    3763    3762    3763    3763       0
    3765    3766    3767    3766    3767    3767       0    3769    3770    3771
    3770    3771    3771       0    3773    3774    3775    3774    3775    3775
       0    3777    3778    3779    3778    3779    3779       0    3781    3782
    3783    3782    3783    3783       0    3785    3786    3787    3786    3787
    3787       0    3789    3790    3791    3790    3791    3791       0    3793
    3794    3795    3794    3795    3795       0    3797    3798    3799    3798
    3799    3799       0    3801    3802    3803    3802    3803    3803       0
    3805    3806    3807    3806    3807    3807       0    3809    3810    3811
    3810    3811    3811       0    3813    3814    3815    3814    3815    3815
       0    3817    3818    3819    3818    3819    3819       0    3821    3822
    3823    3822    3823    3823       0    3825    3826    3827    3826    3827
    3827       0    3829    3830    3831    3830    3831    3831       0    3833
    3834    3835    3834    3835    3835       0    3837    3838    3839    3838
    3839    3839       0    3841    3842    3843    3842    3843    3843       0
    3845    3846    3847    3846    3847    3847       0    3849    3850    3851
    3850    3851    3851       0    3853    3854    3855    3854    3855    3855
       0    3857    3858    3859    3858    3859    3859       0    3861    3862
    3863    3862    3863    3863       0    3865    3866    3867    3866    3867
    3867       0    3869    3870    3871    3870    3871    3871       0    3873
    3874    3875    3874    3875    3875       0    3877    3878    3879    3878
    3879    3879       0    3881    3882    3883    3882    3883    3883       0
    3885    3886    3887    3886    3887    3887       0    3889    3890    3891
    3890    3891    3891       0    3893    3894    3895    3894    3895    3895
       0    3897    3898    3899    3898    3899    3899       0    3901    3902
    3903    3902    3903    3903       0    3905    3906    3907    3906    3907
    3907       0    3909    3910    3911    3910    3911    3911       0    3913
    3914    3915    3914    3915    3915       0    3917    3918    3919    3918
    3919    3919       0    3921    3922    3923    3922    3923    3923       0
    3925    3926    3927    3926    3927    3927       0    3929    3930    3931
    3930    3931    3931       0    3933    3934    3935    3934    3935    3935
       0    3937    3938    3939    3938    3939    3939       0    3941    3942
    3943    3942    3943    3943       0    3945    3946    3947    3946    3947
    3947       0    3949    3950    3951    3950    3951    3951       0    3953
    3954    3955    3954    3955    3955       0    3957    3958    3959    3958
    3959    3959       0    3961    3962    3963    3962    3963    3963       0
    3965    3966    3967    3966    3967    3967       0    3969    3970    3971
    3970    3971    3971       0    3973    3974    3975    3974    3975    3975
       0    3977    3978    3979    3978    3979    3979       0    3981    3982
    3983    3982    3983    3983       0    3985    3986    3987    3986    3987
    3987       0    3989    3990    3991    3990    3991    3991       0    3993
    3994    3995    3994    3995    3995       0    3997    3998    3999    3998
    3999    3999       0    4001    4002    4003    4002    4003    4003       0
    4005    4006    4007    4006    4007    4007       0    4009    4010    4011
    4010    4011    4011       0    4013    4014    4015    4014    4015    4015
       0    4017    4018    4019    4018    4019    4019       0    4021    4022
    4023    4022    4023    4023       0    4025    4026    4027    4026    4027
    4027       0    4029    4030    4031    4030    4031    4031       0    4033
    4034    4035    4034    4035    4035       0    4037    4038    4039    4038
    4039    4039       0    4041    4042    4043    4042    4043    4043       0
    4045    4046    4047    4046    4047    4047       0    4049    4050    4051
    4050    4051    4051       0    4053    4054    4055    4054    4055    4055
       0    4057    4058    4059    4058    4059    4059       0    4061    4062
    4063    4062    4063    4063       0    4065    4066    4067    4066    4067
    4067       0    4069    4070    4071    4070    4071    4071       0    4073
    4074    4075    4074    4075    4075       0    4077    4078    4079    4078
    4079    4079       0    4081    4082    4083    4082    4083    4083       0
    4085    4086    4087    4086    4087    4087       0    4089    4090    4091
    4090    4091    4091       0    4093    4094    4095    4094    4095    4095
       0    4097    4098    4099    4098    4099    4099       0    4101    4102
    4103    4102    4103    4103       0    4105    4106    4107    4106    4107
    4107       0    4109    4110    4111    4110    4111    4111       0    4113
    4114    4115    4114    4115    4115       0    4117    4118    4119    4118
    4119    4119       0    4121    4122    4123    4122    4123    4123       0
    4125    4126    4127    4126    4127    4127       0    4129    4130    4131
    4130    4131    4131       0    4133    4134    4135    4134    4135    4135
       0    4137    4138    4139    4138    4139    4139       0    4141    4142
    4143    4142    4143    4143       0    4145    4146    4147    4146    4147
    4147       0    4149    4150    4151    4150    4151    4151       0    4153
    4154    4155    4154    4155    4155       0    4157    4158    4159    4158
    4159    4159       0    4161    4162    4163    4162    4163    4163       0
    4165    4166    4167    4166    4167    4167       0    4169    4170    4171
    4170    4171    4171       0    4173    4174    4175    4174    4175    4175
       0    4177    4178    4179    4178    4179    4179       0    4181    4182
    4183    4182    4183    4183       0    4185    4186    4187    4186    4187
    4187       0    4189    4190    4191    4190    4191    4191       0    4193
    4194    4195    4194    4195    4195       0    4197    4198    4199    4198
    4199    4199       0    4201    4202    4203    4202    4203    4203       0
    4205    4206    4207    4206    4207    4207       0    4209    4210    4211
    4210    4211    4211       0    4213    4214    4215    4214    4215    4215
       0    4217    4218    4219    4218    4219    4219       0    4221    4222
    4223    4222    4223    4223       0    4225    4226    4227    4226    4227
    4227       0    4229    4230    4231    4230    4231    4231       0    4233
    4234    4235    4234    4235    4235       0    4237    4238    4239    4238
    4239    4239       0    4241    4242    4243    4242    4243    4243       0
    4245    4246    4247    4246    4247    4247       0    4249    4250    4251
    4250    4251    4251       0    4253    4254    4255    4254    4255    4255
       0    4257    4258    4259    4258    4259    4259       0    4261    4262
    4263    4262    4263    4263       0    4265    4266    4267    4266    4267
    4267       0    4269    4270    4271    4270    4271    4271       0    4273
    4274    4275    4274    4275    4275       0    4277    4278    4279    4278
    4279    4279       0    4281    4282    4283    4282    4283    4283       0
    4285    4286    4287    4286    4287    4287       0    4289    4290    4291
    4290    4291    4291       0    4293    4294    4295    4294    4295    4295
       0    4297    4298    4299    4298    4299    4299       0    4301    4302
    4303    4302    4303    4303       0    4305    4306    4307    4306    4307
    4307       0    4309    4310    4311    4310    4311    4311       0    4313
    4314    4315    4314    4315    4315       0    4317    4318    4319    4318
    4319    4319       0    4321    4322    4323    4322    4323    4323       0
    4325    4326    4327    4326    4327    4327       0    4329    4330    4331
    4330    4331    4331       0    4333    4334    4335    4334    4335    4335
       0    4337    4338    4339    4338    4339    4339       0    4341    4342
    4343    4342    4343    4343       0    4345    4346    4347    4346    4347
    4347       0    4349    4350    4351    4350    4351    4351       0    4353
    4354    4355    4354    4355    4355       0    4357    4358    4359    4358
    4359    4359       0    4361    4362    4363    4362    4363    4363       0
    4365    4366    4367    4366    4367    4367       0    4369    4370    4371
    4370    4371    4371       0    4373    4374    4375    4374    4375    4375
       0    4377    4378    4379    4378    4379    4379       0    4381    4382
    4383    4382    4383    4383       0    4385    4386    4387    4386    4387
    4387       0    4389    4390    4391    4390    4391    4391       0    4393
    4394    4395    4394    4395    4395       0    4397    4398    4399    4398
    4399    4399       0    4401    4402    4403    4402    4403    4403       0
    4405    4406    4407    4406    4407    4407       0    4409    4410    4411
    4410    4411    4411       0    4413    4414    4415    4414    4415    4415
       0    4417    4418    4419    4418    4419    4419       0    4421    4422
    4423    4422    4423    4423       0    4425    4426    4427    4426    4427
    4427       0    4429    4430    4431    4430    4431    4431       0    4433
    4434    4435    4434    4435    4435       0    4437    4438    4439    4438
    4439    4439       0    4441    4442    4443    4442    4443    4443       0
    4445    4446    4447    4446    4447    4447       0    4449    4450    4451
    4450    4451    4451       0    4453    4454    4455    4454    4455    4455
       0    4457    4458    4459    4458    4459    4459       0    4461    4462
    4463    4462    4463    4463       0    4465    4466    4467    4466    4467
    4467       0    4469    4470    4471    4470    4471    4471       0    4473
    4474    4475    4474    4475    4475       0    4477    4478    4479    4478
    4479    4479       0    4481    4482    4483    4482    4483    4483       0
    4485    4486    4487    4486    4487    4487       0    4489    4490    4491
    4490    4491    4491       0    4493    4494    4495    4494    4495    4495
       0    4497    4498    4499    4498    4499    4499       0    4501    4502
    4503    4502    4503    4503       0    4505    4506    4507    4506    4507
    4507       0    4509    4510    4511    4510    4511    4511       0    4513
    4514    4515    4514    4515    4515       0    4517    4518    4519    4518
    4519    4519       0    4521    4522    4523    4522    4523    4523       0
    4525    4526    4527    4526    4527    4527       0    4529    4530    4531
    4530    4531    4531       0    4533    4534    4535    4534    4535    4535
       0    4537    4538    4539    4538    4539    4539       0    4541    4542
    4543    4542    4543    4543       0    4545    4546    4547    4546    4547
    4547       0    4549    4550    4551    4550    4551    4551       0    4553
    4554    4555    4554    4555    4555       0    4557    4558    4559    4558
    4559    4559       0    4561    4562    4563    4562    4563    4563       0
    4565    4566    4567    4566    4567    4567       0    4569    4570    4571
    4570    4571    4571       0    4573    4574    4575    4574    4575    4575
       0    4577    4578    4579    4578    4579    4579       0    4581    4582
    4583    4582    4583    4583       0    4585    4586    4587    4586    4587
    4587       0    4589    4590    4591    4590    4591    4591       0    4593
    4594    4595    4594    4595    4595       0    4597    4598    4599    4598
    4599    4599       0    4601    4602    4603    4602    4603    4603       0
    4605    4606    4607    4606    4607    4607       0    4609    4610    4611
    4610    4611    4611       0    4613    4614    4615    4614    4615    4615
       0    4617    4618    4619    4618    4619    4619       0    4621    4622
    4623    4622    4623    4623       0    4625    4626    4627    4626    4627
    4627       0    4629    4630    4631    4630    4631    4631       0    4633
    4634    4635    4634    4635    4635       0    4637    4638    4639    4638
    4639    4639       0    4641    4642    4643    4642    4643    4643       0
    4645    4646    4647    4646    4647    4647       0    4649    4650    4651
    4650    4651    4651       0    4653    4654    4655    4654    4655    4655
       0    4657    4658    4659    4658    4659    4659       0    4661    4662
    4663    4662    4663    4663       0    4665    4666    4667    4666    4667
    4667       0    4669    4670    4671    4670    4671    4671       0    4673
    4674    4675    4674    4675    4675       0    4677    4678    4679    4678
    4679    4679       0    4681    4682    4683    4682    4683    4683       0
    4685    4686    4687    4686    4687    4687       0    4689    4690    4691
    4690    4691    4691       0    4693    4694    4695    4694    4695    4695
       0    4697    4698    4699    4698    4699    4699       0    4701    4702
    4703    4702    4703    4703       0    4705    4706    4707    4706    4707
    4707       0    4709    4710    4711    4710    4711    4711       0    4713
    4714    4715    4714    4715    4715       0    4717    4718    4719    4718
    4719    4719       0    4721    4722    4723    4722    4723    4723       0
    4725    4726    4727    4726    4727    4727       0    4729    4730    4731
    4730    4731    4731       0    4733    4734    4735    4734    4735    4735
       0    4737    4738    4739    4738    4739    4739       0    4741    4742
    4743    4742    4743    4743       0    4745    4746    4747    4746    4747
    4747       0    4749    4750    4751    4750    4751    4751       0    4753
    4754    4755    4754    4755    4755       0    4757    4758    4759    4758
    4759    4759       0    4761    4762    4763    4762    4763    4763       0
    4765    4766    4767    4766    4767    4767       0    4769    4770    4771
    4770    4771    4771       0    4773    4774    4775    4774    4775    4775
       0    4777    4778    4779    4778    4779    4779       0    4781    4782
    4783    4782    4783    4783       0    4785    4786    4787    4786    4787
    4787       0    4789    4790    4791    4790    4791    4791       0    4793
    4794    4795    4794    4795    4795       0    4797    4798    4799    4798
    4799    4799       0    4801    4802    4803    4802    4803    4803       0
    4805    4806    4807    4806    4807    4807       0    4809    4810    4811
    4810    4811    4811       0    4813    4814    4815    4814    4815    4815
       0    4817    4818    4819    4818    4819    4819       0    4821    4822
    4823    4822    4823    4823       0    4825    4826    4827    4826    4827
    4827       0    4829    4830    4831    4830    4831    4831       0    4833
    4834    4835    4834    4835    4835       0    4837    4838    4839    4838
    4839    4839       0    4841    4842    4843    4842    4843    4843       0
    4845    4846    4847    4846    4847    4847       0    4849    4850    4851
    4850    4851    4851       0    4853    4854    4855    4854    4855    4855
       0    4857    4858    4859    4858    4859    4859       0    4861    4862
    4863    4862    4863    4863       0    4865    4866    4867    4866    4867
    4867       0    4869    4870    4871    4870    4871    4871       0    4873
    4874    4875    4874    4875    4875       0    4877    4878    4879    4878
    4879    4879       0    4881    4882    4883    4882    4883    4883       0
    4885    4886    4887    4886    4887    4887       0    4889    4890    4891
    4890    4891    4891       0    4893    4894    4895    4894    4895    4895
       0    4897    4898    4899    4898    4899    4899       0    4901    4902
    4903    4902    4903    4903       0    4905    4906    4907    4906    4907
    4907       0    4909    4910    4911    4910    4911    4911       0    4913
    4914    4915    4914    4915    4915       0    4917    4918    4919    4918
    4919    4919       0    4921    4922    4923    4922    4923    4923       0
    4925    4926    4927    4926    4927    4927       0    4929    4930    4931
    4930    4931    4931       0    4933    4934    4935    4934    4935    4935
       0    4937    4938    4939    4938    4939    4939       0    4941    4942
    4943    4942    4943    4943       0    4945    4946    4947    4946    4947
    4947       0    4949    4950    4951    4950    4951    4951       0    4953
    4954    4955    4954    4955    4955       0    4957    4958    4959    4958
    4959    4959       0    4961    4962    4963    4962    4963    4963       0
    4965    4966    4967    4966    4967    4967       0    4969    4970    4971
    4970    4971    4971       0    4973    4974    4975    4974    4975    4975
       0    4977    4978    4979    4978    4979    4979       0    4981    4982
    4983    4982    4983    4983       0    4985    4986    4987    4986    4987
    4987       0    4989    4990    4991    4990    4991    4991       0    4993
    4994    4995    4994    4995    4995       0    4997    4998    4999    4998
    4999    4999       0    5001    5002    5003    5002    5003    5003       0
    5005    5006    5007    5006    5007    5007       0    5009    5010    5011
    5010    5011    5011       0    5013    5014    5015    5014    5015    5015
       0    5017    5018    5019    5018    5019    5019       0    5021    5022
    5023    5022    5023    5023       0    5025    5026    5027    5026    5027
    5027       0    5029    5030    5031    5030    5031    5031       0    5033
    5034    5035    5034    5035    5035       0    5037    5038    5039    5038
    5039    5039       0    5041    5042    5043    5042    5043    5043       0
    5045    5046    5047    5046    5047    5047       0    5049    5050    5051
    5050    5051    5051       0    5053    5054    5055    5054    5055    5055
       0    5057    5058    5059    5058    5059    5059       0    5061    5062
    5063    5062    5063    5063       0    5065    5066    5067    5066    5067
    5067       0    5069    5070    5071    5070    5071    5071       0    5073
    5074    5075    5074    5075    5075       0    5077    5078    5079    5078
    5079    5079       0    5081    5082    5083    5082    5083    5083       0
    5085    5086    5087    5086    5087    5087       0    5089    5090    5091
    5090    5091    5091       0    5093    5094    5095    5094    5095    5095
       0    5097    5098    5099    5098    5099    5099       0    5101    5102
    5103    5102    5103    5103       0    5105    5106    5107    5106    5107
    5107       0    5109    5110    5111    5110    5111    5111       0    5113
    5114    5115    5114    5115    5115       0    5117    5118    5119    5118
    5119    5119       0    5121    5122    5123    5122    5123    5123       0
    5125    5126    5127    5126    5127    5127       0    5129    5130    5131
    5130    5131    5131       0    5133    5134    5135    5134    5135    5135
       0    5137    5138    5139    5138    5139    5139       0    5141    5142
    5143    5142    5143    5143       0    5145    5146    5147    5146    5147
    5147       0    5149    5150    5151    5150    5151    5151       0    5153
    5154    5155    5154    5155    5155       0    5157    5158    5159    5158
    5159    5159       0    5161    5162    5163    5162    5163    5163       0
    5165    5166    5167    5166    5167    5167       0    5169    5170    5171
    5170    5171    5171       0    5173    5174    5175    5174    5175    5175
       0    5177    5178    5179    5178    5179    5179       0    5181    5182
    5183    5182    5183    5183       0    5185    5186    5187    5186    5187
    5187       0    5189    5190    5191    5190    5191    5191       0    5193
    5194    5195    5194    5195    5195       0    5197    5198    5199    5198
    5199    5199       0    5201    5202    5203    5202    5203    5203       0
    5205    5206    5207    5206    5207    5207       0    5209    5210    5211
    5210    5211    5211       0    5213    5214    5215    5214    5215    5215
       0    5217    5218    5219    5218    5219    5219       0    5221    5222
    5223    5222    5223    5223       0    5225    5226    5227    5226    5227
    5227       0    5229    5230    5231    5230    5231    5231       0    5233
    5234    5235    5234    5235    5235       0    5237    5238    5239    5238
    5239    5239       0    5241    5242    5243    5242    5243    5243       0
    5245    5246    5247    5246    5247    5247       0    5249    5250    5251
    5250    5251    5251       0    5253    5254    5255    5254    5255    5255
       0    5257    5258    5259    5258    5259    5259       0    5261    5262
    5263    5262    5263    5263       0    5265    5266    5267    5266    5267
    5267       0    5269    5270    5271    5270    5271    5271       0    5273
    5274    5275    5274    5275    5275       0    5277    5278    5279    5278
    5279    5279       0    5281    5282    5283    5282    5283    5283       0
    5285    5286    5287    5286    5287    5287       0    5289    5290    5291
    5290    5291    5291       0    5293    5294    5295    5294    5295    5295
       0    5297    5298    5299    5298    5299    5299       0    5301    5302
    5303    5302    5303    5303       0    5305    5306    5307    5306    5307
    5307       0    5309    5310    5311    5310    5311    5311       0    5313
    5314    5315    5314    5315    5315       0    5317    5318    5319    5318
    5319    5319       0    5321    5322    5323    5322    5323    5323       0
    5325    5326    5327    5326    5327    5327       0    5329    5330    5331
    5330    5331    5331       0    5333    5334    5335    5334    5335    5335
       0    5337    5338    5339    5338    5339    5339       0    5341    5342
    5343    5342    5343    5343       0    5345    5346    5347    5346    5347
    5347       0    5349    5350    5351    5350    5351    5351       0    5353
    5354    5355    5354    5355    5355       0    5357    5358    5359    5358
    5359    5359       0    5361    5362    5363    5362    5363    5363       0
    5365    5366    5367    5366    5367    5367       0    5369    5370    5371
    5370    5371    5371       0    5373    5374    5375    5374    5375    5375
       0    5377    5378    5379    5378    5379    5379       0    5381    5382
    5383    5382    5383    5383       0    5385    5386    5387    5386    5387
    5387       0    5389    5390    5391    5390    5391    5391       0    5393
    5394    5395    5394    5395    5395       0    5397    5398    5399    5398
    5399    5399       0    5401    5402    5403    5402    5403    5403       0
    5405    5406    5407    5406    5407    5407       0    5409    5410    5411
    5410    5411    5411       0    5413    5414    5415    5414    5415    5415
       0    5417    5418    5419    5418    5419    5419       0    5421    5422
    5423    5422    5423    5423       0    5425    5426    5427    5426    5427
    5427       0    5429    5430    5431    5430    5431    5431       0    5433
    5434    5435    5434    5435    5435       0    5437    5438    5439    5438
    5439    5439       0    5441    5442    5443    5442    5443    5443       0
    5445    5446    5447    5446    5447    5447       0    5449    5450    5451
    5450    5451    5451       0    5453    5454    5455    5454    5455    5455
       0    5457    5458    5459    5458    5459    5459       0    5461    5462
    5463    5462    5463    5463       0    5465    5466    5467    5466    5467
    5467       0    5469    5470    5471    5470    5471    5471       0    5473
    5474    5475    5474    5475    5475       0    5477    5478    5479    5478
    5479    5479       0    5481    5482    5483    5482    5483    5483       0
    5485    5486    5487    5486    5487    5487       0    5489    5490    5491
    5490    5491    5491       0    5493    5494    5495    5494    5495    5495
       0    5497    5498    5499    5498    5499    5499       0    5501    5502
    5503    5502    5503    5503       0    5505    5506    5507    5506    5507
    5507       0    5509    5510    5511    5510    5511    5511       0    5513
    5514    5515    5514    5515    5515       0    5517    5518    5519    5518
    5519    5519       0    5521    5522    5523    5522    5523    5523       0
    5525    5526    5527    5526    5527    5527       0    5529    5530    5531
    5530    5531    5531       0    5533    5534    5535    5534    5535    5535
       0    5537    5538    5539    5538    5539    5539       0    5541    5542
    5543    5542    5543    5543       0    5545    5546    5547    5546    5547
    5547       0    5549    5550    5551    5550    5551    5551       0    5553
    5554    5555    5554    5555    5555       0    5557    5558    5559    5558
    5559    5559       0    5561    5562    5563    5562    5563    5563       0
    5565    5566    5567    5566    5567    5567       0    5569    5570    5571
    5570    5571    5571       0    5573    5574    5575    5574    5575    5575
       0    5577    5578    5579    5578    5579    5579       0    5581    5582
    5583    5582    5583    5583       0    5585    5586    5587    5586    5587
    5587       0    5589    5590    5591    5590    5591    5591       0    5593
    5594    5595    5594    5595    5595       0    5597    5598    5599    5598
    5599    5599       0    5601    5602    5603    5602    5603    5603       0
    5605    5606    5607    5606    5607    5607       0    5609    5610    5611
    5610    5611    5611       0    5613    5614    5615    5614    5615    5615
       0    5617    5618    5619    5618    5619    5619       0    5621    5622
    5623    5622    5623    5623       0    5625    5626    5627    5626    5627
    5627       0    5629    5630    5631    5630    5631    5631       0    5633
    5634    5635    5634    5635    5635       0    5637    5638    5639    5638
    5639    5639       0    5641    5642    5643    5642    5643    5643       0
    5645    5646    5647    5646    5647    5647       0    5649    5650    5651
    5650    5651    5651       0    5653    5654    5655    5654    5655    5655
       0    5657    5658    5659    5658    5659    5659       0    5661    5662
    5663    5662    5663    5663       0    5665    5666    5667    5666    5667
    5667       0    5669    5670    5671    5670    5671    5671       0    5673
    5674    5675    5674    5675    5675       0    5677    5678    5679    5678
    5679    5679       0    5681    5682    5683    5682    5683    5683       0
    5685    5686    5687    5686    5687    5687       0    5689    5690    5691
    5690    5691    5691       0    5693    5694    5695    5694    5695    5695
       0    5697    5698    5699    5698    5699    5699       0    5701    5702
    5703    5702    5703    5703       0    5705    5706    5707    5706    5707
    5707       0    5709    5710    5711    5710    5711    5711       0    5713
    5714    5715    5714    5715    5715       0    5717    5718    5719    5718
    5719    5719       0    5721    5722    5723    5722    5723    5723       0
    5725    5726    5727    5726    5727    5727       0    5729    5730    5731
    5730    5731    5731       0    5733    5734    5735    5734    5735    5735
       0    5737    5738    5739    5738    5739    5739       0    5741    5742
    5743    5742    5743    5743       0    5745    5746    5747    5746    5747
    5747       0    5749    5750    5751    5750    5751    5751       0    5753
    5754    5755    5754    5755    5755       0    5757    5758    5759    5758
    5759    5759       0    5761    5762    5763    5762    5763    5763       0
    5765    5766    5767    5766    5767    5767       0    5769    5770    5771
    5770    5771    5771       0    5773    5774    5775    5774    5775    5775
       0    5777    5778    5779    5778    5779    5779       0    5781    5782
    5783    5782    5783    5783       0    5785    5786    5787    5786    5787
    5787       0    5789    5790    5791    5790    5791    5791       0    5793
    5794    5795    5794    5795    5795       0    5797    5798    5799    5798
    5799    5799       0    5801    5802    5803    5802    5803    5803       0
    5805    5806    5807    5806    5807    5807       0    5809    5810    5811
    5810    5811    5811       0    5813    5814    5815    5814    5815    5815
       0    5817    5818    5819    5818    5819    5819       0    5821    5822
    5823    5822    5823    5823       0    5825    5826    5827    5826    5827
    5827       0    5829    5830    5831    5830    5831    5831       0    5833
    5834    5835    5834    5835    5835       0    5837    5838    5839    5838
    5839    5839       0    5841    5842    5843    5842    5843    5843       0
    5845    5846    5847    5846    5847    5847       0    5849    5850    5851
    5850    5851    5851       0    5853    5854    5855    5854    5855    5855
       0    5857    5858    5859    5858    5859    5859       0    5861    5862
    5863    5862    5863    5863       0    5865    5866    5867    5866    5867
    5867       0    5869    5870    5871    5870    5871    5871       0    5873
    5874    5875    5874    5875    5875       0    5877    5878    5879    5878
    5879    5879       0    5881    5882    5883    5882    5883    5883       0
    5885    5886    5887    5886    5887    5887       0    5889    5890    5891
    5890    5891    5891       0    5893    5894    5895    5894    5895    5895
       0    5897    5898    5899    5898    5899    5899       0    5901    5902
    5903    5902    5903    5903       0    5905    5906    5907    5906    5907
    5907       0    5909    5910    5911    5910    5911    5911       0    5913
    5914    5915    5914    5915    5915       0    5917    5918    5919    5918
    5919    5919       0    5921    5922    5923    5922    5923    5923       0
    5925    5926    5927    5926    5927    5927       0    5929    5930    5931
    5930    5931    5931       0    5933    5934    5935    5934    5935    5935
       0    5937    5938    5939    5938    5939    5939       0    5941    5942
    5943    5942    5943    5943       0    5945    5946    5947    5946    5947
    5947       0    5949    5950    5951    5950    5951    5951       0    5953
    5954    5955    5954    5955    5955       0    5957    5958    5959    5958
    5959    5959       0    5961    5962    5963    5962    5963    5963       0
    5965    5966    5967    5966    5967    5967       0    5969    5970    5971
    5970    5971    5971       0    5973    5974    5975    5974    5975    5975
       0    5977    5978    5979    5978    5979    5979       0    5981    5982
    5983    5982    5983    5983       0    5985    5986    5987    5986    5987
    5987       0    5989    5990    5991    5990    5991    5991       0    5993
    5994    5995    5994    5995    5995       0    5997    5998    5999    5998
    5999    5999       0    6001    6002    6003    6002    6003    6003       0
    6005    6006    6007    6006    6007    6007       0    6009    6010    6011
    6010    6011    6011       0    6013    6014    6015    6014    6015    6015
       0    6017    6018    6019    6018    6019    6019       0    6021    6022
    6023    6022    6023    6023       0    6025    6026    6027    6026    6027
    6027       0    6029    6030    6031    6030    6031    6031       0    6033
    6034    6035    6034    6035    6035       0    6037    6038    6039    6038
    6039    6039       0    6041    6042    6043    6042    6043    6043       0
    6045    6046    6047    6046    6047    6047       0    6049    6050    6051
    6050    6051    6051       0    6053    6054    6055    6054    6055    6055
       0    6057    6058    6059    6058    6059    6059       0    6061    6062
    6063    6062    6063    6063       0    6065    6066    6067    6066    6067
    6067       0    6069    6070    6071    6070    6071    6071       0    6073
    6074    6075    6074    6075    6075       0    6077    6078    6079    6078
    6079    6079       0    6081    6082    6083    6082    6083    6083       0
    6085    6086    6087    6086    6087    6087       0    6089    6090    6091
    6090    6091    6091       0    6093    6094    6095    6094    6095    6095
       0    6097    6098    6099    6098    6099    6099       0    6101    6102
    6103    6102    6103    6103       0    6105    6106    6107    6106    6107
    6107       0    6109    6110    6111    6110    6111    6111       0    6113
    6114    6115    6114    6115    6115       0    6117    6118    6119    6118
    6119    6119       0    6121    6122    6123    6122    6123    6123       0
    6125    6126    6127    6126    6127    6127       0    6129    6130    6131
    6130    6131    6131       0    6133    6134    6135    6134    6135    6135
       0    6137    6138    6139    6138    6139    6139       0    6141    6142
    6143    6142    6143    6143       0    6145    6146    6147    6146    6147
    6147       0    6149    6150    6151    6150    6151    6151       0    6153
    6154    6155    6154    6155    6155       0    6157    6158    6159    6158
    6159    6159       0    6161    6162    6163    6162    6163    6163       0
    6165    6166    6167    6166    6167    6167       0    6169    6170    6171
    6170    6171    6171       0    6173    6174    6175    6174    6175    6175
       0    6177    6178    6179    6178    6179    6179       0    6181    6182
    6183    6182    6183    6183       0    6185    6186    6187    6186    6187
    6187       0    6189    6190    6191    6190    6191    6191       0    6193
    6194    6195    6194    6195    6195       0    6197    6198    6199    6198
    6199    6199       0    6201    6202    6203    6202    6203    6203       0
    6205    6206    6207    6206    6207    6207       0    6209    6210    6211
    6210    6211    6211       0    6213    6214    6215    6214    6215    6215
       0    6217    6218    6219    6218    6219    6219       0    6221    6222
    6223    6222    6223    6223       0    6225    6226    6227    6226    6227
    6227       0    6229    6230    6231    6230    6231    6231       0    6233
    6234    6235    6234    6235    6235       0    6237    6238    6239    6238
    6239    6239       0    6241    6242    6243    6242    6243    6243       0
    6245    6246    6247    6246    6247    6247       0    6249    6250    6251
    6250    6251    6251       0    6253    6254    6255    6254    6255    6255
       0    6257    6258    6259    6258    6259    6259       0    6261    6262
    6263    6262    6263    6263       0    6265    6266    6267    6266    6267
    6267       0    6269    6270    6271    6270    6271    6271       0    6273
    6274    6275    6274    6275    6275       0    6277    6278    6279    6278
    6279    6279       0    6281    6282    6283    6282    6283    6283       0
    6285    6286    6287    6286    6287    6287       0    6289    6290    6291
    6290    6291    6291       0    6293    6294    6295    6294    6295    6295
       0    6297    6298    6299    6298    6299    6299       0    6301    6302
    6303    6302    6303    6303       0    6305    6306    6307    6306    6307
    6307       0    6309    6310    6311    6310    6311    6311       0    6313
    6314    6315    6314    6315    6315       0    6317    6318    6319    6318
    6319    6319       0    6321    6322    6323    6322    6323    6323       0
    6325    6326    6327    6326    6327    6327       0    6329    6330    6331
    6330    6331    6331       0    6333    6334    6335    6334    6335    6335
       0    6337    6338    6339    6338    6339    6339       0    6341    6342
    6343    6342    6343    6343       0    6345    6346    6347    6346    6347
    6347       0    6349    6350    6351    6350    6351    6351       0    6353
    6354    6355    6354    6355    6355       0    6357    6358    6359    6358
    6359    6359       0    6361    6362    6363    6362    6363    6363       0
    6365    6366    6367    6366    6367    6367       0    6369    6370    6371
    6370    6371    6371       0    6373    6374    6375    6374    6375    6375
       0    6377    6378    6379    6378    6379    6379       0    6381    6382
    6383    6382    6383    6383       0    6385    6386    6387    6386    6387
    6387       0    6389    6390    6391    6390    6391    6391       0    6393
    6394    6395    6394    6395    6395       0    6397    6398    6399    6398
    6399    6399       0    6401    6402    6403    6402    6403    6403       0
    6405    6406    6407    6406    6407    6407       0    6409    6410    6411
    6410    6411    6411       0    6413    6414    6415    6414    6415    6415
       0    6417    6418    6419    6418    6419    6419       0    6421    6422
    6423    6422    6423    6423       0    6425    6426    6427    6426    6427
    6427       0    6429    6430    6431    6430    6431    6431       0    6433
    6434    6435    6434    6435    6435       0    6437    6438    6439    6438
    6439    6439       0    6441    6442    6443    6442    6443    6443       0
    6445    6446    6447    6446    6447    6447       0    6449    6450    6451
    6450    6451    6451       0    6453    6454    6455    6454    6455    6455
       0    6457    6458    6459    6458    6459    6459       0    6461    6462
    6463    6462    6463    6463       0    6465    6466    6467    6466    6467
    6467       0    6469    6470    6471    6470    6471    6471       0    6473
    6474    6475    6474    6475    6475       0    6477    6478    6479    6478
    6479    6479       0    6481    6482    6483    6482    6483    6483       0
    6485    6486    6487    6486    6487    6487       0    6489    6490    6491
    6490    6491    6491       0    6493    6494    6495    6494    6495    6495
       0    6497    6498    6499    6498    6499    6499       0    6501    6502
    6503    6502    6503    6503       0    6505    6506    6507    6506    6507
    6507       0    6509    6510    6511    6510    6511    6511       0    6513
    6514    6515    6514    6515    6515       0    6517    6518    6519    6518
    6519    6519       0    6521    6522    6523    6522    6523    6523       0
    6525    6526    6527    6526    6527    6527       0    6529    6530    6531
    6530    6531    6531       0    6533    6534    6535    6534    6535    6535
       0    6537    6538    6539    6538    6539    6539       0    6541    6542
    6543    6542    6543    6543       0    6545    6546    6547    6546    6547
    6547       0    6549    6550    6551    6550    6551    6551       0    6553
    6554    6555    6554    6555    6555       0    6557    6558    6559    6558
    6559    6559       0    6561    6562    6563    6562    6563    6563       0
    6565    6566    6567    6566    6567    6567       0    6569    6570    6571
    6570    6571    6571       0    6573    6574    6575    6574    6575    6575
       0    6577    6578    6579    6578    6579    6579       0    6581    6582
    6583    6582    6583    6583       0    6585    6586    6587    6586    6587
    6587       0    6589    6590    6591    6590    6591    6591       0    6593
    6594    6595    6594    6595    6595       0    6597    6598    6599    6598
    6599    6599       0    6601    6602    6603    6602    6603    6603       0
    6605    6606    6607    6606    6607    6607       0    6609    6610    6611
    6610    6611    6611       0    6613    6614    6615    6614    6615    6615
       0    6617    6618    6619    6618    6619    6619       0    6621    6622
    6623    6622    6623    6623       0    6625    6626    6627    6626    6627
    6627       0    6629    6630    6631    6630    6631    6631       0    6633
    6634    6635    6634    6635    6635       0    6637    6638    6639    6638
    6639    6639       0    6641    6642    6643    6642    6643    6643       0
    6645    6646    6647    6646    6647    6647       0    6649    6650    6651
    6650    6651    6651       0    6653    6654    6655    6654    6655    6655
       0    6657    6658    6659    6658    6659    6659       0    6661    6662
    6663    6662    6663    6663       0    6665    6666    6667    6666    6667
    6667       0    6669    6670    6671    6670    6671    6671       0    6673
    6674    6675    6674    6675    6675       0    6677    6678    6679    6678
    6679    6679       0    6681    6682    6683    6682    6683    6683       0
    6685    6686    6687    6686    6687    6687       0    6689    6690    6691
    6690    6691    6691       0    6693    6694    6695    6694    6695    6695
       0    6697    6698    6699    6698    6699    6699       0    6701    6702
    6703    6702    6703    6703       0    6705    6706    6707    6706    6707
    6707       0    6709    6710    6711    6710    6711    6711       0    6713
    6714    6715    6714    6715    6715       0    6717    6718    6719    6718
    6719    6719       0    6721    6722    6723    6722    6723    6723       0
    6725    6726    6727    6726    6727    6727       0    6729    6730    6731
    6730    6731    6731       0    6733    6734    6735    6734    6735    6735
       0    6737    6738    6739    6738    6739    6739       0    6741    6742
    6743    6742    6743    6743       0    6745    6746    6747    6746    6747
    6747       0    6749    6750    6751    6750    6751    6751       0    6753
    6754    6755    6754    6755    6755       0    6757    6758    6759    6758
    6759    6759       0    6761    6762    6763    6762    6763    6763       0
    6765    6766    6767    6766    6767    6767       0    6769    6770    6771
    6770    6771    6771       0    6773    6774    6775    6774    6775    6775
       0    6777    6778    6779    6778    6779    6779       0
%FLAG HBOND_ACOEF                                                               
%FORMAT(5E16.8)                                                                 

%FLAG HBOND_BCOEF                                                               
%FORMAT(5E16.8)                                                                 

%FLAG HBCUT                                                                     
%FORMAT(5E16.8)                                                                 

%FLAG AMBER_ATOM_TYPE                                                           
%FORMAT(20a4)                                                                   
HC  CT  HC  HC  C   O   N   H   XC  H1  C8  HC  HC  C8  HC  HC  C8  HC  HC  C8  
HP  HP  N3  H   H   H   C   O   N   H   XC  H1  CT  HC  HC  HC  C   O   N   H   
XC  H1  2C  HC  HC  2C  HC  HC  CO  O2  O2  C   O   N   H   CT  H1  H1  H1  OW  
HW  HW  EP  OW  HW  HW  EP  OW  HW  HW  EP  OW  HW  HW  EP  OW  HW  HW  EP  OW  
HW  HW  EP  OW  HW  HW  EP  OW  HW  HW  EP  OW  HW  HW  EP  OW  HW  HW  EP  OW  
HW  HW  EP  OW  HW  HW  EP  OW  HW  HW  EP  OW  HW  HW  EP  OW  HW  HW  EP  OW  
HW  HW  EP  OW  HW  HW  EP  OW  HW  HW  EP  OW  HW  HW  EP  OW  HW  HW  EP  OW  
HW  HW  EP  OW  HW  HW  EP  OW  HW  HW  EP  OW  HW  HW  EP  OW  HW  HW  EP  OW  
HW  HW  EP  OW  HW  HW  EP  OW  HW  HW  EP  OW  HW  HW  EP  OW  HW  HW  EP  OW  
HW  HW  EP  OW  HW  HW  EP  OW  HW  HW  EP  OW  HW  HW  EP  OW  HW  HW  EP  OW  
HW  HW  EP  OW  HW  HW  EP  OW  HW  HW  EP  OW  HW  HW  EP  OW  HW  HW  EP  OW  
HW  HW  EP  OW  HW  HW  EP  OW  HW  HW  EP  OW  HW  HW  EP  OW  HW  HW  EP  OW  
HW  HW  EP  OW  HW  HW  EP  OW  HW  HW  EP  OW  HW  HW  EP  OW  HW  HW  EP  OW  
HW  HW  EP  OW  HW  HW  EP  OW  HW  HW  EP  OW  HW  HW  EP  OW  HW  HW  EP  OW  
HW  HW  EP  OW  HW  HW  EP  OW  HW  HW  EP  OW  HW  HW  EP  OW  HW  HW  EP  OW  
HW  HW  EP  OW  HW  HW  EP  OW  HW  HW  EP  OW  HW  HW  EP  OW  HW  HW  EP  OW  
HW  HW  EP  OW  HW  HW  EP  OW  HW  HW  EP  OW  HW  HW  EP  OW  HW  HW  EP  OW  
HW  HW  EP  OW  HW  HW  EP  OW  HW  HW  EP  OW  HW  HW  EP  OW  HW  HW  EP  OW  
HW  HW  EP  OW  HW  HW  EP  OW  HW  HW  EP  OW  HW  HW  EP  OW  HW  HW  EP  OW  
HW  HW  EP  OW  HW  HW  EP  OW  HW  HW  EP  OW  HW  HW  EP  OW  HW  HW  EP  OW  
HW  HW  EP  OW  HW  HW  EP  OW  HW  HW  EP  OW  HW  HW  EP  OW  HW  HW  EP  OW  
HW  HW  EP  OW  HW  HW  EP  OW  HW  HW  EP  OW  HW  HW  EP  OW  HW  HW  EP  OW  
HW  HW  EP  OW  HW  HW  EP  OW  HW  HW  EP  OW  HW  HW  EP  OW  HW  HW  EP  OW  
HW  HW  EP  OW  HW  HW  EP  OW  HW  HW  EP  OW  HW  HW  EP  OW  HW  HW  EP  OW  
HW  HW  EP  OW  HW  HW  EP  OW  HW  HW  EP  OW  HW  HW  EP  OW  HW  HW  EP  OW  
HW  HW  EP  OW  HW  HW  EP  OW  HW  HW  EP  OW  HW  HW  EP  OW  HW  HW  EP  OW  
HW  HW  EP  OW  HW  HW  EP  OW  HW  HW  EP  OW  HW  HW  EP  OW  HW  HW  EP  OW  
HW  HW  EP  OW  HW  HW  EP  OW  HW  HW  EP  OW  HW  HW  EP  OW  HW  HW  EP  OW  
HW  HW  EP  OW  HW  HW  EP  OW  HW  HW  EP  OW  HW  HW  EP  OW  HW  HW  EP  OW  
HW  HW  EP  OW  HW  HW  EP  OW  HW  HW  EP  OW  HW  HW  EP  OW  HW  HW  EP  OW  
HW  HW  EP  OW  HW  HW  EP  OW  HW  HW  EP  OW  HW  HW  EP  OW  HW  HW  EP  OW  
HW  HW  EP  OW  HW  HW  EP  OW  HW  HW  EP  OW  HW  HW  EP  OW  HW  HW  EP  OW  
HW  HW  EP  OW  HW  HW  EP  OW  HW  HW  EP  OW  HW  HW  EP  OW  HW  HW  EP  OW  
HW  HW  EP  OW  HW  HW  EP  OW  HW  HW  EP  OW  HW  HW  EP  OW  HW  HW  EP  OW  
HW  HW  EP  OW  HW  HW  EP  OW  HW  HW  EP  OW  HW  HW  EP  OW  HW  HW  EP  OW  
HW  HW  EP  OW  HW  HW  EP  OW  HW  HW  EP  OW  HW  HW  EP  OW  HW  HW  EP  OW  
HW  HW  EP  OW  HW  HW  EP  OW  HW  HW  EP  OW  HW  HW  EP  OW  HW  HW  EP  OW  
HW  HW  EP  OW  HW  HW  EP  OW  HW  HW  EP  OW  HW  HW  EP  OW  HW  HW  EP  OW  
HW  HW  EP  OW  HW  HW  EP  OW  HW  HW  EP  OW  HW  HW  EP  OW  HW  HW  EP  OW  
HW  HW  EP  OW  HW  HW  EP  OW  HW  HW  EP  OW  HW  HW  EP  OW  HW  HW  EP  OW  
HW  HW  EP  OW  HW  HW  EP  OW  HW  HW  EP  OW  HW  HW  EP  OW  HW  HW  EP  OW  
HW  HW  EP  OW  HW  HW  EP  OW  HW  HW  EP  OW  HW  HW  EP  OW  HW  HW  EP  OW  
HW  HW  EP  OW  HW  HW  EP  OW  HW  HW  EP  OW  HW  HW  EP  OW  HW  HW  EP  OW  
HW  HW  EP  OW  HW  HW  EP  OW  HW  HW  EP  OW  HW  HW  EP  OW  HW  HW  EP  OW  
HW  HW  EP  OW  HW  HW  EP  OW  HW  HW  EP  OW  HW  HW  EP  OW  HW  HW  EP  OW  
HW  HW  EP  OW  HW  HW  EP  OW  HW  HW  EP  OW  HW  HW  EP  OW  HW  HW  EP  OW  
HW  HW  EP  OW  HW  HW  EP  OW  HW  HW  EP  OW  HW  HW  EP  OW  HW  HW  EP  OW  
HW  HW  EP  OW  HW  HW  EP  OW  HW  HW  EP  OW  HW  HW  EP  OW  HW  HW  EP  OW  
HW  HW  EP  OW  HW  HW  EP  OW  HW  HW  EP  OW  HW  HW  EP  OW  HW  HW  EP  OW  
HW  HW  EP  OW  HW  HW  EP  OW  HW  HW  EP  OW  HW  HW  EP  OW  HW  HW  EP  OW  
HW  HW  EP  OW  HW  HW  EP  OW  HW  HW  EP  OW  HW  HW  EP  OW  HW  HW  EP  OW  
HW  HW  EP  OW  HW  HW  EP  OW  HW  HW  EP  OW  HW  HW  EP  OW  HW  HW  EP  OW  
HW  HW  EP  OW  HW  HW  EP  OW  HW  HW  EP  OW  HW  HW  EP  OW  HW  HW  EP  OW  
HW  HW  EP  OW  HW  HW  EP  OW  HW  HW  EP  OW  HW  HW  EP  OW  HW  HW  EP  OW  
HW  HW  EP  OW  HW  HW  EP  OW  HW  HW  EP  OW  HW  HW  EP  OW  HW  HW  EP  OW  
HW  HW  EP  OW  HW  HW  EP  OW  HW  HW  EP  OW  HW  HW  EP  OW  HW  HW  EP  OW  
HW  HW  EP  OW  HW  HW  EP  OW  HW  HW  EP  OW  HW  HW  EP  OW  HW  HW  EP  OW  
HW  HW  EP  OW  HW  HW  EP  OW  HW  HW  EP  OW  HW  HW  EP  OW  HW  HW  EP  OW  
HW  HW  EP  OW  HW  HW  EP  OW  HW  HW  EP  OW  HW  HW  EP  OW  HW  HW  EP  OW  
HW  HW  EP  OW  HW  HW  EP  OW  HW  HW  EP  OW  HW  HW  EP  OW  HW  HW  EP  OW  
HW  HW  EP  OW  HW  HW  EP  OW  HW  HW  EP  OW  HW  HW  EP  OW  HW  HW  EP  OW  
HW  HW  EP  OW  HW  HW  EP  OW  HW  HW  EP  OW  HW  HW  EP  OW  HW  HW  EP  OW  
HW  HW  EP  OW  HW  HW  EP  OW  HW  HW  EP  OW  HW  HW  EP  OW  HW  HW  EP  OW  
HW  HW  EP  OW  HW  HW  EP  OW  HW  HW  EP  OW  HW  HW  EP  OW  HW  HW  EP  OW  
HW  HW  EP  OW  HW  HW  EP  OW  HW  HW  EP  OW  HW  HW  EP  OW  HW  HW  EP  OW  
HW  HW  EP  OW  HW  HW  EP  OW  HW  HW  EP  OW  HW  HW  EP  OW  HW  HW  EP  OW  
HW  HW  EP  OW  HW  HW  EP  OW  HW  HW  EP  OW  HW  HW  EP  OW  HW  HW  EP  OW  
HW  HW  EP  OW  HW  HW  EP  OW  HW  HW  EP  OW  HW  HW  EP  OW  HW  HW  EP  OW  
HW  HW  EP  OW  HW  HW  EP  OW  HW  HW  EP  OW  HW  HW  EP  OW  HW  HW  EP  OW  
HW  HW  EP  OW  HW  HW  EP  OW  HW  HW  EP  OW  HW  HW  EP  OW  HW  HW  EP  OW  
HW  HW  EP  OW  HW  HW  EP  OW  HW  HW  EP  OW  HW  HW  EP  OW  HW  HW  EP  OW  
HW  HW  EP  OW  HW  HW  EP  OW  HW  HW  EP  OW  HW  HW  EP  OW  HW  HW  EP  OW  
HW  HW  EP  OW  HW  HW  EP  OW  HW  HW  EP  OW  HW  HW  EP  OW  HW  HW  EP  OW  
HW  HW  EP  OW  HW  HW  EP  OW  HW  HW  EP  OW  HW  HW  EP  OW  HW  HW  EP  OW  
HW  HW  EP  OW  HW  HW  EP  OW  HW  HW  EP  OW  HW  HW  EP  OW  HW  HW  EP  OW  
HW  HW  EP  OW  HW  HW  EP  OW  HW  HW  EP  OW  HW  HW  EP  OW  HW  HW  EP  OW  
HW  HW  EP  OW  HW  HW  EP  OW  HW  HW  EP  OW  HW  HW  EP  OW  HW  HW  EP  OW  
HW  HW  EP  OW  HW  HW  EP  OW  HW  HW  EP  OW  HW  HW  EP  OW  HW  HW  EP  OW  
HW  HW  EP  OW  HW  HW  EP  OW  HW  HW  EP  OW  HW  HW  EP  OW  HW  HW  EP  OW  
HW  HW  EP  OW  HW  HW  EP  OW  HW  HW  EP  OW  HW  HW  EP  OW  HW  HW  EP  OW  
HW  HW  EP  OW  HW  HW  EP  OW  HW  HW  EP  OW  HW  HW  EP  OW  HW  HW  EP  OW  
HW  HW  EP  OW  HW  HW  EP  OW  HW  HW  EP  OW  HW  HW  EP  OW  HW  HW  EP  OW  
HW  HW  EP  OW  HW  HW  EP  OW  HW  HW  EP  OW  HW  HW  EP  OW  HW  HW  EP  OW  
HW  HW  EP  OW  HW  HW  EP  OW  HW  HW  EP  OW  HW  HW  EP  OW  HW  HW  EP  OW  
HW  HW  EP  OW  HW  HW  EP  OW  HW  HW  EP  OW  HW  HW  EP  OW  HW  HW  EP  OW  
HW  HW  EP  OW  HW  HW  EP  OW  HW  HW  EP  OW  HW  HW  EP  OW  HW  HW  EP  OW  
HW  HW  EP  OW  HW  HW  EP  OW  HW  HW  EP  OW  HW  HW  EP  OW  HW  HW  EP  OW  
HW  HW  EP  OW  HW  HW  EP  OW  HW  HW  EP  OW  HW  HW  EP  OW  HW  HW  EP  OW  
HW  HW  EP  OW  HW  HW  EP  OW  HW  HW  EP  OW  HW  HW  EP  OW  HW  HW  EP  OW  
HW  HW  EP  OW  HW  HW  EP  OW  HW  HW  EP  OW  HW  HW  EP  OW  HW  HW  EP  OW  
HW  HW  EP  OW  HW  HW  EP  OW  HW  HW  EP  OW  HW  HW  EP  OW  HW  HW  EP  OW  
HW  HW  EP  OW  HW  HW  EP  OW  HW  HW  EP  OW  HW  HW  EP  OW  HW  HW  EP  OW  
HW  HW  EP  OW  HW  HW  EP  OW  HW  HW  EP  OW  HW  HW  EP  OW  HW  HW  EP  OW  
HW  HW  EP  OW  HW  HW  EP  OW  HW  HW  EP  OW  HW  HW  EP  OW  HW  HW  EP  OW  
HW  HW  EP  OW  HW  HW  EP  OW  HW  HW  EP  OW  HW  HW  EP  OW  HW  HW  EP  OW  
HW  HW  EP  OW  HW  HW  EP  OW  HW  HW  EP  OW  HW  HW  EP  OW  HW  HW  EP  OW  
HW  HW  EP  OW  HW  HW  EP  OW  HW  HW  EP  OW  HW  HW  EP  OW  HW  HW  EP  OW  
HW  HW  EP  OW  HW  HW  EP  OW  HW  HW  EP  OW  HW  HW  EP  OW  HW  HW  EP  OW  
HW  HW  EP  OW  HW  HW  EP  OW  HW  HW  EP  OW  HW  HW  EP  OW  HW  HW  EP  OW  
HW  HW  EP  OW  HW  HW  EP  OW  HW  HW  EP  OW  HW  HW  EP  OW  HW  HW  EP  OW  
HW  HW  EP  OW  HW  HW  EP  OW  HW  HW  EP  OW  HW  HW  EP  OW  HW  HW  EP  OW  
HW  HW  EP  OW  HW  HW  EP  OW  HW  HW  EP  OW  HW  HW  EP  OW  HW  HW  EP  OW  
HW  HW  EP  OW  HW  HW  EP  OW  HW  HW  EP  OW  HW  HW  EP  OW  HW  HW  EP  OW  
HW  HW  EP  OW  HW  HW  EP  OW  HW  HW  EP  OW  HW  HW  EP  OW  HW  HW  EP  OW  
HW  HW  EP  OW  HW  HW  EP  OW  HW  HW  EP  OW  HW  HW  EP  OW  HW  HW  EP  OW  
HW  HW  EP  OW  HW  HW  EP  OW  HW  HW  EP  OW  HW  HW  EP  OW  HW  HW  EP  OW  
HW  HW  EP  OW  HW  HW  EP  OW  HW  HW  EP  OW  HW  HW  EP  OW  HW  HW  EP  OW  
HW  HW  EP  OW  HW  HW  EP  OW  HW  HW  EP  OW  HW  HW  EP  OW  HW  HW  EP  OW  
HW  HW  EP  OW  HW  HW  EP  OW  HW  HW  EP  OW  HW  HW  EP  OW  HW  HW  EP  OW  
HW  HW  EP  OW  HW  HW  EP  OW  HW  HW  EP  OW  HW  HW  EP  OW  HW  HW  EP  OW  
HW  HW  EP  OW  HW  HW  EP  OW  HW  HW  EP  OW  HW  HW  EP  OW  HW  HW  EP  OW  
HW  HW  EP  OW  HW  HW  EP  OW  HW  HW  EP  OW  HW  HW  EP  OW  HW  HW  EP  OW  
HW  HW  EP  OW  HW  HW  EP  OW  HW  HW  EP  OW  HW  HW  EP  OW  HW  HW  EP  OW  
HW  HW  EP  OW  HW  HW  EP  OW  HW  HW  EP  OW  HW  HW  EP  OW  HW  HW  EP  OW  
HW  HW  EP  OW  HW  HW  EP  OW  HW  HW  EP  OW  HW  HW  EP  OW  HW  HW  EP  OW  
HW  HW  EP  OW  HW  HW  EP  OW  HW  HW  EP  OW  HW  HW  EP  OW  HW  HW  EP  OW  
HW  HW  EP  OW  HW  HW  EP  OW  HW  HW  EP  OW  HW  HW  EP  OW  HW  HW  EP  OW  
HW  HW  EP  OW  HW  HW  EP  OW  HW  HW  EP  OW  HW  HW  EP  OW  HW  HW  EP  OW  
HW  HW  EP  OW  HW  HW  EP  OW  HW  HW  EP  OW  HW  HW  EP  OW  HW  HW  EP  OW  
HW  HW  EP  OW  HW  HW  EP  OW  HW  HW  EP  OW  HW  HW  EP  OW  HW  HW  EP  OW  
HW  HW  EP  OW  HW  HW  EP  OW  HW  HW  EP  OW  HW  HW  EP  OW  HW  HW  EP  OW  
HW  HW  EP  OW  HW  HW  EP  OW  HW  HW  EP  OW  HW  HW  EP  OW  HW  HW  EP  OW  
HW  HW  EP  OW  HW  HW  EP  OW  HW  HW  EP  OW  HW  HW  EP  OW  HW  HW  EP  OW  
HW  HW  EP  OW  HW  HW  EP  OW  HW  HW  EP  OW  HW  HW  EP  OW  HW  HW  EP  OW  
HW  HW  EP  OW  HW  HW  EP  OW  HW  HW  EP  OW  HW  HW  EP  OW  HW  HW  EP  OW  
HW  HW  EP  OW  HW  HW  EP  OW  HW  HW  EP  OW  HW  HW  EP  OW  HW  HW  EP  OW  
HW  HW  EP  OW  HW  HW  EP  OW  HW  HW  EP  OW  HW  HW  EP  OW  HW  HW  EP  OW  
HW  HW  EP  OW  HW  HW  EP  OW  HW  HW  EP  OW  HW  HW  EP  OW  HW  HW  EP  OW  
HW  HW  EP  OW  HW  HW  EP  OW  HW  HW  EP  OW  HW  HW  EP  OW  HW  HW  EP  OW  
HW  HW  EP  OW  HW  HW  EP  OW  HW  HW  EP  OW  HW  HW  EP  OW  HW  HW  EP  OW  
HW  HW  EP  OW  HW  HW  EP  OW  HW  HW  EP  OW  HW  HW  EP  OW  HW  HW  EP  OW  
HW  HW  EP  OW  HW  HW  EP  OW  HW  HW  EP  OW  HW  HW  EP  OW  HW  HW  EP  OW  
HW  HW  EP  OW  HW  HW  EP  OW  HW  HW  EP  OW  HW  HW  EP  OW  HW  HW  EP  OW  
HW  HW  EP  OW  HW  HW  EP  OW  HW  HW  EP  OW  HW  HW  EP  OW  HW  HW  EP  OW  
HW  HW  EP  OW  HW  HW  EP  OW  HW  HW  EP  OW  HW  HW  EP  OW  HW  HW  EP  OW  
HW  HW  EP  OW  HW  HW  EP  OW  HW  HW  EP  OW  HW  HW  EP  OW  HW  HW  EP  OW  
HW  HW  EP  OW  HW  HW  EP  OW  HW  HW  EP  OW  HW  HW  EP  OW  HW  HW  EP  OW  
HW  HW  EP  OW  HW  HW  EP  OW  HW  HW  EP  OW  HW  HW  EP  OW  HW  HW  EP  OW  
HW  HW  EP  OW  HW  HW  EP  OW  HW  HW  EP  OW  HW  HW  EP  OW  HW  HW  EP  OW  
HW  HW  EP  OW  HW  HW  EP  OW  HW  HW  EP  OW  HW  HW  EP  OW  HW  HW  EP  OW  
HW  HW  EP  OW  HW  HW  EP  OW  HW  HW  EP  OW  HW  HW  EP  OW  HW  HW  EP  OW  
HW  HW  EP  OW  HW  HW  EP  OW  HW  HW  EP  OW  HW  HW  EP  OW  HW  HW  EP  OW  
HW  HW  EP  OW  HW  HW  EP  OW  HW  HW  EP  OW  HW  HW  EP  OW  HW  HW  EP  OW  
HW  HW  EP  OW  HW  HW  EP  OW  HW  HW  EP  OW  HW  HW  EP  OW  HW  HW  EP  OW  
HW  HW  EP  OW  HW  HW  EP  OW  HW  HW  EP  OW  HW  HW  EP  OW  HW  HW  EP  OW  
HW  HW  EP  OW  HW  HW  EP  OW  HW  HW  EP  OW  HW  HW  EP  OW  HW  HW  EP  OW  
HW  HW  EP  OW  HW  HW  EP  OW  HW  HW  EP  OW  HW  HW  EP  OW  HW  HW  EP  OW  
HW  HW  EP  OW  HW  HW  EP  OW  HW  HW  EP  OW  HW  HW  EP  OW  HW  HW  EP  OW  
HW  HW  EP  OW  HW  HW  EP  OW  HW  HW  EP  OW  HW  HW  EP  OW  HW  HW  EP  OW  
HW  HW  EP  OW  HW  HW  EP  OW  HW  HW  EP  OW  HW  HW  EP  OW  HW  HW  EP  OW  
HW  HW  EP  OW  HW  HW  EP  OW  HW  HW  EP  OW  HW  HW  EP  OW  HW  HW  EP  OW  
HW  HW  EP  OW  HW  HW  EP  OW  HW  HW  EP  OW  HW  HW  EP  OW  HW  HW  EP  OW  
HW  HW  EP  OW  HW  HW  EP  OW  HW  HW  EP  OW  HW  HW  EP  OW  HW  HW  EP  OW  
HW  HW  EP  OW  HW  HW  EP  OW  HW  HW  EP  OW  HW  HW  EP  OW  HW  HW  EP  OW  
HW  HW  EP  OW  HW  HW  EP  OW  HW  HW  EP  OW  HW  HW  EP  OW  HW  HW  EP  OW  
HW  HW  EP  OW  HW  HW  EP  OW  HW  HW  EP  OW  HW  HW  EP  OW  HW  HW  EP  OW  
HW  HW  EP  OW  HW  HW  EP  OW  HW  HW  EP  OW  HW  HW  EP  OW  HW  HW  EP  OW  
HW  HW  EP  OW  HW  HW  EP  OW  HW  HW  EP  OW  HW  HW  EP  OW  HW  HW  EP  OW  
HW  HW  EP  OW  HW  HW  EP  OW  HW  HW  EP  OW  HW  HW  EP  OW  HW  HW  EP  OW  
HW  HW  EP  OW  HW  HW  EP  OW  HW  HW  EP  OW  HW  HW  EP  OW  HW  HW  EP  OW  
HW  HW  EP  OW  HW  HW  EP  OW  HW  HW  EP  OW  HW  HW  EP  OW  HW  HW  EP  OW  
HW  HW  EP  OW  HW  HW  EP  OW  HW  HW  EP  OW  HW  HW  EP  OW  HW  HW  EP  OW  
HW  HW  EP  OW  HW  HW  EP  OW  HW  HW  EP  OW  HW  HW  EP  OW  HW  HW  EP  OW  
HW  HW  EP  OW  HW  HW  EP  OW  HW  HW  EP  OW  HW  HW  EP  OW  HW  HW  EP  OW  
HW  HW  EP  OW  HW  HW  EP  OW  HW  HW  EP  OW  HW  HW  EP  OW  HW  HW  EP  OW  
HW  HW  EP  OW  HW  HW  EP  OW  HW  HW  EP  OW  HW  HW  EP  OW  HW  HW  EP  OW  
HW  HW  EP  OW  HW  HW  EP  OW  HW  HW  EP  OW  HW  HW  EP  OW  HW  HW  EP  OW  
HW  HW  EP  OW  HW  HW  EP  OW  HW  HW  EP  OW  HW  HW  EP  OW  HW  HW  EP  OW  
HW  HW  EP  OW  HW  HW  EP  OW  HW  HW  EP  OW  HW  HW  EP  OW  HW  HW  EP  OW  
HW  HW  EP  OW  HW  HW  EP  OW  HW  HW  EP  OW  HW  HW  EP  OW  HW  HW  EP  OW  
HW  HW  EP  OW  HW  HW  EP  OW  HW  HW  EP  OW  HW  HW  EP  OW  HW  HW  EP  OW  
HW  HW  EP  OW  HW  HW  EP  OW  HW  HW  EP  OW  HW  HW  EP  OW  HW  HW  EP  OW  
HW  HW  EP  OW  HW  HW  EP  OW  HW  HW  EP  OW  HW  HW  EP  OW  HW  HW  EP  OW  
HW  HW  EP  OW  HW  HW  EP  OW  HW  HW  EP  OW  HW  HW  EP  OW  HW  HW  EP  OW  
HW  HW  EP  OW  HW  HW  EP  OW  HW  HW  EP  OW  HW  HW  EP  OW  HW  HW  EP  OW  
HW  HW  EP  OW  HW  HW  EP  OW  HW  HW  EP  OW  HW  HW  EP  OW  HW  HW  EP  OW  
HW  HW  EP  OW  HW  HW  EP  OW  HW  HW  EP  OW  HW  HW  EP  OW  HW  HW  EP  OW  
HW  HW  EP  OW  HW  HW  EP  OW  HW  HW  EP  OW  HW  HW  EP  OW  HW  HW  EP  OW  
HW  HW  EP  OW  HW  HW  EP  OW  HW  HW  EP  OW  HW  HW  EP  OW  HW  HW  EP  OW  
HW  HW  EP  OW  HW  HW  EP  OW  HW  HW  EP  OW  HW  HW  EP  OW  HW  HW  EP  OW  
HW  HW  EP  OW  HW  HW  EP  OW  HW  HW  EP  OW  HW  HW  EP  OW  HW  HW  EP  OW  
HW  HW  EP  OW  HW  HW  EP  OW  HW  HW  EP  OW  HW  HW  EP  OW  HW  HW  EP  OW  
HW  HW  EP  OW  HW  HW  EP  OW  HW  HW  EP  OW  HW  HW  EP  OW  HW  HW  EP  OW  
HW  HW  EP  OW  HW  HW  EP  OW  HW  HW  EP  OW  HW  HW  EP  OW  HW  HW  EP  OW  
HW  HW  EP  OW  HW  HW  EP  OW  HW  HW  EP  OW  HW  HW  EP  OW  HW  HW  EP  OW  
HW  HW  EP  OW  HW  HW  EP  OW  HW  HW  EP  OW  HW  HW  EP  OW  HW  HW  EP  OW  
HW  HW  EP  OW  HW  HW  EP  OW  HW  HW  EP  OW  HW  HW  EP  OW  HW  HW  EP  OW  
HW  HW  EP  OW  HW  HW  EP  OW  HW  HW  EP  OW  HW  HW  EP  OW  HW  HW  EP  OW  
HW  HW  EP  OW  HW  HW  EP  OW  HW  HW  EP  OW  HW  HW  EP  OW  HW  HW  EP  OW  
HW  HW  EP  OW  HW  HW  EP  OW  HW  HW  EP  OW  HW  HW  EP  OW  HW  HW  EP  OW  
HW  HW  EP  OW  HW  HW  EP  OW  HW  HW  EP  OW  HW  HW  EP  OW  HW  HW  EP  OW  
HW  HW  EP  OW  HW  HW  EP  OW  HW  HW  EP  OW  HW  HW  EP  OW  HW  HW  EP  OW  
HW  HW  EP  OW  HW  HW  EP  OW  HW  HW  EP  OW  HW  HW  EP  OW  HW  HW  EP  OW  
HW  HW  EP  OW  HW  HW  EP  OW  HW  HW  EP  OW  HW  HW  EP  OW  HW  HW  EP  OW  
HW  HW  EP  OW  HW  HW  EP  OW  HW  HW  EP  OW  HW  HW  EP  OW  HW  HW  EP  OW  
HW  HW  EP  OW  HW  HW  EP  OW  HW  HW  EP  OW  HW  HW  EP  OW  HW  HW  EP  OW  
HW  HW  EP  OW  HW  HW  EP  OW  HW  HW  EP  OW  HW  HW  EP  OW  HW  HW  EP  OW  
HW  HW  EP  OW  HW  HW  EP  OW  HW  HW  EP  OW  HW  HW  EP  OW  HW  HW  EP  OW  
HW  HW  EP  OW  HW  HW  EP  OW  HW  HW  EP  OW  HW  HW  EP  OW  HW  HW  EP  OW  
HW  HW  EP  OW  HW  HW  EP  OW  HW  HW  EP  OW  HW  HW  EP  OW  HW  HW  EP  OW  
HW  HW  EP  OW  HW  HW  EP  OW  HW  HW  EP  OW  HW  HW  EP  OW  HW  HW  EP  OW  
HW  HW  EP  OW  HW  HW  EP  OW  HW  HW  EP  OW  HW  HW  EP  OW  HW  HW  EP  OW  
HW  HW  EP  OW  HW  HW  EP  OW  HW  HW  EP  OW  HW  HW  EP  OW  HW  HW  EP  OW  
HW  HW  EP  OW  HW  HW  EP  OW  HW  HW  EP  OW  HW  HW  EP  OW  HW  HW  EP  OW  
HW  HW  EP  OW  HW  HW  EP  OW  HW  HW  EP  OW  HW  HW  EP  OW  HW  HW  EP  OW  
HW  HW  EP  OW  HW  HW  EP  OW  HW  HW  EP  OW  HW  HW  EP  OW  HW  HW  EP  OW  
HW  HW  EP  OW  HW  HW  EP  OW  HW  HW  EP  OW  HW  HW  EP  OW  HW  HW  EP  OW  
HW  HW  EP  OW  HW  HW  EP  OW  HW  HW  EP  OW  HW  HW  EP  OW  HW  HW  EP  OW  
HW  HW  EP  OW  HW  HW  EP  OW  HW  HW  EP  OW  HW  HW  EP  OW  HW  HW  EP  OW  
HW  HW  EP  OW  HW  HW  EP  OW  HW  HW  EP  OW  HW  HW  EP  OW  HW  HW  EP  OW  
HW  HW  EP  OW  HW  HW  EP  OW  HW  HW  EP  OW  HW  HW  EP  OW  HW  HW  EP  OW  
HW  HW  EP  OW  HW  HW  EP  OW  HW  HW  EP  OW  HW  HW  EP  OW  HW  HW  EP  OW  
HW  HW  EP  OW  HW  HW  EP  OW  HW  HW  EP  OW  HW  HW  EP  OW  HW  HW  EP  OW  
HW  HW  EP  OW  HW  HW  EP  OW  HW  HW  EP  OW  HW  HW  EP  OW  HW  HW  EP  OW  
HW  HW  EP  OW  HW  HW  EP  OW  HW  HW  EP  OW  HW  HW  EP  OW  HW  HW  EP  OW  
HW  HW  EP  OW  HW  HW  EP  OW  HW  HW  EP  OW  HW  HW  EP  OW  HW  HW  EP  OW  
HW  HW  EP  OW  HW  HW  EP  OW  HW  HW  EP  OW  HW  HW  EP  OW  HW  HW  EP  OW  
HW  HW  EP  OW  HW  HW  EP  OW  HW  HW  EP  OW  HW  HW  EP  OW  HW  HW  EP  OW  
HW  HW  EP  OW  HW  HW  EP  OW  HW  HW  EP  OW  HW  HW  EP  OW  HW  HW  EP  OW  
HW  HW  EP  OW  HW  HW  EP  OW  HW  HW  EP  OW  HW  HW  EP  OW  HW  HW  EP  OW  
HW  HW  EP  OW  HW  HW  EP  OW  HW  HW  EP  OW  HW  HW  EP  OW  HW  HW  EP  OW  
HW  HW  EP  OW  HW  HW  EP  OW  HW  HW  EP  OW  HW  HW  EP  OW  HW  HW  EP  OW  
HW  HW  EP  OW  HW  HW  EP  OW  HW  HW  EP  OW  HW  HW  EP  OW  HW  HW  EP  OW  
HW  HW  EP  OW  HW  HW  EP  OW  HW  HW  EP  OW  HW  HW  EP  OW  HW  HW  EP  OW  
HW  HW  EP  OW  HW  HW  EP  OW  HW  HW  EP  OW  HW  HW  EP  OW  HW  HW  EP  OW  
HW  HW  EP  OW  HW  HW  EP  OW  HW  HW  EP  OW  HW  HW  EP  OW  HW  HW  EP  OW  
HW  HW  EP  OW  HW  HW  EP  OW  HW  HW  EP  OW  HW  HW  EP  OW  HW  HW  EP  OW  
HW  HW  EP  OW  HW  HW  EP  OW  HW  HW  EP  OW  HW  HW  EP  OW  HW  HW  EP  OW  
HW  HW  EP  OW  HW  HW  EP  OW  HW  HW  EP  OW  HW  HW  EP  OW  HW  HW  EP  OW  
HW  HW  EP  OW  HW  HW  EP  OW  HW  HW  EP  OW  HW  HW  EP  OW  HW  HW  EP  OW  
HW  HW  EP  OW  HW  HW  EP  OW  HW  HW  EP  OW  HW  HW  EP  OW  HW  HW  EP  OW  
HW  HW  EP  OW  HW  HW  EP  OW  HW  HW  EP  OW  HW  HW  EP  OW  HW  HW  EP  OW  
HW  HW  EP  OW  HW  HW  EP  OW  HW  HW  EP  OW  HW  HW  EP  OW  HW  HW  EP  OW  
HW  HW  EP  OW  HW  HW  EP  OW  HW  HW  EP  OW  HW  HW  EP  OW  HW  HW  EP  OW  
HW  HW  EP  OW  HW  HW  EP  OW  HW  HW  EP  OW  HW  HW  EP  OW  HW  HW  EP  OW  
HW  HW  EP  OW  HW  HW  EP  OW  HW  HW  EP  OW  HW  HW  EP  OW  HW  HW  EP  OW  
HW  HW  EP  OW  HW  HW  EP  OW  HW  HW  EP  OW  HW  HW  EP  OW  HW  HW  EP  OW  
HW  HW  EP  OW  HW  HW  EP  OW  HW  HW  EP  OW  HW  HW  EP  OW  HW  HW  EP  OW  
HW  HW  EP  OW  HW  HW  EP  OW  HW  HW  EP  OW  HW  HW  EP  OW  HW  HW  EP  OW  
HW  HW  EP  OW  HW  HW  EP  OW  HW  HW  EP  OW  HW  HW  EP  OW  HW  HW  EP  OW  
HW  HW  EP  OW  HW  HW  EP  OW  HW  HW  EP  OW  HW  HW  EP  OW  HW  HW  EP  OW  
HW  HW  EP  OW  HW  HW  EP  OW  HW  HW  EP  OW  HW  HW  EP  OW  HW  HW  EP  OW  
HW  HW  EP  OW  HW  HW  EP  OW  HW  HW  EP  OW  HW  HW  EP  OW  HW  HW  EP  OW  
HW  HW  EP  OW  HW  HW  EP  OW  HW  HW  EP  OW  HW  HW  EP  OW  HW  HW  EP  OW  
HW  HW  EP  OW  HW  HW  EP  OW  HW  HW  EP  OW  HW  HW  EP  OW  HW  HW  EP  OW  
HW  HW  EP  OW  HW  HW  EP  OW  HW  HW  EP  OW  HW  HW  EP  OW  HW  HW  EP  OW  
HW  HW  EP  OW  HW  HW  EP  OW  HW  HW  EP  OW  HW  HW  EP  OW  HW  HW  EP  OW  
HW  HW  EP  OW  HW  HW  EP  OW  HW  HW  EP  OW  HW  HW  EP  OW  HW  HW  EP  OW  
HW  HW  EP  OW  HW  HW  EP  OW  HW  HW  EP  OW  HW  HW  EP  OW  HW  HW  EP  OW  
HW  HW  EP  OW  HW  HW  EP  OW  HW  HW  EP  OW  HW  HW  EP  OW  HW  HW  EP  OW  
HW  HW  EP  OW  HW  HW  EP  OW  HW  HW  EP  OW  HW  HW  EP  OW  HW  HW  EP  OW  
HW  HW  EP  OW  HW  HW  EP  OW  HW  HW  EP  OW  HW  HW  EP  OW  HW  HW  EP  OW  
HW  HW  EP  OW  HW  HW  EP  OW  HW  HW  EP  OW  HW  HW  EP  OW  HW  HW  EP  OW  
HW  HW  EP  OW  HW  HW  EP  OW  HW  HW  EP  OW  HW  HW  EP  OW  HW  HW  EP  OW  
HW  HW  EP  OW  HW  HW  EP  OW  HW  HW  EP  OW  HW  HW  EP  OW  HW  HW  EP  OW  
HW  HW  EP  OW  HW  HW  EP  OW  HW  HW  EP  OW  HW  HW  EP  OW  HW  HW  EP  OW  
HW  HW  EP  OW  HW  HW  EP  OW  HW  HW  EP  OW  HW  HW  EP  OW  HW  HW  EP  OW  
HW  HW  EP  OW  HW  HW  EP  OW  HW  HW  EP  OW  HW  HW  EP  OW  HW  HW  EP  OW  
HW  HW  EP  OW  HW  HW  EP  OW  HW  HW  EP  OW  HW  HW  EP  OW  HW  HW  EP  OW  
HW  HW  EP  OW  HW  HW  EP  OW  HW  HW  EP  OW  HW  HW  EP  OW  HW  HW  EP  OW  
HW  HW  EP  OW  HW  HW  EP  OW  HW  HW  EP  OW  HW  HW  EP  OW  HW  HW  EP  OW  
HW  HW  EP  OW  HW  HW  EP  OW  HW  HW  EP  OW  HW  HW  EP  OW  HW  HW  EP  OW  
HW  HW  EP  OW  HW  HW  EP  OW  HW  HW  EP  OW  HW  HW  EP  OW  HW  HW  EP  OW  
HW  HW  EP  OW  HW  HW  EP  OW  HW  HW  EP  OW  HW  HW  EP  OW  HW  HW  EP  OW  
HW  HW  EP  OW  HW  HW  EP  OW  HW  HW  EP  OW  HW  HW  EP  OW  HW  HW  EP  OW  
HW  HW  EP  OW  HW  HW  EP  OW  HW  HW  EP  OW  HW  HW  EP  OW  HW  HW  EP  OW  
HW  HW  EP  OW  HW  HW  EP  OW  HW  HW  EP  OW  HW  HW  EP  OW  HW  HW  EP  OW  
HW  HW  EP  OW  HW  HW  EP  OW  HW  HW  EP  OW  HW  HW  EP  OW  HW  HW  EP  OW  
HW  HW  EP  OW  HW  HW  EP  OW  HW  HW  EP  OW  HW  HW  EP  OW  HW  HW  EP  OW  
HW  HW  EP  OW  HW  HW  EP  OW  HW  HW  EP  OW  HW  HW  EP  OW  HW  HW  EP  OW  
HW  HW  EP  OW  HW  HW  EP  OW  HW  HW  EP  OW  HW  HW  EP  OW  HW  HW  EP  OW  
HW  HW  EP  OW  HW  HW  EP  OW  HW  HW  EP  OW  HW  HW  EP  OW  HW  HW  EP  OW  
HW  HW  EP  OW  HW  HW  EP  OW  HW  HW  EP  OW  HW  HW  EP  OW  HW  HW  EP  OW  
HW  HW  EP  OW  HW  HW  EP  OW  HW  HW  EP  OW  HW  HW  EP  OW  HW  HW  EP  OW  
HW  HW  EP  OW  HW  HW  EP  OW  HW  HW  EP  OW  HW  HW  EP  OW  HW  HW  EP  OW  
HW  HW  EP  OW  HW  HW  EP  OW  HW  HW  EP  OW  HW  HW  EP  OW  HW  HW  EP  OW  
HW  HW  EP  OW  HW  HW  EP  OW  HW  HW  EP  OW  HW  HW  EP  OW  HW  HW  EP  OW  
HW  HW  EP  OW  HW  HW  EP  OW  HW  HW  EP  OW  HW  HW  EP  OW  HW  HW  EP  OW  
HW  HW  EP  OW  HW  HW  EP  OW  HW  HW  EP  OW  HW  HW  EP  OW  HW  HW  EP  OW  
HW  HW  EP  OW  HW  HW  EP  OW  HW  HW  EP  OW  HW  HW  EP  OW  HW  HW  EP  OW  
HW  HW  EP  OW  HW  HW  EP  OW  HW  HW  EP  OW  HW  HW  EP  OW  HW  HW  EP  OW  
HW  HW  EP  OW  HW  HW  EP  OW  HW  HW  EP  OW  HW  HW  EP  OW  HW  HW  EP  OW  
HW  HW  EP  OW  HW  HW  EP  OW  HW  HW  EP  OW  HW  HW  EP  OW  HW  HW  EP  OW  
HW  HW  EP  OW  HW  HW  EP  OW  HW  HW  EP  OW  HW  HW  EP  OW  HW  HW  EP  OW  
HW  HW  EP  OW  HW  HW  EP  OW  HW  HW  EP  OW  HW  HW  EP  OW  HW  HW  EP  OW  
HW  HW  EP  OW  HW  HW  EP  OW  HW  HW  EP  OW  HW  HW  EP  OW  HW  HW  EP  OW  
HW  HW  EP  OW  HW  HW  EP  OW  HW  HW  EP  OW  HW  HW  EP  OW  HW  HW  EP  OW  
HW  HW  EP  OW  HW  HW  EP  OW  HW  HW  EP  OW  HW  HW  EP  OW  HW  HW  EP  OW  
HW  HW  EP  OW  HW  HW  EP  OW  HW  HW  EP  OW  HW  HW  EP  OW  HW  HW  EP  OW  
HW  HW  EP  OW  HW  HW  EP  OW  HW  HW  EP  OW  HW  HW  EP  OW  HW  HW  EP  OW  
HW  HW  EP  OW  HW  HW  EP  OW  HW  HW  EP  OW  HW  HW  EP  OW  HW  HW  EP  OW  
HW  HW  EP  OW  HW  HW  EP  OW  HW  HW  EP  OW  HW  HW  EP  OW  HW  HW  EP  OW  
HW  HW  EP  OW  HW  HW  EP  OW  HW  HW  EP  OW  HW  HW  EP  OW  HW  HW  EP  OW  
HW  HW  EP  OW  HW  HW  EP  OW  HW  HW  EP  OW  HW  HW  EP  OW  HW  HW  EP  OW  
HW  HW  EP  OW  HW  HW  EP  OW  HW  HW  EP  OW  HW  HW  EP  OW  HW  HW  EP  OW  
HW  HW  EP  OW  HW  HW  EP  OW  HW  HW  EP  OW  HW  HW  EP  OW  HW  HW  EP  OW  
HW  HW  EP  OW  HW  HW  EP  OW  HW  HW  EP  OW  HW  HW  EP  OW  HW  HW  EP  OW  
HW  HW  EP  OW  HW  HW  EP  OW  HW  HW  EP  OW  HW  HW  EP  OW  HW  HW  EP  OW  
HW  HW  EP  OW  HW  HW  EP  OW  HW  HW  EP  OW  HW  HW  EP  OW  HW  HW  EP  OW  
HW  HW  EP  OW  HW  HW  EP  OW  HW  HW  EP  OW  HW  HW  EP  OW  HW  HW  EP  OW  
HW  HW  EP  OW  HW  HW  EP  OW  HW  HW  EP  OW  HW  HW  EP  OW  HW  HW  EP  OW  
HW  HW  EP  OW  HW  HW  EP  OW  HW  HW  EP  OW  HW  HW  EP  OW  HW  HW  EP  OW  
HW  HW  EP  OW  HW  HW  EP  OW  HW  HW  EP  OW  HW  HW  EP  OW  HW  HW  EP  OW  
HW  HW  EP  OW  HW  HW  EP  OW  HW  HW  EP  OW  HW  HW  EP  OW  HW  HW  EP  OW  
HW  HW  EP  OW  HW  HW  EP  OW  HW  HW  EP  OW  HW  HW  EP  OW  HW  HW  EP  OW  
HW  HW  EP  OW  HW  HW  EP  OW  HW  HW  EP  OW  HW  HW  EP  OW  HW  HW  EP  OW  
HW  HW  EP  OW  HW  HW  EP  OW  HW  HW  EP  OW  HW  HW  EP  OW  HW  HW  EP  OW  
HW  HW  EP  OW  HW  HW  EP  OW  HW  HW  EP  OW  HW  HW  EP  OW  HW  HW  EP  OW  
HW  HW  EP  OW  HW  HW  EP  OW  HW  HW  EP  OW  HW  HW  EP  OW  HW  HW  EP  OW  
HW  HW  EP  OW  HW  HW  EP  OW  HW  HW  EP  OW  HW  HW  EP  OW  HW  HW  EP  OW  
HW  HW  EP  OW  HW  HW  EP  OW  HW  HW  EP  OW  HW  HW  EP  OW  HW  HW  EP  OW  
HW  HW  EP  OW  HW  HW  EP  OW  HW  HW  EP  OW  HW  HW  EP  OW  HW  HW  EP  OW  
HW  HW  EP  OW  HW  HW  EP  OW  HW  HW  EP  OW  HW  HW  EP  OW  HW  HW  EP  OW  
HW  HW  EP  OW  HW  HW  EP  OW  HW  HW  EP  OW  HW  HW  EP  OW  HW  HW  EP  OW  
HW  HW  EP  OW  HW  HW  EP  OW  HW  HW  EP  OW  HW  HW  EP  OW  HW  HW  EP  OW  
HW  HW  EP  OW  HW  HW  EP  OW  HW  HW  EP  OW  HW  HW  EP  OW  HW  HW  EP  OW  
HW  HW  EP  OW  HW  HW  EP  OW  HW  HW  EP  OW  HW  HW  EP  OW  HW  HW  EP  OW  
HW  HW  EP  OW  HW  HW  EP  OW  HW  HW  EP  OW  HW  HW  EP  OW  HW  HW  EP  OW  
HW  HW  EP  OW  HW  HW  EP  OW  HW  HW  EP  OW  HW  HW  EP  OW  HW  HW  EP  OW  
HW  HW  EP  OW  HW  HW  EP  OW  HW  HW  EP  OW  HW  HW  EP  OW  HW  HW  EP  OW  
HW  HW  EP  OW  HW  HW  EP  OW  HW  HW  EP  OW  HW  HW  EP  OW  HW  HW  EP  OW  
HW  HW  EP  OW  HW  HW  EP  OW  HW  HW  EP  OW  HW  HW  EP  OW  HW  HW  EP  OW  
HW  HW  EP  OW  HW  HW  EP  OW  HW  HW  EP  OW  HW  HW  EP  OW  HW  HW  EP  OW  
HW  HW  EP  OW  HW  HW  EP  OW  HW  HW  EP  OW  HW  HW  EP  OW  HW  HW  EP  OW  
HW  HW  EP  OW  HW  HW  EP  OW  HW  HW  EP  OW  HW  HW  EP  OW  HW  HW  EP  OW  
HW  HW  EP  OW  HW  HW  EP  OW  HW  HW  EP  OW  HW  HW  EP  OW  HW  HW  EP  OW  
HW  HW  EP  OW  HW  HW  EP  OW  HW  HW  EP  OW  HW  HW  EP  OW  HW  HW  EP  OW  
HW  HW  EP  OW  HW  HW  EP  OW  HW  HW  EP  OW  HW  HW  EP  OW  HW  HW  EP  OW  
HW  HW  EP  OW  HW  HW  EP  OW  HW  HW  EP  OW  HW  HW  EP  OW  HW  HW  EP  OW  
HW  HW  EP  OW  HW  HW  EP  OW  HW  HW  EP  OW  HW  HW  EP  OW  HW  HW  EP  OW  
HW  HW  EP  OW  HW  HW  EP  OW  HW  HW  EP  OW  HW  HW  EP  OW  HW  HW  EP  OW  
HW  HW  EP  OW  HW  HW  EP  OW  HW  HW  EP  OW  HW  HW  EP  OW  HW  HW  EP  OW  
HW  HW  EP  OW  HW  HW  EP  OW  HW  HW  EP  OW  HW  HW  EP  OW  HW  HW  EP  OW  
HW  HW  EP  OW  HW  HW  EP  OW  HW  HW  EP  OW  HW  HW  EP  OW  HW  HW  EP  OW  
HW  HW  EP  OW  HW  HW  EP  OW  HW  HW  EP  OW  HW  HW  EP  OW  HW  HW  EP  OW  
HW  HW  EP  OW  HW  HW  EP  OW  HW  HW  EP  OW  HW  HW  EP  OW  HW  HW  EP  OW  
HW  HW  EP  OW  HW  HW  EP  OW  HW  HW  EP  OW  HW  HW  EP  OW  HW  HW  EP  OW  
HW  HW  EP  OW  HW  HW  EP  OW  HW  HW  EP  OW  HW  HW  EP  OW  HW  HW  EP  OW  
HW  HW  EP  OW  HW  HW  EP  OW  HW  HW  EP  OW  HW  HW  EP  OW  HW  HW  EP  
%FLAG TREE_CHAIN_CLASSIFICATION                                                 
%FORMAT(20a4)                                                                   
M   M   E   E   M   E   M   E   M   E   3   E   E   3   E   E   3   E   E   3   
E   E   3   E   E   E   M   E   M   E   M   E   3   E   E   E   M   E   M   E   
M   E   3   E   E   3   E   E   B   E   E   M   E   M   E   M   E   E   E   M   
S   E   E   M   S   E   E   M   S   E   E   M   S   E   E   M   S   E   E   M   
S   E   E   M   S   E   E   M   S   E   E   M   S   E   E   M   S   E   E   M   
S   E   E   M   S   E   E   M   S   E   E   M   S   E   E   M   S   E   E   M   
S   E   E   M   S   E   E   M   S   E   E   M   S   E   E   M   S   E   E   M   
S   E   E   M   S   E   E   M   S   E   E   M   S   E   E   M   S   E   E   M   
S   E   E   M   S   E   E   M   S   E   E   M   S   E   E   M   S   E   E   M   
S   E   E   M   S   E   E   M   S   E   E   M   S   E   E   M   S   E   E   M   
S   E   E   M   S   E   E   M   S   E   E   M   S   E   E   M   S   E   E   M   
S   E   E   M   S   E   E   M   S   E   E   M   S   E   E   M   S   E   E   M   
S   E   E   M   S   E   E   M   S   E   E   M   S   E   E   M   S   E   E   M   
S   E   E   M   S   E   E   M   S   E   E   M   S   E   E   M   S   E   E   M   
S   E   E   M   S   E   E   M   S   E   E   M   S   E   E   M   S   E   E   M   
S   E   E   M   S   E   E   M   S   E   E   M   S   E   E   M   S   E   E   M   
S   E   E   M   S   E   E   M   S   E   E   M   S   E   E   M   S   E   E   M   
S   E   E   M   S   E   E   M   S   E   E   M   S   E   E   M   S   E   E   M   
S   E   E   M   S   E   E   M   S   E   E   M   S   E   E   M   S   E   E   M   
S   E   E   M   S   E   E   M   S   E   E   M   S   E   E   M   S   E   E   M   
S   E   E   M   S   E   E   M   S   E   E   M   S   E   E   M   S   E   E   M   
S   E   E   M   S   E   E   M   S   E   E   M   S   E   E   M   S   E   E   M   
S   E   E   M   S   E   E   M   S   E   E   M   S   E   E   M   S   E   E   M   
S   E   E   M   S   E   E   M   S   E   E   M   S   E   E   M   S   E   E   M   
S   E   E   M   S   E   E   M   S   E   E   M   S   E   E   M   S   E   E   M   
S   E   E   M   S   E   E   M   S   E   E   M   S   E   E   M   S   E   E   M   
S   E   E   M   S   E   E   M   S   E   E   M   S   E   E   M   S   E   E   M   
S   E   E   M   S   E   E   M   S   E   E   M   S   E   E   M   S   E   E   M   
S   E   E   M   S   E   E   M   S   E   E   M   S   E   E   M   S   E   E   M   
S   E   E   M   S   E   E   M   S   E   E   M   S   E   E   M   S   E   E   M   
S   E   E   M   S   E   E   M   S   E   E   M   S   E   E   M   S   E   E   M   
S   E   E   M   S   E   E   M   S   E   E   M   S   E   E   M   S   E   E   M   
S   E   E   M   S   E   E   M   S   E   E   M   S   E   E   M   S   E   E   M   
S   E   E   M   S   E   E   M   S   E   E   M   S   E   E   M   S   E   E   M   
S   E   E   M   S   E   E   M   S   E   E   M   S   E   E   M   S   E   E   M   
S   E   E   M   S   E   E   M   S   E   E   M   S   E   E   M   S   E   E   M   
S   E   E   M   S   E   E   M   S   E   E   M   S   E   E   M   S   E   E   M   
S   E   E   M   S   E   E   M   S   E   E   M   S   E   E   M   S   E   E   M   
S   E   E   M   S   E   E   M   S   E   E   M   S   E   E   M   S   E   E   M   
S   E   E   M   S   E   E   M   S   E   E   M   S   E   E   M   S   E   E   M   
S   E   E   M   S   E   E   M   S   E   E   M   S   E   E   M   S   E   E   M   
S   E   E   M   S   E   E   M   S   E   E   M   S   E   E   M   S   E   E   M   
S   E   E   M   S   E   E   M   S   E   E   M   S   E   E   M   S   E   E   M   
S   E   E   M   S   E   E   M   S   E   E   M   S   E   E   M   S   E   E   M   
S   E   E   M   S   E   E   M   S   E   E   M   S   E   E   M   S   E   E   M   
S   E   E   M   S   E   E   M   S   E   E   M   S   E   E   M   S   E   E   M   
S   E   E   M   S   E   E   M   S   E   E   M   S   E   E   M   S   E   E   M   
S   E   E   M   S   E   E   M   S   E   E   M   S   E   E   M   S   E   E   M   
S   E   E   M   S   E   E   M   S   E   E   M   S   E   E   M   S   E   E   M   
S   E   E   M   S   E   E   M   S   E   E   M   S   E   E   M   S   E   E   M   
S   E   E   M   S   E   E   M   S   E   E   M   S   E   E   M   S   E   E   M   
S   E   E   M   S   E   E   M   S   E   E   M   S   E   E   M   S   E   E   M   
S   E   E   M   S   E   E   M   S   E   E   M   S   E   E   M   S   E   E   M   
S   E   E   M   S   E   E   M   S   E   E   M   S   E   E   M   S   E   E   M   
S   E   E   M   S   E   E   M   S   E   E   M   S   E   E   M   S   E   E   M   
S   E   E   M   S   E   E   M   S   E   E   M   S   E   E   M   S   E   E   M   
S   E   E   M   S   E   E   M   S   E   E   M   S   E   E   M   S   E   E   M   
S   E   E   M   S   E   E   M   S   E   E   M   S   E   E   M   S   E   E   M   
S   E   E   M   S   E   E   M   S   E   E   M   S   E   E   M   S   E   E   M   
S   E   E   M   S   E   E   M   S   E   E   M   S   E   E   M   S   E   E   M   
S   E   E   M   S   E   E   M   S   E   E   M   S   E   E   M   S   E   E   M   
S   E   E   M   S   E   E   M   S   E   E   M   S   E   E   M   S   E   E   M   
S   E   E   M   S   E   E   M   S   E   E   M   S   E   E   M   S   E   E   M   
S   E   E   M   S   E   E   M   S   E   E   M   S   E   E   M   S   E   E   M   
S   E   E   M   S   E   E   M   S   E   E   M   S   E   E   M   S   E   E   M   
S   E   E   M   S   E   E   M   S   E   E   M   S   E   E   M   S   E   E   M   
S   E   E   M   S   E   E   M   S   E   E   M   S   E   E   M   S   E   E   M   
S   E   E   M   S   E   E   M   S   E   E   M   S   E   E   M   S   E   E   M   
S   E   E   M   S   E   E   M   S   E   E   M   S   E   E   M   S   E   E   M   
S   E   E   M   S   E   E   M   S   E   E   M   S   E   E   M   S   E   E   M   
S   E   E   M   S   E   E   M   S   E   E   M   S   E   E   M   S   E   E   M   
S   E   E   M   S   E   E   M   S   E   E   M   S   E   E   M   S   E   E   M   
S   E   E   M   S   E   E   M   S   E   E   M   S   E   E   M   S   E   E   M   
S   E   E   M   S   E   E   M   S   E   E   M   S   E   E   M   S   E   E   M   
S   E   E   M   S   E   E   M   S   E   E   M   S   E   E   M   S   E   E   M   
S   E   E   M   S   E   E   M   S   E   E   M   S   E   E   M   S   E   E   M   
S   E   E   M   S   E   E   M   S   E   E   M   S   E   E   M   S   E   E   M   
S   E   E   M   S   E   E   M   S   E   E   M   S   E   E   M   S   E   E   M   
S   E   E   M   S   E   E   M   S   E   E   M   S   E   E   M   S   E   E   M   
S   E   E   M   S   E   E   M   S   E   E   M   S   E   E   M   S   E   E   M   
S   E   E   M   S   E   E   M   S   E   E   M   S   E   E   M   S   E   E   M   
S   E   E   M   S   E   E   M   S   E   E   M   S   E   E   M   S   E   E   M   
S   E   E   M   S   E   E   M   S   E   E   M   S   E   E   M   S   E   E   M   
S   E   E   M   S   E   E   M   S   E   E   M   S   E   E   M   S   E   E   M   
S   E   E   M   S   E   E   M   S   E   E   M   S   E   E   M   S   E   E   M   
S   E   E   M   S   E   E   M   S   E   E   M   S   E   E   M   S   E   E   M   
S   E   E   M   S   E   E   M   S   E   E   M   S   E   E   M   S   E   E   M   
S   E   E   M   S   E   E   M   S   E   E   M   S   E   E   M   S   E   E   M   
S   E   E   M   S   E   E   M   S   E   E   M   S   E   E   M   S   E   E   M   
S   E   E   M   S   E   E   M   S   E   E   M   S   E   E   M   S   E   E   M   
S   E   E   M   S   E   E   M   S   E   E   M   S   E   E   M   S   E   E   M   
S   E   E   M   S   E   E   M   S   E   E   M   S   E   E   M   S   E   E   M   
S   E   E   M   S   E   E   M   S   E   E   M   S   E   E   M   S   E   E   M   
S   E   E   M   S   E   E   M   S   E   E   M   S   E   E   M   S   E   E   M   
S   E   E   M   S   E   E   M   S   E   E   M   S   E   E   M   S   E   E   M   
S   E   E   M   S   E   E   M   S   E   E   M   S   E   E   M   S   E   E   M   
S   E   E   M   S   E   E   M   S   E   E   M   S   E   E   M   S   E   E   M   
S   E   E   M   S   E   E   M   S   E   E   M   S   E   E   M   S   E   E   M   
S   E   E   M   S   E   E   M   S   E   E   M   S   E   E   M   S   E   E   M   
S   E   E   M   S   E   E   M   S   E   E   M   S   E   E   M   S   E   E   M   
S   E   E   M   S   E   E   M   S   E   E   M   S   E   E   M   S   E   E   M   
S   E   E   M   S   E   E   M   S   E   E   M   S   E   E   M   S   E   E   M   
S   E   E   M   S   E   E   M   S   E   E   M   S   E   E   M   S   E   E   M   
S   E   E   M   S   E   E   M   S   E   E   M   S   E   E   M   S   E   E   M   
S   E   E   M   S   E   E   M   S   E   E   M   S   E   E   M   S   E   E   M   
S   E   E   M   S   E   E   M   S   E   E   M   S   E   E   M   S   E   E   M   
S   E   E   M   S   E   E   M   S   E   E   M   S   E   E   M   S   E   E   M   
S   E   E   M   S   E   E   M   S   E   E   M   S   E   E   M   S   E   E   M   
S   E   E   M   S   E   E   M   S   E   E   M   S   E   E   M   S   E   E   M   
S   E   E   M   S   E   E   M   S   E   E   M   S   E   E   M   S   E   E   M   
S   E   E   M   S   E   E   M   S   E   E   M   S   E   E   M   S   E   E   M   
S   E   E   M   S   E   E   M   S   E   E   M   S   E   E   M   S   E   E   M   
S   E   E   M   S   E   E   M   S   E   E   M   S   E   E   M   S   E   E   M   
S   E   E   M   S   E   E   M   S   E   E   M   S   E   E   M   S   E   E   M   
S   E   E   M   S   E   E   M   S   E   E   M   S   E   E   M   S   E   E   M   
S   E   E   M   S   E   E   M   S   E   E   M   S   E   E   M   S   E   E   M   
S   E   E   M   S   E   E   M   S   E   E   M   S   E   E   M   S   E   E   M   
S   E   E   M   S   E   E   M   S   E   E   M   S   E   E   M   S   E   E   M   
S   E   E   M   S   E   E   M   S   E   E   M   S   E   E   M   S   E   E   M   
S   E   E   M   S   E   E   M   S   E   E   M   S   E   E   M   S   E   E   M   
S   E   E   M   S   E   E   M   S   E   E   M   S   E   E   M   S   E   E   M   
S   E   E   M   S   E   E   M   S   E   E   M   S   E   E   M   S   E   E   M   
S   E   E   M   S   E   E   M   S   E   E   M   S   E   E   M   S   E   E   M   
S   E   E   M   S   E   E   M   S   E   E   M   S   E   E   M   S   E   E   M   
S   E   E   M   S   E   E   M   S   E   E   M   S   E   E   M   S   E   E   M   
S   E   E   M   S   E   E   M   S   E   E   M   S   E   E   M   S   E   E   M   
S   E   E   M   S   E   E   M   S   E   E   M   S   E   E   M   S   E   E   M   
S   E   E   M   S   E   E   M   S   E   E   M   S   E   E   M   S   E   E   M   
S   E   E   M   S   E   E   M   S   E   E   M   S   E   E   M   S   E   E   M   
S   E   E   M   S   E   E   M   S   E   E   M   S   E   E   M   S   E   E   M   
S   E   E   M   S   E   E   M   S   E   E   M   S   E   E   M   S   E   E   M   
S   E   E   M   S   E   E   M   S   E   E   M   S   E   E   M   S   E   E   M   
S   E   E   M   S   E   E   M   S   E   E   M   S   E   E   M   S   E   E   M   
S   E   E   M   S   E   E   M   S   E   E   M   S   E   E   M   S   E   E   M   
S   E   E   M   S   E   E   M   S   E   E   M   S   E   E   M   S   E   E   M   
S   E   E   M   S   E   E   M   S   E   E   M   S   E   E   M   S   E   E   M   
S   E   E   M   S   E   E   M   S   E   E   M   S   E   E   M   S   E   E   M   
S   E   E   M   S   E   E   M   S   E   E   M   S   E   E   M   S   E   E   M   
S   E   E   M   S   E   E   M   S   E   E   M   S   E   E   M   S   E   E   M   
S   E   E   M   S   E   E   M   S   E   E   M   S   E   E   M   S   E   E   M   
S   E   E   M   S   E   E   M   S   E   E   M   S   E   E   M   S   E   E   M   
S   E   E   M   S   E   E   M   S   E   E   M   S   E   E   M   S   E   E   M   
S   E   E   M   S   E   E   M   S   E   E   M   S   E   E   M   S   E   E   M   
S   E   E   M   S   E   E   M   S   E   E   M   S   E   E   M   S   E   E   M   
S   E   E   M   S   E   E   M   S   E   E   M   S   E   E   M   S   E   E   M   
S   E   E   M   S   E   E   M   S   E   E   M   S   E   E   M   S   E   E   M   
S   E   E   M   S   E   E   M   S   E   E   M   S   E   E   M   S   E   E   M   
S   E   E   M   S   E   E   M   S   E   E   M   S   E   E   M   S   E   E   M   
S   E   E   M   S   E   E   M   S   E   E   M   S   E   E   M   S   E   E   M   
S   E   E   M   S   E   E   M   S   E   E   M   S   E   E   M   S   E   E   M   
S   E   E   M   S   E   E   M   S   E   E   M   S   E   E   M   S   E   E   M   
S   E   E   M   S   E   E   M   S   E   E   M   S   E   E   M   S   E   E   M   
S   E   E   M   S   E   E   M   S   E   E   M   S   E   E   M   S   E   E   M   
S   E   E   M   S   E   E   M   S   E   E   M   S   E   E   M   S   E   E   M   
S   E   E   M   S   E   E   M   S   E   E   M   S   E   E   M   S   E   E   M   
S   E   E   M   S   E   E   M   S   E   E   M   S   E   E   M   S   E   E   M   
S   E   E   M   S   E   E   M   S   E   E   M   S   E   E   M   S   E   E   M   
S   E   E   M   S   E   E   M   S   E   E   M   S   E   E   M   S   E   E   M   
S   E   E   M   S   E   E   M   S   E   E   M   S   E   E   M   S   E   E   M   
S   E   E   M   S   E   E   M   S   E   E   M   S   E   E   M   S   E   E   M   
S   E   E   M   S   E   E   M   S   E   E   M   S   E   E   M   S   E   E   M   
S   E   E   M   S   E   E   M   S   E   E   M   S   E   E   M   S   E   E   M   
S   E   E   M   S   E   E   M   S   E   E   M   S   E   E   M   S   E   E   M   
S   E   E   M   S   E   E   M   S   E   E   M   S   E   E   M   S   E   E   M   
S   E   E   M   S   E   E   M   S   E   E   M   S   E   E   M   S   E   E   M   
S   E   E   M   S   E   E   M   S   E   E   M   S   E   E   M   S   E   E   M   
S   E   E   M   S   E   E   M   S   E   E   M   S   E   E   M   S   E   E   M   
S   E   E   M   S   E   E   M   S   E   E   M   S   E   E   M   S   E   E   M   
S   E   E   M   S   E   E   M   S   E   E   M   S   E   E   M   S   E   E   M   
S   E   E   M   S   E   E   M   S   E   E   M   S   E   E   M   S   E   E   M   
S   E   E   M   S   E   E   M   S   E   E   M   S   E   E   M   S   E   E   M   
S   E   E   M   S   E   E   M   S   E   E   M   S   E   E   M   S   E   E   M   
S   E   E   M   S   E   E   M   S   E   E   M   S   E   E   M   S   E   E   M   
S   E   E   M   S   E   E   M   S   E   E   M   S   E   E   M   S   E   E   M   
S   E   E   M   S   E   E   M   S   E   E   M   S   E   E   M   S   E   E   M   
S   E   E   M   S   E   E   M   S   E   E   M   S   E   E   M   S   E   E   M   
S   E   E   M   S   E   E   M   S   E   E   M   S   E   E   M   S   E   E   M   
S   E   E   M   S   E   E   M   S   E   E   M   S   E   E   M   S   E   E   M   
S   E   E   M   S   E   E   M   S   E   E   M   S   E   E   M   S   E   E   M   
S   E   E   M   S   E   E   M   S   E   E   M   S   E   E   M   S   E   E   M   
S   E   E   M   S   E   E   M   S   E   E   M   S   E   E   M   S   E   E   M   
S   E   E   M   S   E   E   M   S   E   E   M   S   E   E   M   S   E   E   M   
S   E   E   M   S   E   E   M   S   E   E   M   S   E   E   M   S   E   E   M   
S   E   E   M   S   E   E   M   S   E   E   M   S   E   E   M   S   E   E   M   
S   E   E   M   S   E   E   M   S   E   E   M   S   E   E   M   S   E   E   M   
S   E   E   M   S   E   E   M   S   E   E   M   S   E   E   M   S   E   E   M   
S   E   E   M   S   E   E   M   S   E   E   M   S   E   E   M   S   E   E   M   
S   E   E   M   S   E   E   M   S   E   E   M   S   E   E   M   S   E   E   M   
S   E   E   M   S   E   E   M   S   E   E   M   S   E   E   M   S   E   E   M   
S   E   E   M   S   E   E   M   S   E   E   M   S   E   E   M   S   E   E   M   
S   E   E   M   S   E   E   M   S   E   E   M   S   E   E   M   S   E   E   M   
S   E   E   M   S   E   E   M   S   E   E   M   S   E   E   M   S   E   E   M   
S   E   E   M   S   E   E   M   S   E   E   M   S   E   E   M   S   E   E   M   
S   E   E   M   S   E   E   M   S   E   E   M   S   E   E   M   S   E   E   M   
S   E   E   M   S   E   E   M   S   E   E   M   S   E   E   M   S   E   E   M   
S   E   E   M   S   E   E   M   S   E   E   M   S   E   E   M   S   E   E   M   
S   E   E   M   S   E   E   M   S   E   E   M   S   E   E   M   S   E   E   M   
S   E   E   M   S   E   E   M   S   E   E   M   S   E   E   M   S   E   E   M   
S   E   E   M   S   E   E   M   S   E   E   M   S   E   E   M   S   E   E   M   
S   E   E   M   S   E   E   M   S   E   E   M   S   E   E   M   S   E   E   M   
S   E   E   M   S   E   E   M   S   E   E   M   S   E   E   M   S   E   E   M   
S   E   E   M   S   E   E   M   S   E   E   M   S   E   E   M   S   E   E   M   
S   E   E   M   S   E   E   M   S   E   E   M   S   E   E   M   S   E   E   M   
S   E   E   M   S   E   E   M   S   E   E   M   S   E   E   M   S   E   E   M   
S   E   E   M   S   E   E   M   S   E   E   M   S   E   E   M   S   E   E   M   
S   E   E   M   S   E   E   M   S   E   E   M   S   E   E   M   S   E   E   M   
S   E   E   M   S   E   E   M   S   E   E   M   S   E   E   M   S   E   E   M   
S   E   E   M   S   E   E   M   S   E   E   M   S   E   E   M   S   E   E   M   
S   E   E   M   S   E   E   M   S   E   E   M   S   E   E   M   S   E   E   M   
S   E   E   M   S   E   E   M   S   E   E   M   S   E   E   M   S   E   E   M   
S   E   E   M   S   E   E   M   S   E   E   M   S   E   E   M   S   E   E   M   
S   E   E   M   S   E   E   M   S   E   E   M   S   E   E   M   S   E   E   M   
S   E   E   M   S   E   E   M   S   E   E   M   S   E   E   M   S   E   E   M   
S   E   E   M   S   E   E   M   S   E   E   M   S   E   E   M   S   E   E   M   
S   E   E   M   S   E   E   M   S   E   E   M   S   E   E   M   S   E   E   M   
S   E   E   M   S   E   E   M   S   E   E   M   S   E   E   M   S   E   E   M   
S   E   E   M   S   E   E   M   S   E   E   M   S   E   E   M   S   E   E   M   
S   E   E   M   S   E   E   M   S   E   E   M   S   E   E   M   S   E   E   M   
S   E   E   M   S   E   E   M   S   E   E   M   S   E   E   M   S   E   E   M   
S   E   E   M   S   E   E   M   S   E   E   M   S   E   E   M   S   E   E   M   
S   E   E   M   S   E   E   M   S   E   E   M   S   E   E   M   S   E   E   M   
S   E   E   M   S   E   E   M   S   E   E   M   S   E   E   M   S   E   E   M   
S   E   E   M   S   E   E   M   S   E   E   M   S   E   E   M   S   E   E   M   
S   E   E   M   S   E   E   M   S   E   E   M   S   E   E   M   S   E   E   M   
S   E   E   M   S   E   E   M   S   E   E   M   S   E   E   M   S   E   E   M   
S   E   E   M   S   E   E   M   S   E   E   M   S   E   E   M   S   E   E   M   
S   E   E   M   S   E   E   M   S   E   E   M   S   E   E   M   S   E   E   M   
S   E   E   M   S   E   E   M   S   E   E   M   S   E   E   M   S   E   E   M   
S   E   E   M   S   E   E   M   S   E   E   M   S   E   E   M   S   E   E   M   
S   E   E   M   S   E   E   M   S   E   E   M   S   E   E   M   S   E   E   M   
S   E   E   M   S   E   E   M   S   E   E   M   S   E   E   M   S   E   E   M   
S   E   E   M   S   E   E   M   S   E   E   M   S   E   E   M   S   E   E   M   
S   E   E   M   S   E   E   M   S   E   E   M   S   E   E   M   S   E   E   M   
S   E   E   M   S   E   E   M   S   E   E   M   S   E   E   M   S   E   E   M   
S   E   E   M   S   E   E   M   S   E   E   M   S   E   E   M   S   E   E   M   
S   E   E   M   S   E   E   M   S   E   E   M   S   E   E   M   S   E   E   M   
S   E   E   M   S   E   E   M   S   E   E   M   S   E   E   M   S   E   E   M   
S   E   E   M   S   E   E   M   S   E   E   M   S   E   E   M   S   E   E   M   
S   E   E   M   S   E   E   M   S   E   E   M   S   E   E   M   S   E   E   M   
S   E   E   M   S   E   E   M   S   E   E   M   S   E   E   M   S   E   E   M   
S   E   E   M   S   E   E   M   S   E   E   M   S   E   E   M   S   E   E   M   
S   E   E   M   S   E   E   M   S   E   E   M   S   E   E   M   S   E   E   M   
S   E   E   M   S   E   E   M   S   E   E   M   S   E   E   M   S   E   E   M   
S   E   E   M   S   E   E   M   S   E   E   M   S   E   E   M   S   E   E   M   
S   E   E   M   S   E   E   M   S   E   E   M   S   E   E   M   S   E   E   M   
S   E   E   M   S   E   E   M   S   E   E   M   S   E   E   M   S   E   E   M   
S   E   E   M   S   E   E   M   S   E   E   M   S   E   E   M   S   E   E   M   
S   E   E   M   S   E   E   M   S   E   E   M   S   E   E   M   S   E   E   M   
S   E   E   M   S   E   E   M   S   E   E   M   S   E   E   M   S   E   E   M   
S   E   E   M   S   E   E   M   S   E   E   M   S   E   E   M   S   E   E   M   
S   E   E   M   S   E   E   M   S   E   E   M   S   E   E   M   S   E   E   M   
S   E   E   M   S   E   E   M   S   E   E   M   S   E   E   M   S   E   E   M   
S   E   E   M   S   E   E   M   S   E   E   M   S   E   E   M   S   E   E   M   
S   E   E   M   S   E   E   M   S   E   E   M   S   E   E   M   S   E   E   M   
S   E   E   M   S   E   E   M   S   E   E   M   S   E   E   M   S   E   E   M   
S   E   E   M   S   E   E   M   S   E   E   M   S   E   E   M   S   E   E   M   
S   E   E   M   S   E   E   M   S   E   E   M   S   E   E   M   S   E   E   M   
S   E   E   M   S   E   E   M   S   E   E   M   S   E   E   M   S   E   E   M   
S   E   E   M   S   E   E   M   S   E   E   M   S   E   E   M   S   E   E   M   
S   E   E   M   S   E   E   M   S   E   E   M   S   E   E   M   S   E   E   M   
S   E   E   M   S   E   E   M   S   E   E   M   S   E   E   M   S   E   E   M   
S   E   E   M   S   E   E   M   S   E   E   M   S   E   E   M   S   E   E   M   
S   E   E   M   S   E   E   M   S   E   E   M   S   E   E   M   S   E   E   M   
S   E   E   M   S   E   E   M   S   E   E   M   S   E   E   M   S   E   E   M   
S   E   E   M   S   E   E   M   S   E   E   M   S   E   E   M   S   E   E   M   
S   E   E   M   S   E   E   M   S   E   E   M   S   E   E   M   S   E   E   M   
S   E   E   M   S   E   E   M   S   E   E   M   S   E   E   M   S   E   E   M   
S   E   E   M   S   E   E   M   S   E   E   M   S   E   E   M   S   E   E   M   
S   E   E   M   S   E   E   M   S   E   E   M   S   E   E   M   S   E   E   M   
S   E   E   M   S   E   E   M   S   E   E   M   S   E   E   M   S   E   E   M   
S   E   E   M   S   E   E   M   S   E   E   M   S   E   E   M   S   E   E   M   
S   E   E   M   S   E   E   M   S   E   E   M   S   E   E   M   S   E   E   M   
S   E   E   M   S   E   E   M   S   E   E   M   S   E   E   M   S   E   E   M   
S   E   E   M   S   E   E   M   S   E   E   M   S   E   E   M   S   E   E   M   
S   E   E   M   S   E   E   M   S   E   E   M   S   E   E   M   S   E   E   M   
S   E   E   M   S   E   E   M   S   E   E   M   S   E   E   M   S   E   E   M   
S   E   E   M   S   E   E   M   S   E   E   M   S   E   E   M   S   E   E   M   
S   E   E   M   S   E   E   M   S   E   E   M   S   E   E   M   S   E   E   M   
S   E   E   M   S   E   E   M   S   E   E   M   S   E   E   M   S   E   E   M   
S   E   E   M   S   E   E   M   S   E   E   M   S   E   E   M   S   E   E   M   
S   E   E   M   S   E   E   M   S   E   E   M   S   E   E   M   S   E   E   M   
S   E   E   M   S   E   E   M   S   E   E   M   S   E   E   M   S   E   E   M   
S   E   E   M   S   E   E   M   S   E   E   M   S   E   E   M   S   E   E   M   
S   E   E   M   S   E   E   M   S   E   E   M   S   E   E   M   S   E   E   M   
S   E   E   M   S   E   E   M   S   E   E   M   S   E   E   M   S   E   E   M   
S   E   E   M   S   E   E   M   S   E   E   M   S   E   E   M   S   E   E   M   
S   E   E   M   S   E   E   M   S   E   E   M   S   E   E   M   S   E   E   M   
S   E   E   M   S   E   E   M   S   E   E   M   S   E   E   M   S   E   E   M   
S   E   E   M   S   E   E   M   S   E   E   M   S   E   E   M   S   E   E   M   
S   E   E   M   S   E   E   M   S   E   E   M   S   E   E   M   S   E   E   M   
S   E   E   M   S   E   E   M   S   E   E   M   S   E   E   M   S   E   E   M   
S   E   E   M   S   E   E   M   S   E   E   M   S   E   E   M   S   E   E   M   
S   E   E   M   S   E   E   M   S   E   E   M   S   E   E   M   S   E   E   M   
S   E   E   M   S   E   E   M   S   E   E   M   S   E   E   M   S   E   E   M   
S   E   E   M   S   E   E   M   S   E   E   M   S   E   E   M   S   E   E   M   
S   E   E   M   S   E   E   M   S   E   E   M   S   E   E   M   S   E   E   M   
S   E   E   M   S   E   E   M   S   E   E   M   S   E   E   M   S   E   E   M   
S   E   E   M   S   E   E   M   S   E   E   M   S   E   E   M   S   E   E   M   
S   E   E   M   S   E   E   M   S   E   E   M   S   E   E   M   S   E   E   M   
S   E   E   M   S   E   E   M   S   E   E   M   S   E   E   M   S   E   E   M   
S   E   E   M   S   E   E   M   S   E   E   M   S   E   E   M   S   E   E   M   
S   E   E   M   S   E   E   M   S   E   E   M   S   E   E   M   S   E   E   M   
S   E   E   M   S   E   E   M   S   E   E   M   S   E   E   M   S   E   E   M   
S   E   E   M   S   E   E   M   S   E   E   M   S   E   E   M   S   E   E   M   
S   E   E   M   S   E   E   M   S   E   E   M   S   E   E   M   S   E   E   M   
S   E   E   M   S   E   E   M   S   E   E   M   S   E   E   M   S   E   E   M   
S   E   E   M   S   E   E   M   S   E   E   M   S   E   E   M   S   E   E   M   
S   E   E   M   S   E   E   M   S   E   E   M   S   E   E   M   S   E   E   M   
S   E   E   M   S   E   E   M   S   E   E   M   S   E   E   M   S   E   E   M   
S   E   E   M   S   E   E   M   S   E   E   M   S   E   E   M   S   E   E   M   
S   E   E   M   S   E   E   M   S   E   E   M   S   E   E   M   S   E   E   M   
S   E   E   M   S   E   E   M   S   E   E   M   S   E   E   M   S   E   E   M   
S   E   E   M   S   E   E   M   S   E   E   M   S   E   E   M   S   E   E   M   
S   E   E   M   S   E   E   M   S   E   E   M   S   E   E   M   S   E   E   M   
S   E   E   M   S   E   E   M   S   E   E   M   S   E   E   M   S   E   E   M   
S   E   E   M   S   E   E   M   S   E   E   M   S   E   E   M   S   E   E   M   
S   E   E   M   S   E   E   M   S   E   E   M   S   E   E   M   S   E   E   M   
S   E   E   M   S   E   E   M   S   E   E   M   S   E   E   M   S   E   E   M   
S   E   E   M   S   E   E   M   S   E   E   M   S   E   E   M   S   E   E   M   
S   E   E   M   S   E   E   M   S   E   E   M   S   E   E   M   S   E   E   M   
S   E   E   M   S   E   E   M   S   E   E   M   S   E   E   M   S   E   E   M   
S   E   E   M   S   E   E   M   S   E   E   M   S   E   E   M   S   E   E   M   
S   E   E   M   S   E   E   M   S   E   E   M   S   E   E   M   S   E   E   M   
S   E   E   M   S   E   E   M   S   E   E   M   S   E   E   M   S   E   E   M   
S   E   E   M   S   E   E   M   S   E   E   M   S   E   E   M   S   E   E   M   
S   E   E   M   S   E   E   M   S   E   E   M   S   E   E   M   S   E   E   M   
S   E   E   M   S   E   E   M   S   E   E   M   S   E   E   M   S   E   E   M   
S   E   E   M   S   E   E   M   S   E   E   M   S   E   E   M   S   E   E   M   
S   E   E   M   S   E   E   M   S   E   E   M   S   E   E   M   S   E   E   M   
S   E   E   M   S   E   E   M   S   E   E   M   S   E   E   M   S   E   E   M   
S   E   E   M   S   E   E   M   S   E   E   M   S   E   E   M   S   E   E   M   
S   E   E   M   S   E   E   M   S   E   E   M   S   E   E   M   S   E   E   M   
S   E   E   M   S   E   E   M   S   E   E   M   S   E   E   M   S   E   E   M   
S   E   E   M   S   E   E   M   S   E   E   M   S   E   E   M   S   E   E   M   
S   E   E   M   S   E   E   M   S   E   E   M   S   E   E   M   S   E   E   M   
S   E   E   M   S   E   E   M   S   E   E   M   S   E   E   M   S   E   E   M   
S   E   E   M   S   E   E   M   S   E   E   M   S   E   E   M   S   E   E   M   
S   E   E   M   S   E   E   M   S   E   E   M   S   E   E   M   S   E   E   M   
S   E   E   M   S   E   E   M   S   E   E   M   S   E   E   M   S   E   E   
%FLAG JOIN_ARRAY                                                                
%FORMAT(10I8)                                                                   
       0       0       0       0       0       0       0       0       0       0
       0       0       0       0       0       0       0       0       0       0
       0       0       0       0       0       0       0       0       0       0
       0       0       0       0       0       0       0       0       0       0
       0       0       0       0       0       0       0       0       0       0
       0       0       0       0       0       0       0       0       0       0
       0       0       0       0       0       0       0       0       0       0
       0       0       0       0       0       0       0       0       0       0
       0       0       0       0       0       0       0       0       0       0
       0       0       0       0       0       0       0       0       0       0
       0       0       0       0       0       0       0       0       0       0
       0       0       0       0       0       0       0       0       0       0
       0       0       0       0       0       0       0       0       0       0
       0       0       0       0       0       0       0       0       0       0
       0       0       0       0       0       0       0       0       0       0
       0       0       0       0       0       0       0       0       0       0
       0       0       0       0       0       0       0       0       0       0
       0       0       0       0       0       0       0       0       0       0
       0       0       0       0       0       0       0       0       0       0
       0       0       0       0       0       0       0       0       0       0
       0       0       0       0       0       0       0       0       0       0
       0       0       0       0       0       0       0       0       0       0
       0       0       0       0       0       0       0       0       0       0
       0       0       0       0       0       0       0       0       0       0
       0       0       0       0       0       0       0       0       0       0
       0       0       0       0       0       0       0       0       0       0
       0       0       0       0       0       0       0       0       0       0
       0       0       0       0       0       0       0       0       0       0
       0       0       0       0       0       0       0       0       0       0
       0       0       0       0       0       0       0       0       0       0
       0       0       0       0       0       0       0       0       0       0
       0       0       0       0       0       0       0       0       0       0
       0       0       0       0       0       0       0       0       0       0
       0       0       0       0       0       0       0       0       0       0
       0       0       0       0       0       0       0       0       0       0
       0       0       0       0       0       0       0       0       0       0
       0       0       0       0       0       0       0       0       0       0
       0       0       0       0       0       0       0       0       0       0
       0       0       0       0       0       0       0       0       0       0
       0       0       0       0       0       0       0       0       0       0
       0       0       0       0       0       0       0       0       0       0
       0       0       0       0       0       0       0       0       0       0
       0       0       0       0       0       0       0       0       0       0
       0       0       0       0       0       0       0       0       0       0
       0       0       0       0       0       0       0       0       0       0
       0       0       0       0       0       0       0       0       0       0
       0       0       0       0       0       0       0       0       0       0
       0       0       0       0       0       0       0       0       0       0
       0       0       0       0       0       0       0       0       0       0
       0       0       0       0       0       0       0       0       0       0
       0       0       0       0       0       0       0       0       0       0
       0       0       0       0       0       0       0       0       0       0
       0       0       0       0       0       0       0       0       0       0
       0       0       0       0       0       0       0       0       0       0
       0       0       0       0       0       0       0       0       0       0
       0       0       0       0       0       0       0       0       0       0
       0       0       0       0       0       0       0       0       0       0
       0       0       0       0       0       0       0       0       0       0
       0       0       0       0       0       0       0       0       0       0
       0       0       0       0       0       0       0       0       0       0
       0       0       0       0       0       0       0       0       0       0
       0       0       0       0       0       0       0       0       0       0
       0       0       0       0       0       0       0       0       0       0
       0       0       0       0       0       0       0       0       0       0
       0       0       0       0       0       0       0       0       0       0
       0       0       0       0       0       0       0       0       0       0
       0       0       0       0       0       0       0       0       0       0
       0       0       0       0       0       0       0       0       0       0
       0       0       0       0       0       0       0       0       0       0
       0       0       0       0       0       0       0       0       0       0
       0       0       0       0       0       0       0       0       0       0
       0       0       0       0       0       0       0       0       0       0
       0       0       0       0       0       0       0       0       0       0
       0       0       0       0       0       0       0       0       0       0
       0       0       0       0       0       0       0       0       0       0
       0       0       0       0       0       0       0       0       0       0
       0       0       0       0       0       0       0       0       0       0
       0       0       0       0       0       0       0       0       0       0
       0       0       0       0       0       0       0       0       0       0
       0       0       0       0       0       0       0       0       0       0
       0       0       0       0       0       0       0       0       0       0
       0       0       0       0       0       0       0       0       0       0
       0       0       0       0       0       0       0       0       0       0
       0       0       0       0       0       0       0       0       0       0
       0       0       0       0       0       0       0       0       0       0
       0       0       0       0       0       0       0       0       0       0
       0       0       0       0       0       0       0       0       0       0
       0       0       0       0       0       0       0       0       0       0
       0       0       0       0       0       0       0       0       0       0
       0       0       0       0       0       0       0       0       0       0
       0       0       0       0       0       0       0       0       0       0
       0       0       0       0       0       0       0       0       0       0
       0       0       0       0       0       0       0       0       0       0
       0       0       0       0       0       0       0       0       0       0
       0       0       0       0       0       0       0       0       0       0
       0       0       0       0       0       0       0       0       0       0
       0       0       0       0       0       0       0       0       0       0
       0       0       0       0       0       0       0       0       0       0
       0       0       0       0       0       0       0       0       0       0
       0       0       0       0       0       0       0       0       0       0
       0       0       0       0       0       0       0       0       0       0
       0       0       0       0       0       0       0       0       0       0
       0       0       0       0       0       0       0       0       0       0
       0       0       0       0       0       0       0       0       0       0
       0       0       0       0       0       0       0       0       0       0
       0       0       0       0       0       0       0       0       0       0
       0       0       0       0       0       0       0       0       0       0
       0       0       0       0       0       0       0       0       0       0
       0       0       0       0       0       0       0       0       0       0
       0       0       0       0       0       0       0       0       0       0
       0       0       0       0       0       0       0       0       0       0
       0       0       0       0       0       0       0       0       0       0
       0       0       0       0       0       0       0       0       0       0
       0       0       0       0       0       0       0       0       0       0
       0       0       0       0       0       0       0       0       0       0
       0       0       0       0       0       0       0       0       0       0
       0       0       0       0       0       0       0       0       0       0
       0       0       0       0       0       0       0       0       0       0
       0       0       0       0       0       0       0       0       0       0
       0       0       0       0       0       0       0       0       0       0
       0       0       0       0       0       0       0       0       0       0
       0       0       0       0       0       0       0       0       0       0
       0       0       0       0       0       0       0       0       0       0
       0       0       0       0       0       0       0       0       0       0
       0       0       0       0       0       0       0       0       0       0
       0       0       0       0       0       0       0       0       0       0
       0       0       0       0       0       0       0       0       0       0
       0       0       0       0       0       0       0       0       0       0
       0       0       0       0       0       0       0       0       0       0
       0       0       0       0       0       0       0       0       0       0
       0       0       0       0       0       0       0       0       0       0
       0       0       0       0       0       0       0       0       0       0
       0       0       0       0       0       0       0       0       0       0
       0       0       0       0       0       0       0       0       0       0
       0       0       0       0       0       0       0       0       0       0
       0       0       0       0       0       0       0       0       0       0
       0       0       0       0       0       0       0       0       0       0
       0       0       0       0       0       0       0       0       0       0
       0       0       0       0       0       0       0       0       0       0
       0       0       0       0       0       0       0       0       0       0
       0       0       0       0       0       0       0       0       0       0
       0       0       0       0       0       0       0       0       0       0
       0       0       0       0       0       0       0       0       0       0
       0       0       0       0       0       0       0       0       0       0
       0       0       0       0       0       0       0       0       0       0
       0       0       0       0       0       0       0       0       0       0
       0       0       0       0       0       0       0       0       0       0
       0       0       0       0       0       0       0       0       0       0
       0       0       0       0       0       0       0       0       0       0
       0       0       0       0       0       0       0       0       0       0
       0       0       0       0       0       0       0       0       0       0
       0       0       0       0       0       0       0       0       0       0
       0       0       0       0       0       0       0       0       0       0
       0       0       0       0       0       0       0       0       0       0
       0       0       0       0       0       0       0       0       0       0
       0       0       0       0       0       0       0       0       0       0
       0       0       0       0       0       0       0       0       0       0
       0       0       0       0       0       0       0       0       0       0
       0       0       0       0       0       0       0       0       0       0
       0       0       0       0       0       0       0       0       0       0
       0       0       0       0       0       0       0       0       0       0
       0       0       0       0       0       0       0       0       0       0
       0       0       0       0       0       0       0       0       0       0
       0       0       0       0       0       0       0       0       0       0
       0       0       0       0       0       0       0       0       0       0
       0       0       0       0       0       0       0       0       0       0
       0       0       0       0       0       0       0       0       0       0
       0       0       0       0       0       0       0       0       0       0
       0       0       0       0       0       0       0       0       0       0
       0       0       0       0       0       0       0       0       0       0
       0       0       0       0       0       0       0       0       0       0
       0       0       0       0       0       0       0       0       0       0
       0       0       0       0       0       0       0       0       0       0
       0       0       0       0       0       0       0       0       0       0
       0       0       0       0       0       0       0       0       0       0
       0       0       0       0       0       0       0       0       0       0
       0       0       0       0       0       0       0       0       0       0
       0       0       0       0       0       0       0       0       0       0
       0       0       0       0       0       0       0       0       0       0
       0       0       0       0       0       0       0       0       0       0
       0       0       0       0       0       0       0       0       0       0
       0       0       0       0       0       0       0       0       0       0
       0       0       0       0       0       0       0       0       0       0
       0       0       0       0       0       0       0       0       0       0
       0       0       0       0       0       0       0       0       0       0
       0       0       0       0       0       0       0       0       0       0
       0       0       0       0       0       0       0       0       0       0
       0       0       0       0       0       0       0       0       0       0
       0       0       0       0       0       0       0       0       0       0
       0       0       0       0       0       0       0       0       0       0
       0       0       0       0       0       0       0       0       0       0
       0       0       0       0       0       0       0       0       0       0
       0       0       0       0       0       0       0       0       0       0
       0       0       0       0       0       0       0       0       0       0
       0       0       0       0       0       0       0       0       0       0
       0       0       0       0       0       0       0       0       0       0
       0       0       0       0       0       0       0       0       0       0
       0       0       0       0       0       0       0       0       0       0
       0       0       0       0       0       0       0       0       0       0
       0       0       0       0       0       0       0       0       0       0
       0       0       0       0       0       0       0       0       0       0
       0       0       0       0       0       0       0       0       0       0
       0       0       0       0       0       0       0       0       0       0
       0       0       0       0       0       0       0       0       0       0
       0       0       0       0       0       0       0       0       0       0
       0       0       0       0       0       0       0       0       0       0
       0       0       0       0       0       0       0       0       0       0
       0       0       0       0       0       0       0       0       0       0
       0       0       0       0       0       0       0       0       0       0
       0       0       0       0       0       0       0       0       0       0
       0       0       0       0       0       0       0       0       0       0
       0       0       0       0       0       0       0       0       0       0
       0       0       0       0       0       0       0       0       0       0
       0       0       0       0       0       0       0       0       0       0
       0       0       0       0       0       0       0       0       0       0
       0       0       0       0       0       0       0       0       0       0
       0       0       0       0       0       0       0       0       0       0
       0       0       0       0       0       0       0       0       0       0
       0       0       0       0       0       0       0       0       0       0
       0       0       0       0       0       0       0       0       0       0
       0       0       0       0       0       0       0       0       0       0
       0       0       0       0       0       0       0       0       0       0
       0       0       0       0       0       0       0       0       0       0
       0       0       0       0       0       0       0       0       0       0
       0       0       0       0       0       0       0       0       0       0
       0       0       0       0       0       0       0       0       0       0
       0       0       0       0       0       0       0       0       0       0
       0       0       0       0       0       0       0       0       0       0
       0       0       0       0       0       0       0       0       0       0
       0       0       0       0       0       0       0       0       0       0
       0       0       0       0       0       0       0       0       0       0
       0       0       0       0       0       0       0       0       0       0
       0       0       0       0       0       0       0       0       0       0
       0       0       0       0       0       0       0       0       0       0
       0       0       0       0       0       0       0       0       0       0
       0       0       0       0       0       0       0       0       0       0
       0       0       0       0       0       0       0       0       0       0
       0       0       0       0       0       0       0       0       0       0
       0       0       0       0       0       0       0       0       0       0
       0       0       0       0       0       0       0       0       0       0
       0       0       0       0       0       0       0       0       0       0
       0       0       0       0       0       0       0       0       0       0
       0       0       0       0       0       0       0       0       0       0
       0       0       0       0       0       0       0       0       0       0
       0       0       0       0       0       0       0       0       0       0
       0       0       0       0       0       0       0       0       0       0
       0       0       0       0       0       0       0       0       0       0
       0       0       0       0       0       0       0       0       0       0
       0       0       0       0       0       0       0       0       0       0
       0       0       0       0       0       0       0       0       0       0
       0       0       0       0       0       0       0       0       0       0
       0       0       0       0       0       0       0       0       0       0
       0       0       0       0       0       0       0       0       0       0
       0       0       0       0       0       0       0       0       0       0
       0       0       0       0       0       0       0       0       0       0
       0       0       0       0       0       0       0       0       0       0
       0       0       0       0       0       0       0       0       0       0
       0       0       0       0       0       0       0       0       0       0
       0       0       0       0       0       0       0       0       0       0
       0       0       0       0       0       0       0       0       0       0
       0       0       0       0       0       0       0       0       0       0
       0       0       0       0       0       0       0       0       0       0
       0       0       0       0       0       0       0       0       0       0
       0       0       0       0       0       0       0       0       0       0
       0       0       0       0       0       0       0       0       0       0
       0       0       0       0       0       0       0       0       0       0
       0       0       0       0       0       0       0       0       0       0
       0       0       0       0       0       0       0       0       0       0
       0       0       0       0       0       0       0       0       0       0
       0       0       0       0       0       0       0       0       0       0
       0       0       0       0       0       0       0       0       0       0
       0       0       0       0       0       0       0       0       0       0
       0       0       0       0       0       0       0       0       0       0
       0       0       0       0       0       0       0       0       0       0
       0       0       0       0       0       0       0       0       0       0
       0       0       0       0       0       0       0       0       0       0
       0       0       0       0       0       0       0       0       0       0
       0       0       0       0       0       0       0       0       0       0
       0       0       0       0       0       0       0       0       0       0
       0       0       0       0       0       0       0       0       0       0
       0       0       0       0       0       0       0       0       0       0
       0       0       0       0       0       0       0       0       0       0
       0       0       0       0       0       0       0       0       0       0
       0       0       0       0       0       0       0       0       0       0
       0       0       0       0       0       0       0       0       0       0
       0       0       0       0       0       0       0       0       0       0
       0       0       0       0       0       0       0       0       0       0
       0       0       0       0       0       0       0       0       0       0
       0       0       0       0       0       0       0       0       0       0
       0       0       0       0       0       0       0       0       0       0
       0       0       0       0       0       0       0       0       0       0
       0       0       0       0       0       0       0       0       0       0
       0       0       0       0       0       0       0       0       0       0
       0       0       0       0       0       0       0       0       0       0
       0       0       0       0       0       0       0       0       0       0
       0       0       0       0       0       0       0       0       0       0
       0       0       0       0       0       0       0       0       0       0
       0       0       0       0       0       0       0       0       0       0
       0       0       0       0       0       0       0       0       0       0
       0       0       0       0       0       0       0       0       0       0
       0       0       0       0       0       0       0       0       0       0
       0       0       0       0       0       0       0       0       0       0
       0       0       0       0       0       0       0       0       0       0
       0       0       0       0       0       0       0       0       0       0
       0       0       0       0       0       0       0       0       0       0
       0       0       0       0       0       0       0       0       0       0
       0       0       0       0       0       0       0       0       0       0
       0       0       0       0       0       0       0       0       0       0
       0       0       0       0       0       0       0       0       0       0
       0       0       0       0       0       0       0       0       0       0
       0       0       0       0       0       0       0       0       0       0
       0       0       0       0       0       0       0       0       0       0
       0       0       0       0       0       0       0       0       0       0
       0       0       0       0       0       0       0       0       0       0
       0       0       0       0       0       0       0       0       0       0
       0       0       0       0       0       0       0       0       0       0
       0       0       0       0       0       0       0       0       0       0
       0       0       0       0       0       0       0       0       0       0
       0       0       0       0       0       0       0       0       0       0
       0       0       0       0       0       0       0       0       0       0
       0       0       0       0       0       0       0       0       0       0
       0       0       0       0       0       0       0       0       0       0
       0       0       0       0       0       0       0       0       0       0
       0       0       0       0       0       0       0       0       0       0
       0       0       0       0       0       0       0       0       0       0
       0       0       0       0       0       0       0       0       0       0
       0       0       0       0       0       0       0       0       0       0
       0       0       0       0       0       0       0       0       0       0
       0       0       0       0       0       0       0       0       0       0
       0       0       0       0       0       0       0       0       0       0
       0       0       0       0       0       0       0       0       0       0
       0       0       0       0       0       0       0       0       0       0
       0       0       0       0       0       0       0       0       0       0
       0       0       0       0       0       0       0       0       0       0
       0       0       0       0       0       0       0       0       0       0
       0       0       0       0       0       0       0       0       0       0
       0       0       0       0       0       0       0       0       0       0
       0       0       0       0       0       0       0       0       0       0
       0       0       0       0       0       0       0       0       0       0
       0       0       0       0       0       0       0       0       0       0
       0       0       0       0       0       0       0       0       0       0
       0       0       0       0       0       0       0       0       0       0
       0       0       0       0       0       0       0       0       0       0
       0       0       0       0       0       0       0       0       0       0
       0       0       0       0       0       0       0       0       0       0
       0       0       0       0       0       0       0       0       0       0
       0       0       0       0       0       0       0       0       0       0
       0       0       0       0       0       0       0       0       0       0
       0       0       0       0       0       0       0       0       0       0
       0       0       0       0       0       0       0       0       0       0
       0       0       0       0       0       0       0       0       0       0
       0       0       0       0       0       0       0       0       0       0
       0       0       0       0       0       0       0       0       0       0
       0       0       0       0       0       0       0       0       0       0
       0       0       0       0       0       0       0       0       0       0
       0       0       0       0       0       0       0       0       0       0
       0       0       0       0       0       0       0       0       0       0
       0       0       0       0       0       0       0       0       0       0
       0       0       0       0       0       0       0       0       0       0
       0       0       0       0       0       0       0       0       0       0
       0       0       0       0       0       0       0       0       0       0
       0       0       0       0       0       0       0       0       0       0
       0       0       0       0       0       0       0       0       0       0
       0       0       0       0       0       0       0       0       0       0
       0       0       0       0       0       0       0       0       0       0
       0       0       0       0       0       0       0       0       0       0
       0       0       0       0       0       0       0       0       0       0
       0       0       0       0       0       0       0       0       0       0
       0       0       0       0       0       0       0       0       0       0
       0       0       0       0       0       0       0       0       0       0
       0       0       0       0       0       0       0       0       0       0
       0       0       0       0       0       0       0       0       0       0
       0       0       0       0       0       0       0       0       0       0
       0       0       0       0       0       0       0       0       0       0
       0       0       0       0       0       0       0       0       0       0
       0       0       0       0       0       0       0       0       0       0
       0       0       0       0       0       0       0       0       0       0
       0       0       0       0       0       0       0       0       0       0
       0       0       0       0       0       0       0       0       0       0
       0       0       0       0       0       0       0       0       0       0
       0       0       0       0       0       0       0       0       0       0
       0       0       0       0       0       0       0       0       0       0
       0       0       0       0       0       0       0       0       0       0
       0       0       0       0       0       0       0       0       0       0
       0       0       0       0       0       0       0       0       0       0
       0       0       0       0       0       0       0       0       0       0
       0       0       0       0       0       0       0       0       0       0
       0       0       0       0       0       0       0       0       0       0
       0       0       0       0       0       0       0       0       0       0
       0       0       0       0       0       0       0       0       0       0
       0       0       0       0       0       0       0       0       0       0
       0       0       0       0       0       0       0       0       0       0
       0       0       0       0       0       0       0       0       0       0
       0       0       0       0       0       0       0       0       0       0
       0       0       0       0       0       0       0       0       0       0
       0       0       0       0       0       0       0       0       0       0
       0       0       0       0       0       0       0       0       0       0
       0       0       0       0       0       0       0       0       0       0
       0       0       0       0       0       0       0       0       0       0
       0       0       0       0       0       0       0       0       0       0
       0       0       0       0       0       0       0       0       0       0
       0       0       0       0       0       0       0       0       0       0
       0       0       0       0       0       0       0       0       0       0
       0       0       0       0       0       0       0       0       0       0
       0       0       0       0       0       0       0       0       0       0
       0       0       0       0       0       0       0       0       0       0
       0       0       0       0       0       0       0       0       0       0
       0       0       0       0       0       0       0       0       0       0
       0       0       0       0       0       0       0       0       0       0
       0       0       0       0       0       0       0       0       0       0
       0       0       0       0       0       0       0       0       0       0
       0       0       0       0       0       0       0       0       0       0
       0       0       0       0       0       0       0       0       0       0
       0       0       0       0       0       0       0       0       0       0
       0       0       0       0       0       0       0       0       0       0
       0       0       0       0       0       0       0       0       0       0
       0       0       0       0       0       0       0       0       0       0
       0       0       0       0       0       0       0       0       0       0
       0       0       0       0       0       0       0       0       0       0
       0       0       0       0       0       0       0       0       0       0
       0       0       0       0       0       0       0       0       0       0
       0       0       0       0       0       0       0       0       0       0
       0       0       0       0       0       0       0       0       0       0
       0       0       0       0       0       0       0       0       0       0
       0       0       0       0       0       0       0       0       0       0
       0       0       0       0       0       0       0       0       0       0
       0       0       0       0       0       0       0       0       0       0
       0       0       0       0       0       0       0       0       0       0
       0       0       0       0       0       0       0       0       0       0
       0       0       0       0       0       0       0       0       0       0
       0       0       0       0       0       0       0       0       0       0
       0       0       0       0       0       0       0       0       0       0
       0       0       0       0       0       0       0       0       0       0
       0       0       0       0       0       0       0       0       0       0
       0       0       0       0       0       0       0       0       0       0
       0       0       0       0       0       0       0       0       0       0
       0       0       0       0       0       0       0       0       0       0
       0       0       0       0       0       0       0       0       0       0
       0       0       0       0       0       0       0       0       0       0
       0       0       0       0       0       0       0       0       0       0
       0       0       0       0       0       0       0       0       0       0
       0       0       0       0       0       0       0       0       0       0
       0       0       0       0       0       0       0       0       0       0
       0       0       0       0       0       0       0       0       0       0
       0       0       0       0       0       0       0       0       0       0
       0       0       0       0       0       0       0       0       0       0
       0       0       0       0       0       0       0       0       0       0
       0       0       0       0       0       0       0       0       0       0
       0       0       0       0       0       0       0       0       0       0
       0       0       0       0       0       0       0       0       0       0
       0       0       0       0       0       0       0       0       0       0
       0       0       0       0       0       0       0       0       0       0
       0       0       0       0       0       0       0       0       0       0
       0       0       0       0       0       0       0       0       0       0
       0       0       0       0       0       0       0       0       0       0
       0       0       0       0       0       0       0       0       0       0
       0       0       0       0       0       0       0       0       0       0
       0       0       0       0       0       0       0       0       0       0
       0       0       0       0       0       0       0       0       0       0
       0       0       0       0       0       0       0       0       0       0
       0       0       0       0       0       0       0       0       0       0
       0       0       0       0       0       0       0       0       0       0
       0       0       0       0       0       0       0       0       0       0
       0       0       0       0       0       0       0       0       0       0
       0       0       0       0       0       0       0       0       0       0
       0       0       0       0       0       0       0       0       0       0
       0       0       0       0       0       0       0       0       0       0
       0       0       0       0       0       0       0       0       0       0
       0       0       0       0       0       0       0       0       0       0
       0       0       0       0       0       0       0       0       0       0
       0       0       0       0       0       0       0       0       0       0
       0       0       0       0       0       0       0       0       0       0
       0       0       0       0       0       0       0       0       0       0
       0       0       0       0       0       0       0       0       0       0
       0       0       0       0       0       0       0       0       0       0
       0       0       0       0       0       0       0       0       0       0
       0       0       0       0       0       0       0       0       0       0
       0       0       0       0       0       0       0       0       0       0
       0       0       0       0       0       0       0       0       0       0
       0       0       0       0       0       0       0       0       0       0
       0       0       0       0       0       0       0       0       0       0
       0       0       0       0       0       0       0       0       0       0
       0       0       0       0       0       0       0       0       0       0
       0       0       0       0       0       0       0       0       0       0
       0       0       0       0       0       0       0       0       0       0
       0       0       0       0       0       0       0       0       0       0
       0       0       0       0       0       0       0       0       0       0
       0       0       0       0       0       0       0       0       0       0
       0       0       0       0       0       0       0       0       0       0
       0       0       0       0       0       0       0       0       0       0
       0       0       0       0       0       0       0       0       0       0
       0       0       0       0       0       0       0       0       0       0
       0       0       0       0       0       0       0       0       0       0
       0       0       0       0       0       0       0       0       0       0
       0       0       0       0       0       0       0       0       0       0
       0       0       0       0       0       0       0       0       0       0
       0       0       0       0       0       0       0       0       0       0
       0       0       0       0       0       0       0       0       0       0
       0       0       0       0       0       0       0       0       0       0
       0       0       0       0       0       0       0       0       0       0
       0       0       0       0       0       0       0       0       0       0
       0       0       0       0       0       0       0       0       0       0
       0       0       0       0       0       0       0       0       0       0
       0       0       0       0       0       0       0       0       0       0
       0       0       0       0       0       0       0       0       0       0
       0       0       0       0       0       0       0       0       0       0
       0       0       0       0       0       0       0       0       0       0
       0       0       0       0       0       0       0       0       0       0
       0       0       0       0       0       0       0       0       0       0
       0       0       0       0       0       0       0       0       0       0
       0       0       0       0       0       0       0       0       0       0
       0       0       0       0       0       0       0       0       0       0
       0       0       0       0       0       0       0       0       0       0
       0       0       0       0       0       0       0       0       0       0
       0       0       0       0       0       0       0       0       0       0
       0       0       0       0       0       0       0       0       0       0
       0       0       0       0       0       0       0       0       0       0
       0       0       0       0       0       0       0       0       0       0
       0       0       0       0       0       0       0       0       0       0
       0       0       0       0       0       0       0       0       0       0
       0       0       0       0       0       0       0       0       0       0
       0       0       0       0       0       0       0       0       0       0
       0       0       0       0       0       0       0       0       0       0
       0       0       0       0       0       0       0       0       0       0
       0       0       0       0       0       0       0       0       0       0
       0       0       0       0       0       0       0       0       0       0
       0       0       0       0       0       0       0       0       0       0
       0       0       0       0       0       0       0       0       0       0
       0       0       0       0       0       0       0       0       0       0
       0       0       0       0       0       0       0       0       0       0
       0       0       0       0       0       0       0       0       0       0
       0       0       0       0       0       0       0       0       0       0
       0       0       0       0       0       0       0       0       0       0
       0       0       0       0       0       0       0       0       0       0
       0       0       0       0       0       0       0       0       0       0
       0       0       0       0       0       0       0       0       0       0
       0       0       0       0       0       0       0       0       0       0
       0       0       0       0       0       0       0       0       0       0
       0       0       0       0       0       0       0       0       0       0
       0       0       0       0       0       0       0       0       0       0
       0       0       0       0       0       0       0       0       0       0
       0       0       0       0       0       0       0       0       0       0
       0       0       0       0       0       0       0       0       0       0
       0       0       0       0       0       0       0       0       0       0
       0       0       0       0       0       0       0       0       0       0
       0       0       0       0       0       0       0       0       0       0
       0       0       0       0       0       0       0       0       0       0
       0       0       0       0       0       0       0       0       0       0
       0       0       0       0       0       0       0       0       0       0
       0       0       0       0       0       0       0       0       0       0
       0       0       0       0       0       0       0       0       0       0
       0       0       0       0       0       0       0       0       0       0
       0       0       0       0       0       0       0       0       0       0
       0       0       0       0       0       0       0       0       0       0
       0       0       0       0       0       0       0       0       0       0
       0       0       0       0       0       0       0       0       0       0
       0       0       0       0       0       0       0       0       0       0
       0       0       0       0       0       0       0       0       0       0
       0       0       0       0       0       0       0       0       0       0
       0       0       0       0       0       0       0       0       0       0
       0       0       0       0       0       0       0       0       0       0
       0       0       0       0       0       0       0       0       0       0
       0       0       0       0       0       0       0       0       0       0
       0       0       0       0       0       0       0       0       0       0
       0       0       0       0       0       0       0       0       0       0
       0       0       0       0       0       0       0       0       0       0
       0       0       0       0       0       0       0       0       0       0
       0       0       0       0       0       0       0       0       0       0
       0       0       0       0       0       0       0       0       0       0
       0       0       0       0       0       0       0       0       0       0
       0       0       0       0       0       0       0       0       0       0
       0       0       0       0       0       0       0       0       0       0
       0       0       0       0       0       0       0       0       0       0
       0       0       0       0       0       0       0       0       0       0
       0       0       0       0       0       0       0       0       0       0
       0       0       0       0       0       0       0       0       0       0
       0       0       0       0       0       0       0       0       0       0
       0       0       0       0       0       0       0       0       0       0
       0       0       0       0       0       0       0       0       0       0
       0       0       0       0       0       0       0       0       0       0
       0       0       0       0       0       0       0       0       0       0
       0       0       0       0       0       0       0       0       0       0
       0       0       0       0       0       0       0       0       0       0
       0       0       0       0       0       0       0       0       0       0
       0       0       0       0       0       0       0       0       0       0
       0       0       0       0       0       0       0       0       0       0
       0       0       0       0       0       0       0       0       0       0
       0       0       0       0       0       0       0       0       0       0
       0       0       0       0       0       0       0       0       0       0
       0       0       0       0       0       0       0       0       0       0
       0       0       0       0       0       0       0       0       0       0
       0       0       0       0       0       0       0       0       0       0
       0       0       0       0       0       0       0       0       0       0
       0       0       0       0       0       0       0       0       0       0
       0       0       0       0       0       0       0       0       0       0
       0       0       0       0       0       0       0       0       0       0
       0       0       0       0       0       0       0       0       0       0
       0       0       0       0       0       0       0       0       0       0
       0       0       0       0       0       0       0       0       0       0
       0       0       0       0       0       0       0       0       0       0
       0       0       0       0       0       0       0       0       0       0
       0       0       0       0       0       0       0       0       0       0
       0       0       0       0       0       0       0       0       0       0
       0       0       0       0       0       0       0       0       0       0
       0       0       0       0       0       0       0       0       0       0
       0       0       0       0       0       0       0       0       0       0
       0       0       0       0       0       0       0       0       0       0
       0       0       0       0       0       0       0       0       0       0
       0       0       0       0       0       0       0       0       0       0
       0       0       0       0       0       0       0       0       0       0
       0       0       0       0       0       0       0       0       0       0
       0       0       0       0       0       0       0       0       0       0
       0       0       0       0       0       0       0       0       0       0
       0       0       0       0       0       0       0       0       0       0
       0       0       0       0       0       0       0       0       0       0
       0       0       0       0       0       0       0       0       0       0
       0       0       0       0       0       0       0       0       0       0
       0       0       0       0       0       0       0       0       0       0
       0       0       0       0       0       0       0       0       0       0
       0       0       0       0       0       0       0       0       0       0
       0       0       0       0       0       0       0       0       0       0
       0       0       0       0       0       0       0       0       0       0
       0       0       0       0       0       0       0       0       0       0
       0       0       0       0       0       0       0       0       0       0
       0       0       0       0       0       0       0       0       0       0
       0       0       0       0       0       0       0       0       0       0
       0       0       0       0       0       0       0       0       0       0
       0       0       0       0       0       0       0       0       0       0
       0       0       0       0       0       0       0       0       0       0
       0       0       0       0       0       0       0       0       0       0
       0       0       0       0       0       0       0       0       0       0
       0       0       0       0       0       0       0       0       0       0
       0       0       0       0       0       0       0       0       0       0
       0       0       0       0       0       0       0       0       0       0
       0       0       0       0       0       0       0       0       0       0
       0       0       0       0       0       0       0       0       0       0
       0       0       0       0       0       0       0       0       0       0
       0       0       0       0       0       0       0       0       0       0
       0       0       0       0       0       0       0       0       0       0
       0       0       0       0       0       0       0       0       0       0
       0       0       0       0       0       0       0       0       0       0
       0       0       0       0       0       0       0       0       0       0
       0       0       0       0       0       0       0       0       0       0
       0       0       0       0       0       0       0       0       0       0
       0       0       0       0       0       0       0       0       0       0
       0       0       0       0       0       0       0       0       0       0
       0       0       0       0       0       0       0       0       0       0
       0       0       0       0       0       0       0       0       0       0
       0       0       0       0       0       0       0       0       0       0
       0       0       0       0       0       0       0       0       0       0
       0       0       0       0       0       0       0       0       0       0
       0       0       0       0       0       0       0       0       0       0
       0       0       0       0       0       0       0       0       0       0
       0       0       0       0       0       0       0       0       0       0
       0       0       0       0       0       0       0       0       0       0
       0       0       0       0       0       0       0       0       0       0
       0       0       0       0       0       0       0       0       0       0
       0       0       0       0       0       0       0       0       0       0
       0       0       0       0       0       0       0       0       0       0
       0       0       0       0       0       0       0       0       0       0
       0       0       0       0       0       0       0       0       0       0
       0       0       0       0       0       0       0       0       0       0
       0       0       0       0       0       0       0       0       0       0
       0       0       0       0       0       0       0       0       0       0
       0       0       0       0       0       0       0       0       0       0
       0       0       0       0       0       0       0       0       0       0
       0       0       0       0       0       0       0       0       0       0
       0       0       0       0       0       0       0       0       0       0
       0       0       0       0       0       0       0       0       0       0
       0       0       0       0       0       0       0       0       0       0
       0       0       0       0       0       0       0       0       0       0
       0       0       0       0       0       0       0       0       0       0
       0       0       0       0       0       0       0       0       0       0
       0       0       0       0       0       0       0       0       0       0
       0       0       0       0       0       0       0       0       0       0
       0       0       0       0       0       0       0       0       0       0
       0       0       0       0       0       0       0       0       0       0
       0       0       0       0       0       0       0       0       0
%FLAG IROTAT                                                                    
%FORMAT(10I8)                                                                   
       0       0       0       0       0       0       0       0       0       0
       0       0       0       0       0       0       0       0       0       0
       0       0       0       0       0       0       0       0       0       0
       0       0       0       0       0       0       0       0       0       0
       0       0       0       0       0       0       0       0       0       0
       0       0       0       0       0       0       0       0       0       0
       0       0       0       0       0       0       0       0       0       0
       0       0       0       0       0       0       0       0       0       0
       0       0       0       0       0       0       0       0       0       0
       0       0       0       0       0       0       0       0       0       0
       0       0       0       0       0       0       0       0       0       0
       0       0       0       0       0       0       0       0       0       0
       0       0       0       0       0       0       0       0       0       0
       0       0       0       0       0       0       0       0       0       0
       0       0       0       0       0       0       0       0       0       0
       0       0       0       0       0       0       0       0       0       0
       0       0       0       0       0       0       0       0       0       0
       0       0       0       0       0       0       0       0       0       0
       0       0       0       0       0       0       0       0       0       0
       0       0       0       0       0       0       0       0       0       0
       0       0       0       0       0       0       0       0       0       0
       0       0       0       0       0       0       0       0       0       0
       0       0       0       0       0       0       0       0       0       0
       0       0       0       0       0       0       0       0       0       0
       0       0       0       0       0       0       0       0       0       0
       0       0       0       0       0       0       0       0       0       0
       0       0       0       0       0       0       0       0       0       0
       0       0       0       0       0       0       0       0       0       0
       0       0       0       0       0       0       0       0       0       0
       0       0       0       0       0       0       0       0       0       0
       0       0       0       0       0       0       0       0       0       0
       0       0       0       0       0       0       0       0       0       0
       0       0       0       0       0       0       0       0       0       0
       0       0       0       0       0       0       0       0       0       0
       0       0       0       0       0       0       0       0       0       0
       0       0       0       0       0       0       0       0       0       0
       0       0       0       0       0       0       0       0       0       0
       0       0       0       0       0       0       0       0       0       0
       0       0       0       0       0       0       0       0       0       0
       0       0       0       0       0       0       0       0       0       0
       0       0       0       0       0       0       0       0       0       0
       0       0       0       0       0       0       0       0       0       0
       0       0       0       0       0       0       0       0       0       0
       0       0       0       0       0       0       0       0       0       0
       0       0       0       0       0       0       0       0       0       0
       0       0       0       0       0       0       0       0       0       0
       0       0       0       0       0       0       0       0       0       0
       0       0       0       0       0       0       0       0       0       0
       0       0       0       0       0       0       0       0       0       0
       0       0       0       0       0       0       0       0       0       0
       0       0       0       0       0       0       0       0       0       0
       0       0       0       0       0       0       0       0       0       0
       0       0       0       0       0       0       0       0       0       0
       0       0       0       0       0       0       0       0       0       0
       0       0       0       0       0       0       0       0       0       0
       0       0       0       0       0       0       0       0       0       0
       0       0       0       0       0       0       0       0       0       0
       0       0       0       0       0       0       0       0       0       0
       0       0       0       0       0       0       0       0       0       0
       0       0       0       0       0       0       0       0       0       0
       0       0       0       0       0       0       0       0       0       0
       0       0       0       0       0       0       0       0       0       0
       0       0       0       0       0       0       0       0       0       0
       0       0       0       0       0       0       0       0       0       0
       0       0       0       0       0       0       0       0       0       0
       0       0       0       0       0       0       0       0       0       0
       0       0       0       0       0       0       0       0       0       0
       0       0       0       0       0       0       0       0       0       0
       0       0       0       0       0       0       0       0       0       0
       0       0       0       0       0       0       0       0       0       0
       0       0       0       0       0       0       0       0       0       0
       0       0       0       0       0       0       0       0       0       0
       0       0       0       0       0       0       0       0       0       0
       0       0       0       0       0       0       0       0       0       0
       0       0       0       0       0       0       0       0       0       0
       0       0       0       0       0       0       0       0       0       0
       0       0       0       0       0       0       0       0       0       0
       0       0       0       0       0       0       0       0       0       0
       0       0       0       0       0       0       0       0       0       0
       0       0       0       0       0       0       0       0       0       0
       0       0       0       0       0       0       0       0       0       0
       0       0       0       0       0       0       0       0       0       0
       0       0       0       0       0       0       0       0       0       0
       0       0       0       0       0       0       0       0       0       0
       0       0       0       0       0       0       0       0       0       0
       0       0       0       0       0       0       0       0       0       0
       0       0       0       0       0       0       0       0       0       0
       0       0       0       0       0       0       0       0       0       0
       0       0       0       0       0       0       0       0       0       0
       0       0       0       0       0       0       0       0       0       0
       0       0       0       0       0       0       0       0       0       0
       0       0       0       0       0       0       0       0       0       0
       0       0       0       0       0       0       0       0       0       0
       0       0       0       0       0       0       0       0       0       0
       0       0       0       0       0       0       0       0       0       0
       0       0       0       0       0       0       0       0       0       0
       0       0       0       0       0       0       0       0       0       0
       0       0       0       0       0       0       0       0       0       0
       0       0       0       0       0       0       0       0       0       0
       0       0       0       0       0       0       0       0       0       0
       0       0       0       0       0       0       0       0       0       0
       0       0       0       0       0       0       0       0       0       0
       0       0       0       0       0       0       0       0       0       0
       0       0       0       0       0       0       0       0       0       0
       0       0       0       0       0       0       0       0       0       0
       0       0       0       0       0       0       0       0       0       0
       0       0       0       0       0       0       0       0       0       0
       0       0       0       0       0       0       0       0       0       0
       0       0       0       0       0       0       0       0       0       0
       0       0       0       0       0       0       0       0       0       0
       0       0       0       0       0       0       0       0       0       0
       0       0       0       0       0       0       0       0       0       0
       0       0       0       0       0       0       0       0       0       0
       0       0       0       0       0       0       0       0       0       0
       0       0       0       0       0       0       0       0       0       0
       0       0       0       0       0       0       0       0       0       0
       0       0       0       0       0       0       0       0       0       0
       0       0       0       0       0       0       0       0       0       0
       0       0       0       0       0       0       0       0       0       0
       0       0       0       0       0       0       0       0       0       0
       0       0       0       0       0       0       0       0       0       0
       0       0       0       0       0       0       0       0       0       0
       0       0       0       0       0       0       0       0       0       0
       0       0       0       0       0       0       0       0       0       0
       0       0       0       0       0       0       0       0       0       0
       0       0       0       0       0       0       0       0       0       0
       0       0       0       0       0       0       0       0       0       0
       0       0       0       0       0       0       0       0       0       0
       0       0       0       0       0       0       0       0       0       0
       0       0       0       0       0       0       0       0       0       0
       0       0       0       0       0       0       0       0       0       0
       0       0       0       0       0       0       0       0       0       0
       0       0       0       0       0       0       0       0       0       0
       0       0       0       0       0       0       0       0       0       0
       0       0       0       0       0       0       0       0       0       0
       0       0       0       0       0       0       0       0       0       0
       0       0       0       0       0       0       0       0       0       0
       0       0       0       0       0       0       0       0       0       0
       0       0       0       0       0       0       0       0       0       0
       0       0       0       0       0       0       0       0       0       0
       0       0       0       0       0       0       0       0       0       0
       0       0       0       0       0       0       0       0       0       0
       0       0       0       0       0       0       0       0       0       0
       0       0       0       0       0       0       0       0       0       0
       0       0       0       0       0       0       0       0       0       0
       0       0       0       0       0       0       0       0       0       0
       0       0       0       0       0       0       0       0       0       0
       0       0       0       0       0       0       0       0       0       0
       0       0       0       0       0       0       0       0       0       0
       0       0       0       0       0       0       0       0       0       0
       0       0       0       0       0       0       0       0       0       0
       0       0       0       0       0       0       0       0       0       0
       0       0       0       0       0       0       0       0       0       0
       0       0       0       0       0       0       0       0       0       0
       0       0       0       0       0       0       0       0       0       0
       0       0       0       0       0       0       0       0       0       0
       0       0       0       0       0       0       0       0       0       0
       0       0       0       0       0       0       0       0       0       0
       0       0       0       0       0       0       0       0       0       0
       0       0       0       0       0       0       0       0       0       0
       0       0       0       0       0       0       0       0       0       0
       0       0       0       0       0       0       0       0       0       0
       0       0       0       0       0       0       0       0       0       0
       0       0       0       0       0       0       0       0       0       0
       0       0       0       0       0       0       0       0       0       0
       0       0       0       0       0       0       0       0       0       0
       0       0       0       0       0       0       0       0       0       0
       0       0       0       0       0       0       0       0       0       0
       0       0       0       0       0       0       0       0       0       0
       0       0       0       0       0       0       0       0       0       0
       0       0       0       0       0       0       0       0       0       0
       0       0       0       0       0       0       0       0       0       0
       0       0       0       0       0       0       0       0       0       0
       0       0       0       0       0       0       0       0       0       0
       0       0       0       0       0       0       0       0       0       0
       0       0       0       0       0       0       0       0       0       0
       0       0       0       0       0       0       0       0       0       0
       0       0       0       0       0       0       0       0       0       0
       0       0       0       0       0       0       0       0       0       0
       0       0       0       0       0       0       0       0       0       0
       0       0       0       0       0       0       0       0       0       0
       0       0       0       0       0       0       0       0       0       0
       0       0       0       0       0       0       0       0       0       0
       0       0       0       0       0       0       0       0       0       0
       0       0       0       0       0       0       0       0       0       0
       0       0       0       0       0       0       0       0       0       0
       0       0       0       0       0       0       0       0       0       0
       0       0       0       0       0       0       0       0       0       0
       0       0       0       0       0       0       0       0       0       0
       0       0       0       0       0       0       0       0       0       0
       0       0       0       0       0       0       0       0       0       0
       0       0       0       0       0       0       0       0       0       0
       0       0       0       0       0       0       0       0       0       0
       0       0       0       0       0       0       0       0       0       0
       0       0       0       0       0       0       0       0       0       0
       0       0       0       0       0       0       0       0       0       0
       0       0       0       0       0       0       0       0       0       0
       0       0       0       0       0       0       0       0       0       0
       0       0       0       0       0       0       0       0       0       0
       0       0       0       0       0       0       0       0       0       0
       0       0       0       0       0       0       0       0       0       0
       0       0       0       0       0       0       0       0       0       0
       0       0       0       0       0       0       0       0       0       0
       0       0       0       0       0       0       0       0       0       0
       0       0       0       0       0       0       0       0       0       0
       0       0       0       0       0       0       0       0       0       0
       0       0       0       0       0       0       0       0       0       0
       0       0       0       0       0       0       0       0       0       0
       0       0       0       0       0       0       0       0       0       0
       0       0       0       0       0       0       0       0       0       0
       0       0       0       0       0       0       0       0       0       0
       0       0       0       0       0       0       0       0       0       0
       0       0       0       0       0       0       0       0       0       0
       0       0       0       0       0       0       0       0       0       0
       0       0       0       0       0       0       0       0       0       0
       0       0       0       0       0       0       0       0       0       0
       0       0       0       0       0       0       0       0       0       0
       0       0       0       0       0       0       0       0       0       0
       0       0       0       0       0       0       0       0       0       0
       0       0       0       0       0       0       0       0       0       0
       0       0       0       0       0       0       0       0       0       0
       0       0       0       0       0       0       0       0       0       0
       0       0       0       0       0       0       0       0       0       0
       0       0       0       0       0       0       0       0       0       0
       0       0       0       0       0       0       0       0       0       0
       0       0       0       0       0       0       0       0       0       0
       0       0       0       0       0       0       0       0       0       0
       0       0       0       0       0       0       0       0       0       0
       0       0       0       0       0       0       0       0       0       0
       0       0       0       0       0       0       0       0       0       0
       0       0       0       0       0       0       0       0       0       0
       0       0       0       0       0       0       0       0       0       0
       0       0       0       0       0       0       0       0       0       0
       0       0       0       0       0       0       0       0       0       0
       0       0       0       0       0       0       0       0       0       0
       0       0       0       0       0       0       0       0       0       0
       0       0       0       0       0       0       0       0       0       0
       0       0       0       0       0       0       0       0       0       0
       0       0       0       0       0       0       0       0       0       0
       0       0       0       0       0       0       0       0       0       0
       0       0       0       0       0       0       0       0       0       0
       0       0       0       0       0       0       0       0       0       0
       0       0       0       0       0       0       0       0       0       0
       0       0       0       0       0       0       0       0       0       0
       0       0       0       0       0       0       0       0       0       0
       0       0       0       0       0       0       0       0       0       0
       0       0       0       0       0       0       0       0       0       0
       0       0       0       0       0       0       0       0       0       0
       0       0       0       0       0       0       0       0       0       0
       0       0       0       0       0       0       0       0       0       0
       0       0       0       0       0       0       0       0       0       0
       0       0       0       0       0       0       0       0       0       0
       0       0       0       0       0       0       0       0       0       0
       0       0       0       0       0       0       0       0       0       0
       0       0       0       0       0       0       0       0       0       0
       0       0       0       0       0       0       0       0       0       0
       0       0       0       0       0       0       0       0       0       0
       0       0       0       0       0       0       0       0       0       0
       0       0       0       0       0       0       0       0       0       0
       0       0       0       0       0       0       0       0       0       0
       0       0       0       0       0       0       0       0       0       0
       0       0       0       0       0       0       0       0       0       0
       0       0       0       0       0       0       0       0       0       0
       0       0       0       0       0       0       0       0       0       0
       0       0       0       0       0       0       0       0       0       0
       0       0       0       0       0       0       0       0       0       0
       0       0       0       0       0       0       0       0       0       0
       0       0       0       0       0       0       0       0       0       0
       0       0       0       0       0       0       0       0       0       0
       0       0       0       0       0       0       0       0       0       0
       0       0       0       0       0       0       0       0       0       0
       0       0       0       0       0       0       0       0       0       0
       0       0       0       0       0       0       0       0       0       0
       0       0       0       0       0       0       0       0       0       0
       0       0       0       0       0       0       0       0       0       0
       0       0       0       0       0       0       0       0       0       0
       0       0       0       0       0       0       0       0       0       0
       0       0       0       0       0       0       0       0       0       0
       0       0       0       0       0       0       0       0       0       0
       0       0       0       0       0       0       0       0       0       0
       0       0       0       0       0       0       0       0       0       0
       0       0       0       0       0       0       0       0       0       0
       0       0       0       0       0       0       0       0       0       0
       0       0       0       0       0       0       0       0       0       0
       0       0       0       0       0       0       0       0       0       0
       0       0       0       0       0       0       0       0       0       0
       0       0       0       0       0       0       0       0       0       0
       0       0       0       0       0       0       0       0       0       0
       0       0       0       0       0       0       0       0       0       0
       0       0       0       0       0       0       0       0       0       0
       0       0       0       0       0       0       0       0       0       0
       0       0       0       0       0       0       0       0       0       0
       0       0       0       0       0       0       0       0       0       0
       0       0       0       0       0       0       0       0       0       0
       0       0       0       0       0       0       0       0       0       0
       0       0       0       0       0       0       0       0       0       0
       0       0       0       0       0       0       0       0       0       0
       0       0       0       0       0       0       0       0       0       0
       0       0       0       0       0       0       0       0       0       0
       0       0       0       0       0       0       0       0       0       0
       0       0       0       0       0       0       0       0       0       0
       0       0       0       0       0       0       0       0       0       0
       0       0       0       0       0       0       0       0       0       0
       0       0       0       0       0       0       0       0       0       0
       0       0       0       0       0       0       0       0       0       0
       0       0       0       0       0       0       0       0       0       0
       0       0       0       0       0       0       0       0       0       0
       0       0       0       0       0       0       0       0       0       0
       0       0       0       0       0       0       0       0       0       0
       0       0       0       0       0       0       0       0       0       0
       0       0       0       0       0       0       0       0       0       0
       0       0       0       0       0       0       0       0       0       0
       0       0       0       0       0       0       0       0       0       0
       0       0       0       0       0       0       0       0       0       0
       0       0       0       0       0       0       0       0       0       0
       0       0       0       0       0       0       0       0       0       0
       0       0       0       0       0       0       0       0       0       0
       0       0       0       0       0       0       0       0       0       0
       0       0       0       0       0       0       0       0       0       0
       0       0       0       0       0       0       0       0       0       0
       0       0       0       0       0       0       0       0       0       0
       0       0       0       0       0       0       0       0       0       0
       0       0       0       0       0       0       0       0       0       0
       0       0       0       0       0       0       0       0       0       0
       0       0       0       0       0       0       0       0       0       0
       0       0       0       0       0       0       0       0       0       0
       0       0       0       0       0       0       0       0       0       0
       0       0       0       0       0       0       0       0       0       0
       0       0       0       0       0       0       0       0       0       0
       0       0       0       0       0       0       0       0       0       0
       0       0       0       0       0       0       0       0       0       0
       0       0       0       0       0       0       0       0       0       0
       0       0       0       0       0       0       0       0       0       0
       0       0       0       0       0       0       0       0       0       0
       0       0       0       0       0       0       0       0       0       0
       0       0       0       0       0       0       0       0       0       0
       0       0       0       0       0       0       0       0       0       0
       0       0       0       0       0       0       0       0       0       0
       0       0       0       0       0       0       0       0       0       0
       0       0       0       0       0       0       0       0       0       0
       0       0       0       0       0       0       0       0       0       0
       0       0       0       0       0       0       0       0       0       0
       0       0       0       0       0       0       0       0       0       0
       0       0       0       0       0       0       0       0       0       0
       0       0       0       0       0       0       0       0       0       0
       0       0       0       0       0       0       0       0       0       0
       0       0       0       0       0       0       0       0       0       0
       0       0       0       0       0       0       0       0       0       0
       0       0       0       0       0       0       0       0       0       0
       0       0       0       0       0       0       0       0       0       0
       0       0       0       0       0       0       0       0       0       0
       0       0       0       0       0       0       0       0       0       0
       0       0       0       0       0       0       0       0       0       0
       0       0       0       0       0       0       0       0       0       0
       0       0       0       0       0       0       0       0       0       0
       0       0       0       0       0       0       0       0       0       0
       0       0       0       0       0       0       0       0       0       0
       0       0       0       0       0       0       0       0       0       0
       0       0       0       0       0       0       0       0       0       0
       0       0       0       0       0       0       0       0       0       0
       0       0       0       0       0       0       0       0       0       0
       0       0       0       0       0       0       0       0       0       0
       0       0       0       0       0       0       0       0       0       0
       0       0       0       0       0       0       0       0       0       0
       0       0       0       0       0       0       0       0       0       0
       0       0       0       0       0       0       0       0       0       0
       0       0       0       0       0       0       0       0       0       0
       0       0       0       0       0       0       0       0       0       0
       0       0       0       0       0       0       0       0       0       0
       0       0       0       0       0       0       0       0       0       0
       0       0       0       0       0       0       0       0       0       0
       0       0       0       0       0       0       0       0       0       0
       0       0       0       0       0       0       0       0       0       0
       0       0       0       0       0       0       0       0       0       0
       0       0       0       0       0       0       0       0       0       0
       0       0       0       0       0       0       0       0       0       0
       0       0       0       0       0       0       0       0       0       0
       0       0       0       0       0       0       0       0       0       0
       0       0       0       0       0       0       0       0       0       0
       0       0       0       0       0       0       0       0       0       0
       0       0       0       0       0       0       0       0       0       0
       0       0       0       0       0       0       0       0       0       0
       0       0       0       0       0       0       0       0       0       0
       0       0       0       0       0       0       0       0       0       0
       0       0       0       0       0       0       0       0       0       0
       0       0       0       0       0       0       0       0       0       0
       0       0       0       0       0       0       0       0       0       0
       0       0       0       0       0       0       0       0       0       0
       0       0       0       0       0       0       0       0       0       0
       0       0       0       0       0       0       0       0       0       0
       0       0       0       0       0       0       0       0       0       0
       0       0       0       0       0       0       0       0       0       0
       0       0       0       0       0       0       0       0       0       0
       0       0       0       0       0       0       0       0       0       0
       0       0       0       0       0       0       0       0       0       0
       0       0       0       0       0       0       0       0       0       0
       0       0       0       0       0       0       0       0       0       0
       0       0       0       0       0       0       0       0       0       0
       0       0       0       0       0       0       0       0       0       0
       0       0       0       0       0       0       0       0       0       0
       0       0       0       0       0       0       0       0       0       0
       0       0       0       0       0       0       0       0       0       0
       0       0       0       0       0       0       0       0       0       0
       0       0       0       0       0       0       0       0       0       0
       0       0       0       0       0       0       0       0       0       0
       0       0       0       0       0       0       0       0       0       0
       0       0       0       0       0       0       0       0       0       0
       0       0       0       0       0       0       0       0       0       0
       0       0       0       0       0       0       0       0       0       0
       0       0       0       0       0       0       0       0       0       0
       0       0       0       0       0       0       0       0       0       0
       0       0       0       0       0       0       0       0       0       0
       0       0       0       0       0       0       0       0       0       0
       0       0       0       0       0       0       0       0       0       0
       0       0       0       0       0       0       0       0       0       0
       0       0       0       0       0       0       0       0       0       0
       0       0       0       0       0       0       0       0       0       0
       0       0       0       0       0       0       0       0       0       0
       0       0       0       0       0       0       0       0       0       0
       0       0       0       0       0       0       0       0       0       0
       0       0       0       0       0       0       0       0       0       0
       0       0       0       0       0       0       0       0       0       0
       0       0       0       0       0       0       0       0       0       0
       0       0       0       0       0       0       0       0       0       0
       0       0       0       0       0       0       0       0       0       0
       0       0       0       0       0       0       0       0       0       0
       0       0       0       0       0       0       0       0       0       0
       0       0       0       0       0       0       0       0       0       0
       0       0       0       0       0       0       0       0       0       0
       0       0       0       0       0       0       0       0       0       0
       0       0       0       0       0       0       0       0       0       0
       0       0       0       0       0       0       0       0       0       0
       0       0       0       0       0       0       0       0       0       0
       0       0       0       0       0       0       0       0       0       0
       0       0       0       0       0       0       0       0       0       0
       0       0       0       0       0       0       0       0       0       0
       0       0       0       0       0       0       0       0       0       0
       0       0       0       0       0       0       0       0       0       0
       0       0       0       0       0       0       0       0       0       0
       0       0       0       0       0       0       0       0       0       0
       0       0       0       0       0       0       0       0       0       0
       0       0       0       0       0       0       0       0       0       0
       0       0       0       0       0       0       0       0       0       0
       0       0       0       0       0       0       0       0       0       0
       0       0       0       0       0       0       0       0       0       0
       0       0       0       0       0       0       0       0       0       0
       0       0       0       0       0       0       0       0       0       0
       0       0       0       0       0       0       0       0       0       0
       0       0       0       0       0       0       0       0       0       0
       0       0       0       0       0       0       0       0       0       0
       0       0       0       0       0       0       0       0       0       0
       0       0       0       0       0       0       0       0       0       0
       0       0       0       0       0       0       0       0       0       0
       0       0       0       0       0       0       0       0       0       0
       0       0       0       0       0       0       0       0       0       0
       0       0       0       0       0       0       0       0       0       0
       0       0       0       0       0       0       0       0       0       0
       0       0       0       0       0       0       0       0       0       0
       0       0       0       0       0       0       0       0       0       0
       0       0       0       0       0       0       0       0       0       0
       0       0       0       0       0       0       0       0       0       0
       0       0       0       0       0       0       0       0       0       0
       0       0       0       0       0       0       0       0       0       0
       0       0       0       0       0       0       0       0       0       0
       0       0       0       0       0       0       0       0       0       0
       0       0       0       0       0       0       0       0       0       0
       0       0       0       0       0       0       0       0       0       0
       0       0       0       0       0       0       0       0       0       0
       0       0       0       0       0       0       0       0       0       0
       0       0       0       0       0       0       0       0       0       0
       0       0       0       0       0       0       0       0       0       0
       0       0       0       0       0       0       0       0       0       0
       0       0       0       0       0       0       0       0       0       0
       0       0       0       0       0       0       0       0       0       0
       0       0       0       0       0       0       0       0       0       0
       0       0       0       0       0       0       0       0       0       0
       0       0       0       0       0       0       0       0       0       0
       0       0       0       0       0       0       0       0       0       0
       0       0       0       0       0       0       0       0       0       0
       0       0       0       0       0       0       0       0       0       0
       0       0       0       0       0       0       0       0       0       0
       0       0       0       0       0       0       0       0       0       0
       0       0       0       0       0       0       0       0       0       0
       0       0       0       0       0       0       0       0       0       0
       0       0       0       0       0       0       0       0       0       0
       0       0       0       0       0       0       0       0       0       0
       0       0       0       0       0       0       0       0       0       0
       0       0       0       0       0       0       0       0       0       0
       0       0       0       0       0       0       0       0       0       0
       0       0       0       0       0       0       0       0       0       0
       0       0       0       0       0       0       0       0       0       0
       0       0       0       0       0       0       0       0       0       0
       0       0       0       0       0       0       0       0       0       0
       0       0       0       0       0       0       0       0       0       0
       0       0       0       0       0       0       0       0       0       0
       0       0       0       0       0       0       0       0       0       0
       0       0       0       0       0       0       0       0       0       0
       0       0       0       0       0       0       0       0       0       0
       0       0       0       0       0       0       0       0       0       0
       0       0       0       0       0       0       0       0       0       0
       0       0       0       0       0       0       0       0       0       0
       0       0       0       0       0       0       0       0       0       0
       0       0       0       0       0       0       0       0       0       0
       0       0       0       0       0       0       0       0       0       0
       0       0       0       0       0       0       0       0       0       0
       0       0       0       0       0       0       0       0       0       0
       0       0       0       0       0       0       0       0       0       0
       0       0       0       0       0       0       0       0       0       0
       0       0       0       0       0       0       0       0       0       0
       0       0       0       0       0       0       0       0       0       0
       0       0       0       0       0       0       0       0       0       0
       0       0       0       0       0       0       0       0       0       0
       0       0       0       0       0       0       0       0       0       0
       0       0       0       0       0       0       0       0       0       0
       0       0       0       0       0       0       0       0       0       0
       0       0       0       0       0       0       0       0       0       0
       0       0       0       0       0       0       0       0       0       0
       0       0       0       0       0       0       0       0       0       0
       0       0       0       0       0       0       0       0       0       0
       0       0       0       0       0       0       0       0       0       0
       0       0       0       0       0       0       0       0       0       0
       0       0       0       0       0       0       0       0       0       0
       0       0       0       0       0       0       0       0       0       0
       0       0       0       0       0       0       0       0       0       0
       0       0       0       0       0       0       0       0       0       0
       0       0       0       0       0       0       0       0       0       0
       0       0       0       0       0       0       0       0       0       0
       0       0       0       0       0       0       0       0       0       0
       0       0       0       0       0       0       0       0       0       0
       0       0       0       0       0       0       0       0       0       0
       0       0       0       0       0       0       0       0       0       0
       0       0       0       0       0       0       0       0       0       0
       0       0       0       0       0       0       0       0       0       0
       0       0       0       0       0       0       0       0       0       0
       0       0       0       0       0       0       0       0       0       0
       0       0       0       0       0       0       0       0       0       0
       0       0       0       0       0       0       0       0       0       0
       0       0       0       0       0       0       0       0       0       0
       0       0       0       0       0       0       0       0       0       0
       0       0       0       0       0       0       0       0       0       0
       0       0       0       0       0       0       0       0       0       0
       0       0       0       0       0       0       0       0       0       0
       0       0       0       0       0       0       0       0       0       0
       0       0       0       0       0       0       0       0       0       0
       0       0       0       0       0       0       0       0       0       0
       0       0       0       0       0       0       0       0       0       0
       0       0       0       0       0       0       0       0       0       0
       0       0       0       0       0       0       0       0       0       0
       0       0       0       0       0       0       0       0       0       0
       0       0       0       0       0       0       0       0       0       0
       0       0       0       0       0       0       0       0       0       0
       0       0       0       0       0       0       0       0       0       0
       0       0       0       0       0       0       0       0       0       0
       0       0       0       0       0       0       0       0       0       0
       0       0       0       0       0       0       0       0       0       0
       0       0       0       0       0       0       0       0       0       0
       0       0       0       0       0       0       0       0       0       0
       0       0       0       0       0       0       0       0       0       0
       0       0       0       0       0       0       0       0       0       0
       0       0       0       0       0       0       0       0       0       0
       0       0       0       0       0       0       0       0       0       0
       0       0       0       0       0       0       0       0       0       0
       0       0       0       0       0       0       0       0       0       0
       0       0       0       0       0       0       0       0       0       0
       0       0       0       0       0       0       0       0       0       0
       0       0       0       0       0       0       0       0       0       0
       0       0       0       0       0       0       0       0       0       0
       0       0       0       0       0       0       0       0       0       0
       0       0       0       0       0       0       0       0       0       0
       0       0       0       0       0       0       0       0       0       0
       0       0       0       0       0       0       0       0       0       0
       0       0       0       0       0       0       0       0       0       0
       0       0       0       0       0       0       0       0       0       0
       0       0       0       0       0       0       0       0       0       0
       0       0       0       0       0       0       0       0       0       0
       0       0       0       0       0       0       0       0       0       0
       0       0       0       0       0       0       0       0       0       0
       0       0       0       0       0       0       0       0       0       0
       0       0       0       0       0       0       0       0       0       0
       0       0       0       0       0       0       0       0       0       0
       0       0       0       0       0       0       0       0       0       0
       0       0       0       0       0       0       0       0       0       0
       0       0       0       0       0       0       0       0       0       0
       0       0       0       0       0       0       0       0       0       0
       0       0       0       0       0       0       0       0       0       0
       0       0       0       0       0       0       0       0       0       0
       0       0       0       0       0       0       0       0       0       0
       0       0       0       0       0       0       0       0       0       0
       0       0       0       0       0       0       0       0       0       0
       0       0       0       0       0       0       0       0       0       0
       0       0       0       0       0       0       0       0       0       0
       0       0       0       0       0       0       0       0       0       0
       0       0       0       0       0       0       0       0       0       0
       0       0       0       0       0       0       0       0       0       0
       0       0       0       0       0       0       0       0       0       0
       0       0       0       0       0       0       0       0       0       0
       0       0       0       0       0       0       0       0       0       0
       0       0       0       0       0       0       0       0       0       0
       0       0       0       0       0       0       0       0       0       0
       0       0       0       0       0       0       0       0       0       0
       0       0       0       0       0       0       0       0       0       0
       0       0       0       0       0       0       0       0       0       0
       0       0       0       0       0       0       0       0       0       0
       0       0       0       0       0       0       0       0       0       0
       0       0       0       0       0       0       0       0       0       0
       0       0       0       0       0       0       0       0       0       0
       0       0       0       0       0       0       0       0       0       0
       0       0       0       0       0       0       0       0       0       0
       0       0       0       0       0       0       0       0       0       0
       0       0       0       0       0       0       0       0       0       0
       0       0       0       0       0       0       0       0       0       0
       0       0       0       0       0       0       0       0       0       0
       0       0       0       0       0       0       0       0       0       0
       0       0       0       0       0       0       0       0       0       0
       0       0       0       0       0       0       0       0       0       0
       0       0       0       0       0       0       0       0       0       0
       0       0       0       0       0       0       0       0       0       0
       0       0       0       0       0       0       0       0       0       0
       0       0       0       0       0       0       0       0       0       0
       0       0       0       0       0       0       0       0       0       0
       0       0       0       0       0       0       0       0       0       0
       0       0       0       0       0       0       0       0       0       0
       0       0       0       0       0       0       0       0       0       0
       0       0       0       0       0       0       0       0       0       0
       0       0       0       0       0       0       0       0       0       0
       0       0       0       0       0       0       0       0       0       0
       0       0       0       0       0       0       0       0       0       0
       0       0       0       0       0       0       0       0       0       0
       0       0       0       0       0       0       0       0       0       0
       0       0       0       0       0       0       0       0       0       0
       0       0       0       0       0       0       0       0       0       0
       0       0       0       0       0       0       0       0       0       0
       0       0       0       0       0       0       0       0       0       0
       0       0       0       0       0       0       0       0       0       0
       0       0       0       0       0       0       0       0       0       0
       0       0       0       0       0       0       0       0       0       0
       0       0       0       0       0       0       0       0       0       0
       0       0       0       0       0       0       0       0       0       0
       0       0       0       0       0       0       0       0       0       0
       0       0       0       0       0       0       0       0       0       0
       0       0       0       0       0       0       0       0       0       0
       0       0       0       0       0       0       0       0       0       0
       0       0       0       0       0       0       0       0       0       0
       0       0       0       0       0       0       0       0       0       0
       0       0       0       0       0       0       0       0       0       0
       0       0       0       0       0       0       0       0       0       0
       0       0       0       0       0       0       0       0       0       0
       0       0       0       0       0       0       0       0       0       0
       0       0       0       0       0       0       0       0       0       0
       0       0       0       0       0       0       0       0       0       0
       0       0       0       0       0       0       0       0       0       0
       0       0       0       0       0       0       0       0       0       0
       0       0       0       0       0       0       0       0       0       0
       0       0       0       0       0       0       0       0       0       0
       0       0       0       0       0       0       0       0       0       0
       0       0       0       0       0       0       0       0       0       0
       0       0       0       0       0       0       0       0       0       0
       0       0       0       0       0       0       0       0       0       0
       0       0       0       0       0       0       0       0       0       0
       0       0       0       0       0       0       0       0       0       0
       0       0       0       0       0       0       0       0       0       0
       0       0       0       0       0       0       0       0       0       0
       0       0       0       0       0       0       0       0       0       0
       0       0       0       0       0       0       0       0       0       0
       0       0       0       0       0       0       0       0       0       0
       0       0       0       0       0       0       0       0       0       0
       0       0       0       0       0       0       0       0       0       0
       0       0       0       0       0       0       0       0       0       0
       0       0       0       0       0       0       0       0       0       0
       0       0       0       0       0       0       0       0       0       0
       0       0       0       0       0       0       0       0       0       0
       0       0       0       0       0       0       0       0       0       0
       0       0       0       0       0       0       0       0       0       0
       0       0       0       0       0       0       0       0       0       0
       0       0       0       0       0       0       0       0       0       0
       0       0       0       0       0       0       0       0       0       0
       0       0       0       0       0       0       0       0       0       0
       0       0       0       0       0       0       0       0       0
%FLAG SOLVENT_POINTERS                                                          
%FORMAT(3I8)                                                                    
       5    1681       2
%FLAG ATOMS_PER_MOLECULE                                                        
%FORMAT(10I8)                                                                   
      59       4       4       4       4       4       4       4       4       4
       4       4       4       4       4       4       4       4       4       4
       4       4       4       4       4       4       4       4       4       4
       4       4       4       4       4       4       4       4       4       4
       4       4       4       4       4       4       4       4       4       4
       4       4       4       4       4       4       4       4       4       4
       4       4       4       4       4       4       4       4       4       4
       4       4       4       4       4       4       4       4       4       4
       4       4       4       4       4       4       4       4       4       4
       4       4       4       4       4       4       4       4       4       4
       4       4       4       4       4       4       4       4       4       4
       4       4       4       4       4       4       4       4       4       4
       4       4       4       4       4       4       4       4       4       4
       4       4       4       4       4       4       4       4       4       4
       4       4       4       4       4       4       4       4       4       4
       4       4       4       4       4       4       4       4       4       4
       4       4       4       4       4       4       4       4       4       4
       4       4       4       4       4       4       4       4       4       4
       4       4       4       4       4       4       4       4       4       4
       4       4       4       4       4       4       4       4       4       4
       4       4       4       4       4       4       4       4       4       4
       4       4       4       4       4       4       4       4       4       4
       4       4       4       4       4       4       4       4       4       4
       4       4       4       4       4       4       4       4       4       4
       4       4       4       4       4       4       4       4       4       4
       4       4       4       4       4       4       4       4       4       4
       4       4       4       4       4       4       4       4       4       4
       4       4       4       4       4       4       4       4       4       4
       4       4       4       4       4       4       4       4       4       4
       4       4       4       4       4       4       4       4       4       4
       4       4       4       4       4       4       4       4       4       4
       4       4       4       4       4       4       4       4       4       4
       4       4       4       4       4       4       4       4       4       4
       4       4       4       4       4       4       4       4       4       4
       4       4       4       4       4       4       4       4       4       4
       4       4       4       4       4       4       4       4       4       4
       4       4       4       4       4       4       4       4       4       4
       4       4       4       4       4       4       4       4       4       4
       4       4       4       4       4       4       4       4       4       4
       4       4       4       4       4       4       4       4       4       4
       4       4       4       4       4       4       4       4       4       4
       4       4       4       4       4       4       4       4       4       4
       4       4       4       4       4       4       4       4       4       4
       4       4       4       4       4       4       4       4       4       4
       4       4       4       4       4       4       4       4       4       4
       4       4       4       4       4       4       4       4       4       4
       4       4       4       4       4       4       4       4       4       4
       4       4       4       4       4       4       4       4       4       4
       4       4       4       4       4       4       4       4       4       4
       4       4       4       4       4       4       4       4       4       4
       4       4       4       4       4       4       4       4       4       4
       4       4       4       4       4       4       4       4       4       4
       4       4       4       4       4       4       4       4       4       4
       4       4       4       4       4       4       4       4       4       4
       4       4       4       4       4       4       4       4       4       4
       4       4       4       4       4       4       4       4       4       4
       4       4       4       4       4       4       4       4       4       4
       4       4       4       4       4       4       4       4       4       4
       4       4       4       4       4       4       4       4       4       4
       4       4       4       4       4       4       4       4       4       4
       4       4       4       4       4       4       4       4       4       4
       4       4       4       4       4       4       4       4       4       4
       4       4       4       4       4       4       4       4       4       4
       4       4       4       4       4       4       4       4       4       4
       4       4       4       4       4       4       4       4       4       4
       4       4       4       4       4       4       4       4       4       4
       4       4       4       4       4       4       4       4       4       4
       4       4       4       4       4       4       4       4       4       4
       4       4       4       4       4       4       4       4       4       4
       4       4       4       4       4       4       4       4       4       4
       4       4       4       4       4       4       4       4       4       4
       4       4       4       4       4       4       4       4       4       4
       4       4       4       4       4       4       4       4       4       4
       4       4       4       4       4       4       4       4       4       4
       4       4       4       4       4       4       4       4       4       4
       4       4       4       4       4       4       4       4       4       4
       4       4       4       4       4       4       4       4       4       4
       4       4       4       4       4       4       4       4       4       4
       4       4       4       4       4       4       4       4       4       4
       4       4       4       4       4       4       4       4       4       4
       4       4       4       4       4       4       4       4       4       4
       4       4       4       4       4       4       4       4       4       4
       4       4       4       4       4       4       4       4       4       4
       4       4       4       4       4       4       4       4       4       4
       4       4       4       4       4       4       4       4       4       4
       4       4       4       4       4       4       4       4       4       4
       4       4       4       4       4       4       4       4       4       4
       4       4       4       4       4       4       4       4       4       4
       4       4       4       4       4       4       4       4       4       4
       4       4       4       4       4       4       4       4       4       4
       4       4       4       4       4       4       4       4       4       4
       4       4       4       4       4       4       4       4       4       4
       4       4       4       4       4       4       4       4       4       4
       4       4       4       4       4       4       4       4       4       4
       4       4       4       4       4       4       4       4       4       4
       4       4       4       4       4       4       4       4       4       4
       4       4       4       4       4       4       4       4       4       4
       4       4       4       4       4       4       4       4       4       4
       4       4       4       4       4       4       4       4       4       4
       4       4       4       4       4       4       4       4       4       4
       4       4       4       4       4       4       4       4       4       4
       4       4       4       4       4       4       4       4       4       4
       4       4       4       4       4       4       4       4       4       4
       4       4       4       4       4       4       4       4       4       4
       4       4       4       4       4       4       4       4       4       4
       4       4       4       4       4       4       4       4       4       4
       4       4       4       4       4       4       4       4       4       4
       4       4       4       4       4       4       4       4       4       4
       4       4       4       4       4       4       4       4       4       4
       4       4       4       4       4       4       4       4       4       4
       4       4       4       4       4       4       4       4       4       4
       4       4       4       4       4       4       4       4       4       4
       4       4       4       4       4       4       4       4       4       4
       4       4       4       4       4       4       4       4       4       4
       4       4       4       4       4       4       4       4       4       4
       4       4       4       4       4       4       4       4       4       4
       4       4       4       4       4       4       4       4       4       4
       4       4       4       4       4       4       4       4       4       4
       4       4       4       4       4       4       4       4       4       4
       4       4       4       4       4       4       4       4       4       4
       4       4       4       4       4       4       4       4       4       4
       4       4       4       4       4       4       4       4       4       4
       4       4       4       4       4       4       4       4       4       4
       4       4       4       4       4       4       4       4       4       4
       4       4       4       4       4       4       4       4       4       4
       4       4       4       4       4       4       4       4       4       4
       4       4       4       4       4       4       4       4       4       4
       4       4       4       4       4       4       4       4       4       4
       4       4       4       4       4       4       4       4       4       4
       4       4       4       4       4       4       4       4       4       4
       4       4       4       4       4       4       4       4       4       4
       4       4       4       4       4       4       4       4       4       4
       4       4       4       4       4       4       4       4       4       4
       4       4       4       4       4       4       4       4       4       4
       4       4       4       4       4       4       4       4       4       4
       4       4       4       4       4       4       4       4       4       4
       4       4       4       4       4       4       4       4       4       4
       4       4       4       4       4       4       4       4       4       4
       4       4       4       4       4       4       4       4       4       4
       4       4       4       4       4       4       4       4       4       4
       4       4       4       4       4       4       4       4       4       4
       4       4       4       4       4       4       4       4       4       4
       4       4       4       4       4       4       4       4       4       4
       4       4       4       4       4       4       4       4       4       4
       4       4       4       4       4       4       4       4       4       4
       4       4       4       4       4       4       4       4       4       4
       4       4       4       4       4       4       4       4       4       4
       4       4       4       4       4       4       4       4       4       4
       4       4       4       4       4       4       4       4       4       4
       4       4       4       4       4       4       4       4       4       4
       4       4       4       4       4       4       4       4       4       4
       4       4       4       4       4       4       4       4       4       4
       4       4       4       4       4       4       4       4       4       4
       4       4       4       4       4       4       4       4       4       4
       4       4       4       4       4       4       4       4       4       4
       4       4       4       4       4       4       4       4       4       4
       4       4       4       4       4       4       4       4       4       4
       4       4       4       4       4       4       4       4       4       4
       4       4       4       4       4       4       4       4       4       4
       4       4       4       4       4       4       4       4       4       4
       4       4       4       4       4       4       4       4       4       4
       4       4       4       4       4       4       4       4       4       4
       4       4       4       4       4       4       4       4       4       4
       4       4       4       4       4       4       4       4       4       4
       4       4       4       4       4       4       4       4       4       4
       4       4       4       4       4       4       4       4       4       4
       4       4       4       4       4       4       4       4       4       4
       4       4       4       4       4       4       4       4       4       4
       4
%FLAG BOX_DIMENSIONS                                                            
%FORMAT(5E16.8)                                                                 
  1.09471219E+02  4.25676045E+01  4.25676045E+01  4.25676045E+01
%FLAG RADIUS_SET                                                                
%FORMAT(1a80)                                                                   
modified Bondi radii (mbondi)                                                   
%FLAG RADII                                                                     
%FORMAT(5E16.8)                                                                 
  1.30000000E+00  1.70000000E+00  1.30000000E+00  1.30000000E+00  1.70000000E+00
  1.50000000E+00  1.55000000E+00  1.30000000E+00  1.70000000E+00  1.30000000E+00
  1.70000000E+00  1.30000000E+00  1.30000000E+00  1.70000000E+00  1.30000000E+00
  1.30000000E+00  1.70000000E+00  1.30000000E+00  1.30000000E+00  1.70000000E+00
  1.30000000E+00  1.30000000E+00  1.55000000E+00  1.30000000E+00  1.30000000E+00
  1.30000000E+00  1.70000000E+00  1.50000000E+00  1.55000000E+00  1.30000000E+00
  1.70000000E+00  1.30000000E+00  1.70000000E+00  1.30000000E+00  1.30000000E+00
  1.30000000E+00  1.70000000E+00  1.50000000E+00  1.55000000E+00  1.30000000E+00
  1.70000000E+00  1.30000000E+00  1.70000000E+00  1.30000000E+00  1.30000000E+00
  1.70000000E+00  1.30000000E+00  1.30000000E+00  1.70000000E+00  1.50000000E+00
  1.50000000E+00  1.70000000E+00  1.50000000E+00  1.55000000E+00  1.30000000E+00
  1.70000000E+00  1.30000000E+00  1.30000000E+00  1.30000000E+00  1.50000000E+00
  8.00000000E-01  8.00000000E-01  1.50000000E+00  1.50000000E+00  8.00000000E-01
  8.00000000E-01  1.50000000E+00  1.50000000E+00  8.00000000E-01  8.00000000E-01
  1.50000000E+00  1.50000000E+00  8.00000000E-01  8.00000000E-01  1.50000000E+00
  1.50000000E+00  8.00000000E-01  8.00000000E-01  1.50000000E+00  1.50000000E+00
  8.00000000E-01  8.00000000E-01  1.50000000E+00  1.50000000E+00  8.00000000E-01
  8.00000000E-01  1.50000000E+00  1.50000000E+00  8.00000000E-01  8.00000000E-01
  1.50000000E+00  1.50000000E+00  8.00000000E-01  8.00000000E-01  1.50000000E+00
  1.50000000E+00  8.00000000E-01  8.00000000E-01  1.50000000E+00  1.50000000E+00
  8.00000000E-01  8.00000000E-01  1.50000000E+00  1.50000000E+00  8.00000000E-01
  8.00000000E-01  1.50000000E+00  1.50000000E+00  8.00000000E-01  8.00000000E-01
  1.50000000E+00  1.50000000E+00  8.00000000E-01  8.00000000E-01  1.50000000E+00
  1.50000000E+00  8.00000000E-01  8.00000000E-01  1.50000000E+00  1.50000000E+00
  8.00000000E-01  8.00000000E-01  1.50000000E+00  1.50000000E+00  8.00000000E-01
  8.00000000E-01  1.50000000E+00  1.50000000E+00  8.00000000E-01  8.00000000E-01
  1.50000000E+00  1.50000000E+00  8.00000000E-01  8.00000000E-01  1.50000000E+00
  1.50000000E+00  8.00000000E-01  8.00000000E-01  1.50000000E+00  1.50000000E+00
  8.00000000E-01  8.00000000E-01  1.50000000E+00  1.50000000E+00  8.00000000E-01
  8.00000000E-01  1.50000000E+00  1.50000000E+00  8.00000000E-01  8.00000000E-01
  1.50000000E+00  1.50000000E+00  8.00000000E-01  8.00000000E-01  1.50000000E+00
  1.50000000E+00  8.00000000E-01  8.00000000E-01  1.50000000E+00  1.50000000E+00
  8.00000000E-01  8.00000000E-01  1.50000000E+00  1.50000000E+00  8.00000000E-01
  8.00000000E-01  1.50000000E+00  1.50000000E+00  8.00000000E-01  8.00000000E-01
  1.50000000E+00  1.50000000E+00  8.00000000E-01  8.00000000E-01  1.50000000E+00
  1.50000000E+00  8.00000000E-01  8.00000000E-01  1.50000000E+00  1.50000000E+00
  8.00000000E-01  8.00000000E-01  1.50000000E+00  1.50000000E+00  8.00000000E-01
  8.00000000E-01  1.50000000E+00  1.50000000E+00  8.00000000E-01  8.00000000E-01
  1.50000000E+00  1.50000000E+00  8.00000000E-01  8.00000000E-01  1.50000000E+00
  1.50000000E+00  8.00000000E-01  8.00000000E-01  1.50000000E+00  1.50000000E+00
  8.00000000E-01  8.00000000E-01  1.50000000E+00  1.50000000E+00  8.00000000E-01
  8.00000000E-01  1.50000000E+00  1.50000000E+00  8.00000000E-01  8.00000000E-01
  1.50000000E+00  1.50000000E+00  8.00000000E-01  8.00000000E-01  1.50000000E+00
  1.50000000E+00  8.00000000E-01  8.00000000E-01  1.50000000E+00  1.50000000E+00
  8.00000000E-01  8.00000000E-01  1.50000000E+00  1.50000000E+00  8.00000000E-01
  8.00000000E-01  1.50000000E+00  1.50000000E+00  8.00000000E-01  8.00000000E-01
  1.50000000E+00  1.50000000E+00  8.00000000E-01  8.00000000E-01  1.50000000E+00
  1.50000000E+00  8.00000000E-01  8.00000000E-01  1.50000000E+00  1.50000000E+00
  8.00000000E-01  8.00000000E-01  1.50000000E+00  1.50000000E+00  8.00000000E-01
  8.00000000E-01  1.50000000E+00  1.50000000E+00  8.00000000E-01  8.00000000E-01
  1.50000000E+00  1.50000000E+00  8.00000000E-01  8.00000000E-01  1.50000000E+00
  1.50000000E+00  8.00000000E-01  8.00000000E-01  1.50000000E+00  1.50000000E+00
  8.00000000E-01  8.00000000E-01  1.50000000E+00  1.50000000E+00  8.00000000E-01
  8.00000000E-01  1.50000000E+00  1.50000000E+00  8.00000000E-01  8.00000000E-01
  1.50000000E+00  1.50000000E+00  8.00000000E-01  8.00000000E-01  1.50000000E+00
  1.50000000E+00  8.00000000E-01  8.00000000E-01  1.50000000E+00  1.50000000E+00
  8.00000000E-01  8.00000000E-01  1.50000000E+00  1.50000000E+00  8.00000000E-01
  8.00000000E-01  1.50000000E+00  1.50000000E+00  8.00000000E-01  8.00000000E-01
  1.50000000E+00  1.50000000E+00  8.00000000E-01  8.00000000E-01  1.50000000E+00
  1.50000000E+00  8.00000000E-01  8.00000000E-01  1.50000000E+00  1.50000000E+00
  8.00000000E-01  8.00000000E-01  1.50000000E+00  1.50000000E+00  8.00000000E-01
  8.00000000E-01  1.50000000E+00  1.50000000E+00  8.00000000E-01  8.00000000E-01
  1.50000000E+00  1.50000000E+00  8.00000000E-01  8.00000000E-01  1.50000000E+00
  1.50000000E+00  8.00000000E-01  8.00000000E-01  1.50000000E+00  1.50000000E+00
  8.00000000E-01  8.00000000E-01  1.50000000E+00  1.50000000E+00  8.00000000E-01
  8.00000000E-01  1.50000000E+00  1.50000000E+00  8.00000000E-01  8.00000000E-01
  1.50000000E+00  1.50000000E+00  8.00000000E-01  8.00000000E-01  1.50000000E+00
  1.50000000E+00  8.00000000E-01  8.00000000E-01  1.50000000E+00  1.50000000E+00
  8.00000000E-01  8.00000000E-01  1.50000000E+00  1.50000000E+00  8.00000000E-01
  8.00000000E-01  1.50000000E+00  1.50000000E+00  8.00000000E-01  8.00000000E-01
  1.50000000E+00  1.50000000E+00  8.00000000E-01  8.00000000E-01  1.50000000E+00
  1.50000000E+00  8.00000000E-01  8.00000000E-01  1.50000000E+00  1.50000000E+00
  8.00000000E-01  8.00000000E-01  1.50000000E+00  1.50000000E+00  8.00000000E-01
  8.00000000E-01  1.50000000E+00  1.50000000E+00  8.00000000E-01  8.00000000E-01
  1.50000000E+00  1.50000000E+00  8.00000000E-01  8.00000000E-01  1.50000000E+00
  1.50000000E+00  8.00000000E-01  8.00000000E-01  1.50000000E+00  1.50000000E+00
  8.00000000E-01  8.00000000E-01  1.50000000E+00  1.50000000E+00  8.00000000E-01
  8.00000000E-01  1.50000000E+00  1.50000000E+00  8.00000000E-01  8.00000000E-01
  1.50000000E+00  1.50000000E+00  8.00000000E-01  8.00000000E-01  1.50000000E+00
  1.50000000E+00  8.00000000E-01  8.00000000E-01  1.50000000E+00  1.50000000E+00
  8.00000000E-01  8.00000000E-01  1.50000000E+00  1.50000000E+00  8.00000000E-01
  8.00000000E-01  1.50000000E+00  1.50000000E+00  8.00000000E-01  8.00000000E-01
  1.50000000E+00  1.50000000E+00  8.00000000E-01  8.00000000E-01  1.50000000E+00
  1.50000000E+00  8.00000000E-01  8.00000000E-01  1.50000000E+00  1.50000000E+00
  8.00000000E-01  8.00000000E-01  1.50000000E+00  1.50000000E+00  8.00000000E-01
  8.00000000E-01  1.50000000E+00  1.50000000E+00  8.00000000E-01  8.00000000E-01
  1.50000000E+00  1.50000000E+00  8.00000000E-01  8.00000000E-01  1.50000000E+00
  1.50000000E+00  8.00000000E-01  8.00000000E-01  1.50000000E+00  1.50000000E+00
  8.00000000E-01  8.00000000E-01  1.50000000E+00  1.50000000E+00  8.00000000E-01
  8.00000000E-01  1.50000000E+00  1.50000000E+00  8.00000000E-01  8.00000000E-01
  1.50000000E+00  1.50000000E+00  8.00000000E-01  8.00000000E-01  1.50000000E+00
  1.50000000E+00  8.00000000E-01  8.00000000E-01  1.50000000E+00  1.50000000E+00
  8.00000000E-01  8.00000000E-01  1.50000000E+00  1.50000000E+00  8.00000000E-01
  8.00000000E-01  1.50000000E+00  1.50000000E+00  8.00000000E-01  8.00000000E-01
  1.50000000E+00  1.50000000E+00  8.00000000E-01  8.00000000E-01  1.50000000E+00
  1.50000000E+00  8.00000000E-01  8.00000000E-01  1.50000000E+00  1.50000000E+00
  8.00000000E-01  8.00000000E-01  1.50000000E+00  1.50000000E+00  8.00000000E-01
  8.00000000E-01  1.50000000E+00  1.50000000E+00  8.00000000E-01  8.00000000E-01
  1.50000000E+00  1.50000000E+00  8.00000000E-01  8.00000000E-01  1.50000000E+00
  1.50000000E+00  8.00000000E-01  8.00000000E-01  1.50000000E+00  1.50000000E+00
  8.00000000E-01  8.00000000E-01  1.50000000E+00  1.50000000E+00  8.00000000E-01
  8.00000000E-01  1.50000000E+00  1.50000000E+00  8.00000000E-01  8.00000000E-01
  1.50000000E+00  1.50000000E+00  8.00000000E-01  8.00000000E-01  1.50000000E+00
  1.50000000E+00  8.00000000E-01  8.00000000E-01  1.50000000E+00  1.50000000E+00
  8.00000000E-01  8.00000000E-01  1.50000000E+00  1.50000000E+00  8.00000000E-01
  8.00000000E-01  1.50000000E+00  1.50000000E+00  8.00000000E-01  8.00000000E-01
  1.50000000E+00  1.50000000E+00  8.00000000E-01  8.00000000E-01  1.50000000E+00
  1.50000000E+00  8.00000000E-01  8.00000000E-01  1.50000000E+00  1.50000000E+00
  8.00000000E-01  8.00000000E-01  1.50000000E+00  1.50000000E+00  8.00000000E-01
  8.00000000E-01  1.50000000E+00  1.50000000E+00  8.00000000E-01  8.00000000E-01
  1.50000000E+00  1.50000000E+00  8.00000000E-01  8.00000000E-01  1.50000000E+00
  1.50000000E+00  8.00000000E-01  8.00000000E-01  1.50000000E+00  1.50000000E+00
  8.00000000E-01  8.00000000E-01  1.50000000E+00  1.50000000E+00  8.00000000E-01
  8.00000000E-01  1.50000000E+00  1.50000000E+00  8.00000000E-01  8.00000000E-01
  1.50000000E+00  1.50000000E+00  8.00000000E-01  8.00000000E-01  1.50000000E+00
  1.50000000E+00  8.00000000E-01  8.00000000E-01  1.50000000E+00  1.50000000E+00
  8.00000000E-01  8.00000000E-01  1.50000000E+00  1.50000000E+00  8.00000000E-01
  8.00000000E-01  1.50000000E+00  1.50000000E+00  8.00000000E-01  8.00000000E-01
  1.50000000E+00  1.50000000E+00  8.00000000E-01  8.00000000E-01  1.50000000E+00
  1.50000000E+00  8.00000000E-01  8.00000000E-01  1.50000000E+00  1.50000000E+00
  8.00000000E-01  8.00000000E-01  1.50000000E+00  1.50000000E+00  8.00000000E-01
  8.00000000E-01  1.50000000E+00  1.50000000E+00  8.00000000E-01  8.00000000E-01
  1.50000000E+00  1.50000000E+00  8.00000000E-01  8.00000000E-01  1.50000000E+00
  1.50000000E+00  8.00000000E-01  8.00000000E-01  1.50000000E+00  1.50000000E+00
  8.00000000E-01  8.00000000E-01  1.50000000E+00  1.50000000E+00  8.00000000E-01
  8.00000000E-01  1.50000000E+00  1.50000000E+00  8.00000000E-01  8.00000000E-01
  1.50000000E+00  1.50000000E+00  8.00000000E-01  8.00000000E-01  1.50000000E+00
  1.50000000E+00  8.00000000E-01  8.00000000E-01  1.50000000E+00  1.50000000E+00
  8.00000000E-01  8.00000000E-01  1.50000000E+00  1.50000000E+00  8.00000000E-01
  8.00000000E-01  1.50000000E+00  1.50000000E+00  8.00000000E-01  8.00000000E-01
  1.50000000E+00  1.50000000E+00  8.00000000E-01  8.00000000E-01  1.50000000E+00
  1.50000000E+00  8.00000000E-01  8.00000000E-01  1.50000000E+00  1.50000000E+00
  8.00000000E-01  8.00000000E-01  1.50000000E+00  1.50000000E+00  8.00000000E-01
  8.00000000E-01  1.50000000E+00  1.50000000E+00  8.00000000E-01  8.00000000E-01
  1.50000000E+00  1.50000000E+00  8.00000000E-01  8.00000000E-01  1.50000000E+00
  1.50000000E+00  8.00000000E-01  8.00000000E-01  1.50000000E+00  1.50000000E+00
  8.00000000E-01  8.00000000E-01  1.50000000E+00  1.50000000E+00  8.00000000E-01
  8.00000000E-01  1.50000000E+00  1.50000000E+00  8.00000000E-01  8.00000000E-01
  1.50000000E+00  1.50000000E+00  8.00000000E-01  8.00000000E-01  1.50000000E+00
  1.50000000E+00  8.00000000E-01  8.00000000E-01  1.50000000E+00  1.50000000E+00
  8.00000000E-01  8.00000000E-01  1.50000000E+00  1.50000000E+00  8.00000000E-01
  8.00000000E-01  1.50000000E+00  1.50000000E+00  8.00000000E-01  8.00000000E-01
  1.50000000E+00  1.50000000E+00  8.00000000E-01  8.00000000E-01  1.50000000E+00
  1.50000000E+00  8.00000000E-01  8.00000000E-01  1.50000000E+00  1.50000000E+00
  8.00000000E-01  8.00000000E-01  1.50000000E+00  1.50000000E+00  8.00000000E-01
  8.00000000E-01  1.50000000E+00  1.50000000E+00  8.00000000E-01  8.00000000E-01
  1.50000000E+00  1.50000000E+00  8.00000000E-01  8.00000000E-01  1.50000000E+00
  1.50000000E+00  8.00000000E-01  8.00000000E-01  1.50000000E+00  1.50000000E+00
  8.00000000E-01  8.00000000E-01  1.50000000E+00  1.50000000E+00  8.00000000E-01
  8.00000000E-01  1.50000000E+00  1.50000000E+00  8.00000000E-01  8.00000000E-01
  1.50000000E+00  1.50000000E+00  8.00000000E-01  8.00000000E-01  1.50000000E+00
  1.50000000E+00  8.00000000E-01  8.00000000E-01  1.50000000E+00  1.50000000E+00
  8.00000000E-01  8.00000000E-01  1.50000000E+00  1.50000000E+00  8.00000000E-01
  8.00000000E-01  1.50000000E+00  1.50000000E+00  8.00000000E-01  8.00000000E-01
  1.50000000E+00  1.50000000E+00  8.00000000E-01  8.00000000E-01  1.50000000E+00
  1.50000000E+00  8.00000000E-01  8.00000000E-01  1.50000000E+00  1.50000000E+00
  8.00000000E-01  8.00000000E-01  1.50000000E+00  1.50000000E+00  8.00000000E-01
  8.00000000E-01  1.50000000E+00  1.50000000E+00  8.00000000E-01  8.00000000E-01
  1.50000000E+00  1.50000000E+00  8.00000000E-01  8.00000000E-01  1.50000000E+00
  1.50000000E+00  8.00000000E-01  8.00000000E-01  1.50000000E+00  1.50000000E+00
  8.00000000E-01  8.00000000E-01  1.50000000E+00  1.50000000E+00  8.00000000E-01
  8.00000000E-01  1.50000000E+00  1.50000000E+00  8.00000000E-01  8.00000000E-01
  1.50000000E+00  1.50000000E+00  8.00000000E-01  8.00000000E-01  1.50000000E+00
  1.50000000E+00  8.00000000E-01  8.00000000E-01  1.50000000E+00  1.50000000E+00
  8.00000000E-01  8.00000000E-01  1.50000000E+00  1.50000000E+00  8.00000000E-01
  8.00000000E-01  1.50000000E+00  1.50000000E+00  8.00000000E-01  8.00000000E-01
  1.50000000E+00  1.50000000E+00  8.00000000E-01  8.00000000E-01  1.50000000E+00
  1.50000000E+00  8.00000000E-01  8.00000000E-01  1.50000000E+00  1.50000000E+00
  8.00000000E-01  8.00000000E-01  1.50000000E+00  1.50000000E+00  8.00000000E-01
  8.00000000E-01  1.50000000E+00  1.50000000E+00  8.00000000E-01  8.00000000E-01
  1.50000000E+00  1.50000000E+00  8.00000000E-01  8.00000000E-01  1.50000000E+00
  1.50000000E+00  8.00000000E-01  8.00000000E-01  1.50000000E+00  1.50000000E+00
  8.00000000E-01  8.00000000E-01  1.50000000E+00  1.50000000E+00  8.00000000E-01
  8.00000000E-01  1.50000000E+00  1.50000000E+00  8.00000000E-01  8.00000000E-01
  1.50000000E+00  1.50000000E+00  8.00000000E-01  8.00000000E-01  1.50000000E+00
  1.50000000E+00  8.00000000E-01  8.00000000E-01  1.50000000E+00  1.50000000E+00
  8.00000000E-01  8.00000000E-01  1.50000000E+00  1.50000000E+00  8.00000000E-01
  8.00000000E-01  1.50000000E+00  1.50000000E+00  8.00000000E-01  8.00000000E-01
  1.50000000E+00  1.50000000E+00  8.00000000E-01  8.00000000E-01  1.50000000E+00
  1.50000000E+00  8.00000000E-01  8.00000000E-01  1.50000000E+00  1.50000000E+00
  8.00000000E-01  8.00000000E-01  1.50000000E+00  1.50000000E+00  8.00000000E-01
  8.00000000E-01  1.50000000E+00  1.50000000E+00  8.00000000E-01  8.00000000E-01
  1.50000000E+00  1.50000000E+00  8.00000000E-01  8.00000000E-01  1.50000000E+00
  1.50000000E+00  8.00000000E-01  8.00000000E-01  1.50000000E+00  1.50000000E+00
  8.00000000E-01  8.00000000E-01  1.50000000E+00  1.50000000E+00  8.00000000E-01
  8.00000000E-01  1.50000000E+00  1.50000000E+00  8.00000000E-01  8.00000000E-01
  1.50000000E+00  1.50000000E+00  8.00000000E-01  8.00000000E-01  1.50000000E+00
  1.50000000E+00  8.00000000E-01  8.00000000E-01  1.50000000E+00  1.50000000E+00
  8.00000000E-01  8.00000000E-01  1.50000000E+00  1.50000000E+00  8.00000000E-01
  8.00000000E-01  1.50000000E+00  1.50000000E+00  8.00000000E-01  8.00000000E-01
  1.50000000E+00  1.50000000E+00  8.00000000E-01  8.00000000E-01  1.50000000E+00
  1.50000000E+00  8.00000000E-01  8.00000000E-01  1.50000000E+00  1.50000000E+00
  8.00000000E-01  8.00000000E-01  1.50000000E+00  1.50000000E+00  8.00000000E-01
  8.00000000E-01  1.50000000E+00  1.50000000E+00  8.00000000E-01  8.00000000E-01
  1.50000000E+00  1.50000000E+00  8.00000000E-01  8.00000000E-01  1.50000000E+00
  1.50000000E+00  8.00000000E-01  8.00000000E-01  1.50000000E+00  1.50000000E+00
  8.00000000E-01  8.00000000E-01  1.50000000E+00  1.50000000E+00  8.00000000E-01
  8.00000000E-01  1.50000000E+00  1.50000000E+00  8.00000000E-01  8.00000000E-01
  1.50000000E+00  1.50000000E+00  8.00000000E-01  8.00000000E-01  1.50000000E+00
  1.50000000E+00  8.00000000E-01  8.00000000E-01  1.50000000E+00  1.50000000E+00
  8.00000000E-01  8.00000000E-01  1.50000000E+00  1.50000000E+00  8.00000000E-01
  8.00000000E-01  1.50000000E+00  1.50000000E+00  8.00000000E-01  8.00000000E-01
  1.50000000E+00  1.50000000E+00  8.00000000E-01  8.00000000E-01  1.50000000E+00
  1.50000000E+00  8.00000000E-01  8.00000000E-01  1.50000000E+00  1.50000000E+00
  8.00000000E-01  8.00000000E-01  1.50000000E+00  1.50000000E+00  8.00000000E-01
  8.00000000E-01  1.50000000E+00  1.50000000E+00  8.00000000E-01  8.00000000E-01
  1.50000000E+00  1.50000000E+00  8.00000000E-01  8.00000000E-01  1.50000000E+00
  1.50000000E+00  8.00000000E-01  8.00000000E-01  1.50000000E+00  1.50000000E+00
  8.00000000E-01  8.00000000E-01  1.50000000E+00  1.50000000E+00  8.00000000E-01
  8.00000000E-01  1.50000000E+00  1.50000000E+00  8.00000000E-01  8.00000000E-01
  1.50000000E+00  1.50000000E+00  8.00000000E-01  8.00000000E-01  1.50000000E+00
  1.50000000E+00  8.00000000E-01  8.00000000E-01  1.50000000E+00  1.50000000E+00
  8.00000000E-01  8.00000000E-01  1.50000000E+00  1.50000000E+00  8.00000000E-01
  8.00000000E-01  1.50000000E+00  1.50000000E+00  8.00000000E-01  8.00000000E-01
  1.50000000E+00  1.50000000E+00  8.00000000E-01  8.00000000E-01  1.50000000E+00
  1.50000000E+00  8.00000000E-01  8.00000000E-01  1.50000000E+00  1.50000000E+00
  8.00000000E-01  8.00000000E-01  1.50000000E+00  1.50000000E+00  8.00000000E-01
  8.00000000E-01  1.50000000E+00  1.50000000E+00  8.00000000E-01  8.00000000E-01
  1.50000000E+00  1.50000000E+00  8.00000000E-01  8.00000000E-01  1.50000000E+00
  1.50000000E+00  8.00000000E-01  8.00000000E-01  1.50000000E+00  1.50000000E+00
  8.00000000E-01  8.00000000E-01  1.50000000E+00  1.50000000E+00  8.00000000E-01
  8.00000000E-01  1.50000000E+00  1.50000000E+00  8.00000000E-01  8.00000000E-01
  1.50000000E+00  1.50000000E+00  8.00000000E-01  8.00000000E-01  1.50000000E+00
  1.50000000E+00  8.00000000E-01  8.00000000E-01  1.50000000E+00  1.50000000E+00
  8.00000000E-01  8.00000000E-01  1.50000000E+00  1.50000000E+00  8.00000000E-01
  8.00000000E-01  1.50000000E+00  1.50000000E+00  8.00000000E-01  8.00000000E-01
  1.50000000E+00  1.50000000E+00  8.00000000E-01  8.00000000E-01  1.50000000E+00
  1.50000000E+00  8.00000000E-01  8.00000000E-01  1.50000000E+00  1.50000000E+00
  8.00000000E-01  8.00000000E-01  1.50000000E+00  1.50000000E+00  8.00000000E-01
  8.00000000E-01  1.50000000E+00  1.50000000E+00  8.00000000E-01  8.00000000E-01
  1.50000000E+00  1.50000000E+00  8.00000000E-01  8.00000000E-01  1.50000000E+00
  1.50000000E+00  8.00000000E-01  8.00000000E-01  1.50000000E+00  1.50000000E+00
  8.00000000E-01  8.00000000E-01  1.50000000E+00  1.50000000E+00  8.00000000E-01
  8.00000000E-01  1.50000000E+00  1.50000000E+00  8.00000000E-01  8.00000000E-01
  1.50000000E+00  1.50000000E+00  8.00000000E-01  8.00000000E-01  1.50000000E+00
  1.50000000E+00  8.00000000E-01  8.00000000E-01  1.50000000E+00  1.50000000E+00
  8.00000000E-01  8.00000000E-01  1.50000000E+00  1.50000000E+00  8.00000000E-01
  8.00000000E-01  1.50000000E+00  1.50000000E+00  8.00000000E-01  8.00000000E-01
  1.50000000E+00  1.50000000E+00  8.00000000E-01  8.00000000E-01  1.50000000E+00
  1.50000000E+00  8.00000000E-01  8.00000000E-01  1.50000000E+00  1.50000000E+00
  8.00000000E-01  8.00000000E-01  1.50000000E+00  1.50000000E+00  8.00000000E-01
  8.00000000E-01  1.50000000E+00  1.50000000E+00  8.00000000E-01  8.00000000E-01
  1.50000000E+00  1.50000000E+00  8.00000000E-01  8.00000000E-01  1.50000000E+00
  1.50000000E+00  8.00000000E-01  8.00000000E-01  1.50000000E+00  1.50000000E+00
  8.00000000E-01  8.00000000E-01  1.50000000E+00  1.50000000E+00  8.00000000E-01
  8.00000000E-01  1.50000000E+00  1.50000000E+00  8.00000000E-01  8.00000000E-01
  1.50000000E+00  1.50000000E+00  8.00000000E-01  8.00000000E-01  1.50000000E+00
  1.50000000E+00  8.00000000E-01  8.00000000E-01  1.50000000E+00  1.50000000E+00
  8.00000000E-01  8.00000000E-01  1.50000000E+00  1.50000000E+00  8.00000000E-01
  8.00000000E-01  1.50000000E+00  1.50000000E+00  8.00000000E-01  8.00000000E-01
  1.50000000E+00  1.50000000E+00  8.00000000E-01  8.00000000E-01  1.50000000E+00
  1.50000000E+00  8.00000000E-01  8.00000000E-01  1.50000000E+00  1.50000000E+00
  8.00000000E-01  8.00000000E-01  1.50000000E+00  1.50000000E+00  8.00000000E-01
  8.00000000E-01  1.50000000E+00  1.50000000E+00  8.00000000E-01  8.00000000E-01
  1.50000000E+00  1.50000000E+00  8.00000000E-01  8.00000000E-01  1.50000000E+00
  1.50000000E+00  8.00000000E-01  8.00000000E-01  1.50000000E+00  1.50000000E+00
  8.00000000E-01  8.00000000E-01  1.50000000E+00  1.50000000E+00  8.00000000E-01
  8.00000000E-01  1.50000000E+00  1.50000000E+00  8.00000000E-01  8.00000000E-01
  1.50000000E+00  1.50000000E+00  8.00000000E-01  8.00000000E-01  1.50000000E+00
  1.50000000E+00  8.00000000E-01  8.00000000E-01  1.50000000E+00  1.50000000E+00
  8.00000000E-01  8.00000000E-01  1.50000000E+00  1.50000000E+00  8.00000000E-01
  8.00000000E-01  1.50000000E+00  1.50000000E+00  8.00000000E-01  8.00000000E-01
  1.50000000E+00  1.50000000E+00  8.00000000E-01  8.00000000E-01  1.50000000E+00
  1.50000000E+00  8.00000000E-01  8.00000000E-01  1.50000000E+00  1.50000000E+00
  8.00000000E-01  8.00000000E-01  1.50000000E+00  1.50000000E+00  8.00000000E-01
  8.00000000E-01  1.50000000E+00  1.50000000E+00  8.00000000E-01  8.00000000E-01
  1.50000000E+00  1.50000000E+00  8.00000000E-01  8.00000000E-01  1.50000000E+00
  1.50000000E+00  8.00000000E-01  8.00000000E-01  1.50000000E+00  1.50000000E+00
  8.00000000E-01  8.00000000E-01  1.50000000E+00  1.50000000E+00  8.00000000E-01
  8.00000000E-01  1.50000000E+00  1.50000000E+00  8.00000000E-01  8.00000000E-01
  1.50000000E+00  1.50000000E+00  8.00000000E-01  8.00000000E-01  1.50000000E+00
  1.50000000E+00  8.00000000E-01  8.00000000E-01  1.50000000E+00  1.50000000E+00
  8.00000000E-01  8.00000000E-01  1.50000000E+00  1.50000000E+00  8.00000000E-01
  8.00000000E-01  1.50000000E+00  1.50000000E+00  8.00000000E-01  8.00000000E-01
  1.50000000E+00  1.50000000E+00  8.00000000E-01  8.00000000E-01  1.50000000E+00
  1.50000000E+00  8.00000000E-01  8.00000000E-01  1.50000000E+00  1.50000000E+00
  8.00000000E-01  8.00000000E-01  1.50000000E+00  1.50000000E+00  8.00000000E-01
  8.00000000E-01  1.50000000E+00  1.50000000E+00  8.00000000E-01  8.00000000E-01
  1.50000000E+00  1.50000000E+00  8.00000000E-01  8.00000000E-01  1.50000000E+00
  1.50000000E+00  8.00000000E-01  8.00000000E-01  1.50000000E+00  1.50000000E+00
  8.00000000E-01  8.00000000E-01  1.50000000E+00  1.50000000E+00  8.00000000E-01
  8.00000000E-01  1.50000000E+00  1.50000000E+00  8.00000000E-01  8.00000000E-01
  1.50000000E+00  1.50000000E+00  8.00000000E-01  8.00000000E-01  1.50000000E+00
  1.50000000E+00  8.00000000E-01  8.00000000E-01  1.50000000E+00  1.50000000E+00
  8.00000000E-01  8.00000000E-01  1.50000000E+00  1.50000000E+00  8.00000000E-01
  8.00000000E-01  1.50000000E+00  1.50000000E+00  8.00000000E-01  8.00000000E-01
  1.50000000E+00  1.50000000E+00  8.00000000E-01  8.00000000E-01  1.50000000E+00
  1.50000000E+00  8.00000000E-01  8.00000000E-01  1.50000000E+00  1.50000000E+00
  8.00000000E-01  8.00000000E-01  1.50000000E+00  1.50000000E+00  8.00000000E-01
  8.00000000E-01  1.50000000E+00  1.50000000E+00  8.00000000E-01  8.00000000E-01
  1.50000000E+00  1.50000000E+00  8.00000000E-01  8.00000000E-01  1.50000000E+00
  1.50000000E+00  8.00000000E-01  8.00000000E-01  1.50000000E+00  1.50000000E+00
  8.00000000E-01  8.00000000E-01  1.50000000E+00  1.50000000E+00  8.00000000E-01
  8.00000000E-01  1.50000000E+00  1.50000000E+00  8.00000000E-01  8.00000000E-01
  1.50000000E+00  1.50000000E+00  8.00000000E-01  8.00000000E-01  1.50000000E+00
  1.50000000E+00  8.00000000E-01  8.00000000E-01  1.50000000E+00  1.50000000E+00
  8.00000000E-01  8.00000000E-01  1.50000000E+00  1.50000000E+00  8.00000000E-01
  8.00000000E-01  1.50000000E+00  1.50000000E+00  8.00000000E-01  8.00000000E-01
  1.50000000E+00  1.50000000E+00  8.00000000E-01  8.00000000E-01  1.50000000E+00
  1.50000000E+00  8.00000000E-01  8.00000000E-01  1.50000000E+00  1.50000000E+00
  8.00000000E-01  8.00000000E-01  1.50000000E+00  1.50000000E+00  8.00000000E-01
  8.00000000E-01  1.50000000E+00  1.50000000E+00  8.00000000E-01  8.00000000E-01
  1.50000000E+00  1.50000000E+00  8.00000000E-01  8.00000000E-01  1.50000000E+00
  1.50000000E+00  8.00000000E-01  8.00000000E-01  1.50000000E+00  1.50000000E+00
  8.00000000E-01  8.00000000E-01  1.50000000E+00  1.50000000E+00  8.00000000E-01
  8.00000000E-01  1.50000000E+00  1.50000000E+00  8.00000000E-01  8.00000000E-01
  1.50000000E+00  1.50000000E+00  8.00000000E-01  8.00000000E-01  1.50000000E+00
  1.50000000E+00  8.00000000E-01  8.00000000E-01  1.50000000E+00  1.50000000E+00
  8.00000000E-01  8.00000000E-01  1.50000000E+00  1.50000000E+00  8.00000000E-01
  8.00000000E-01  1.50000000E+00  1.50000000E+00  8.00000000E-01  8.00000000E-01
  1.50000000E+00  1.50000000E+00  8.00000000E-01  8.00000000E-01  1.50000000E+00
  1.50000000E+00  8.00000000E-01  8.00000000E-01  1.50000000E+00  1.50000000E+00
  8.00000000E-01  8.00000000E-01  1.50000000E+00  1.50000000E+00  8.00000000E-01
  8.00000000E-01  1.50000000E+00  1.50000000E+00  8.00000000E-01  8.00000000E-01
  1.50000000E+00  1.50000000E+00  8.00000000E-01  8.00000000E-01  1.50000000E+00
  1.50000000E+00  8.00000000E-01  8.00000000E-01  1.50000000E+00  1.50000000E+00
  8.00000000E-01  8.00000000E-01  1.50000000E+00  1.50000000E+00  8.00000000E-01
  8.00000000E-01  1.50000000E+00  1.50000000E+00  8.00000000E-01  8.00000000E-01
  1.50000000E+00  1.50000000E+00  8.00000000E-01  8.00000000E-01  1.50000000E+00
  1.50000000E+00  8.00000000E-01  8.00000000E-01  1.50000000E+00  1.50000000E+00
  8.00000000E-01  8.00000000E-01  1.50000000E+00  1.50000000E+00  8.00000000E-01
  8.00000000E-01  1.50000000E+00  1.50000000E+00  8.00000000E-01  8.00000000E-01
  1.50000000E+00  1.50000000E+00  8.00000000E-01  8.00000000E-01  1.50000000E+00
  1.50000000E+00  8.00000000E-01  8.00000000E-01  1.50000000E+00  1.50000000E+00
  8.00000000E-01  8.00000000E-01  1.50000000E+00  1.50000000E+00  8.00000000E-01
  8.00000000E-01  1.50000000E+00  1.50000000E+00  8.00000000E-01  8.00000000E-01
  1.50000000E+00  1.50000000E+00  8.00000000E-01  8.00000000E-01  1.50000000E+00
  1.50000000E+00  8.00000000E-01  8.00000000E-01  1.50000000E+00  1.50000000E+00
  8.00000000E-01  8.00000000E-01  1.50000000E+00  1.50000000E+00  8.00000000E-01
  8.00000000E-01  1.50000000E+00  1.50000000E+00  8.00000000E-01  8.00000000E-01
  1.50000000E+00  1.50000000E+00  8.00000000E-01  8.00000000E-01  1.50000000E+00
  1.50000000E+00  8.00000000E-01  8.00000000E-01  1.50000000E+00  1.50000000E+00
  8.00000000E-01  8.00000000E-01  1.50000000E+00  1.50000000E+00  8.00000000E-01
  8.00000000E-01  1.50000000E+00  1.50000000E+00  8.00000000E-01  8.00000000E-01
  1.50000000E+00  1.50000000E+00  8.00000000E-01  8.00000000E-01  1.50000000E+00
  1.50000000E+00  8.00000000E-01  8.00000000E-01  1.50000000E+00  1.50000000E+00
  8.00000000E-01  8.00000000E-01  1.50000000E+00  1.50000000E+00  8.00000000E-01
  8.00000000E-01  1.50000000E+00  1.50000000E+00  8.00000000E-01  8.00000000E-01
  1.50000000E+00  1.50000000E+00  8.00000000E-01  8.00000000E-01  1.50000000E+00
  1.50000000E+00  8.00000000E-01  8.00000000E-01  1.50000000E+00  1.50000000E+00
  8.00000000E-01  8.00000000E-01  1.50000000E+00  1.50000000E+00  8.00000000E-01
  8.00000000E-01  1.50000000E+00  1.50000000E+00  8.00000000E-01  8.00000000E-01
  1.50000000E+00  1.50000000E+00  8.00000000E-01  8.00000000E-01  1.50000000E+00
  1.50000000E+00  8.00000000E-01  8.00000000E-01  1.50000000E+00  1.50000000E+00
  8.00000000E-01  8.00000000E-01  1.50000000E+00  1.50000000E+00  8.00000000E-01
  8.00000000E-01  1.50000000E+00  1.50000000E+00  8.00000000E-01  8.00000000E-01
  1.50000000E+00  1.50000000E+00  8.00000000E-01  8.00000000E-01  1.50000000E+00
  1.50000000E+00  8.00000000E-01  8.00000000E-01  1.50000000E+00  1.50000000E+00
  8.00000000E-01  8.00000000E-01  1.50000000E+00  1.50000000E+00  8.00000000E-01
  8.00000000E-01  1.50000000E+00  1.50000000E+00  8.00000000E-01  8.00000000E-01
  1.50000000E+00  1.50000000E+00  8.00000000E-01  8.00000000E-01  1.50000000E+00
  1.50000000E+00  8.00000000E-01  8.00000000E-01  1.50000000E+00  1.50000000E+00
  8.00000000E-01  8.00000000E-01  1.50000000E+00  1.50000000E+00  8.00000000E-01
  8.00000000E-01  1.50000000E+00  1.50000000E+00  8.00000000E-01  8.00000000E-01
  1.50000000E+00  1.50000000E+00  8.00000000E-01  8.00000000E-01  1.50000000E+00
  1.50000000E+00  8.00000000E-01  8.00000000E-01  1.50000000E+00  1.50000000E+00
  8.00000000E-01  8.00000000E-01  1.50000000E+00  1.50000000E+00  8.00000000E-01
  8.00000000E-01  1.50000000E+00  1.50000000E+00  8.00000000E-01  8.00000000E-01
  1.50000000E+00  1.50000000E+00  8.00000000E-01  8.00000000E-01  1.50000000E+00
  1.50000000E+00  8.00000000E-01  8.00000000E-01  1.50000000E+00  1.50000000E+00
  8.00000000E-01  8.00000000E-01  1.50000000E+00  1.50000000E+00  8.00000000E-01
  8.00000000E-01  1.50000000E+00  1.50000000E+00  8.00000000E-01  8.00000000E-01
  1.50000000E+00  1.50000000E+00  8.00000000E-01  8.00000000E-01  1.50000000E+00
  1.50000000E+00  8.00000000E-01  8.00000000E-01  1.50000000E+00  1.50000000E+00
  8.00000000E-01  8.00000000E-01  1.50000000E+00  1.50000000E+00  8.00000000E-01
  8.00000000E-01  1.50000000E+00  1.50000000E+00  8.00000000E-01  8.00000000E-01
  1.50000000E+00  1.50000000E+00  8.00000000E-01  8.00000000E-01  1.50000000E+00
  1.50000000E+00  8.00000000E-01  8.00000000E-01  1.50000000E+00  1.50000000E+00
  8.00000000E-01  8.00000000E-01  1.50000000E+00  1.50000000E+00  8.00000000E-01
  8.00000000E-01  1.50000000E+00  1.50000000E+00  8.00000000E-01  8.00000000E-01
  1.50000000E+00  1.50000000E+00  8.00000000E-01  8.00000000E-01  1.50000000E+00
  1.50000000E+00  8.00000000E-01  8.00000000E-01  1.50000000E+00  1.50000000E+00
  8.00000000E-01  8.00000000E-01  1.50000000E+00  1.50000000E+00  8.00000000E-01
  8.00000000E-01  1.50000000E+00  1.50000000E+00  8.00000000E-01  8.00000000E-01
  1.50000000E+00  1.50000000E+00  8.00000000E-01  8.00000000E-01  1.50000000E+00
  1.50000000E+00  8.00000000E-01  8.00000000E-01  1.50000000E+00  1.50000000E+00
  8.00000000E-01  8.00000000E-01  1.50000000E+00  1.50000000E+00  8.00000000E-01
  8.00000000E-01  1.50000000E+00  1.50000000E+00  8.00000000E-01  8.00000000E-01
  1.50000000E+00  1.50000000E+00  8.00000000E-01  8.00000000E-01  1.50000000E+00
  1.50000000E+00  8.00000000E-01  8.00000000E-01  1.50000000E+00  1.50000000E+00
  8.00000000E-01  8.00000000E-01  1.50000000E+00  1.50000000E+00  8.00000000E-01
  8.00000000E-01  1.50000000E+00  1.50000000E+00  8.00000000E-01  8.00000000E-01
  1.50000000E+00  1.50000000E+00  8.00000000E-01  8.00000000E-01  1.50000000E+00
  1.50000000E+00  8.00000000E-01  8.00000000E-01  1.50000000E+00  1.50000000E+00
  8.00000000E-01  8.00000000E-01  1.50000000E+00  1.50000000E+00  8.00000000E-01
  8.00000000E-01  1.50000000E+00  1.50000000E+00  8.00000000E-01  8.00000000E-01
  1.50000000E+00  1.50000000E+00  8.00000000E-01  8.00000000E-01  1.50000000E+00
  1.50000000E+00  8.00000000E-01  8.00000000E-01  1.50000000E+00  1.50000000E+00
  8.00000000E-01  8.00000000E-01  1.50000000E+00  1.50000000E+00  8.00000000E-01
  8.00000000E-01  1.50000000E+00  1.50000000E+00  8.00000000E-01  8.00000000E-01
  1.50000000E+00  1.50000000E+00  8.00000000E-01  8.00000000E-01  1.50000000E+00
  1.50000000E+00  8.00000000E-01  8.00000000E-01  1.50000000E+00  1.50000000E+00
  8.00000000E-01  8.00000000E-01  1.50000000E+00  1.50000000E+00  8.00000000E-01
  8.00000000E-01  1.50000000E+00  1.50000000E+00  8.00000000E-01  8.00000000E-01
  1.50000000E+00  1.50000000E+00  8.00000000E-01  8.00000000E-01  1.50000000E+00
  1.50000000E+00  8.00000000E-01  8.00000000E-01  1.50000000E+00  1.50000000E+00
  8.00000000E-01  8.00000000E-01  1.50000000E+00  1.50000000E+00  8.00000000E-01
  8.00000000E-01  1.50000000E+00  1.50000000E+00  8.00000000E-01  8.00000000E-01
  1.50000000E+00  1.50000000E+00  8.00000000E-01  8.00000000E-01  1.50000000E+00
  1.50000000E+00  8.00000000E-01  8.00000000E-01  1.50000000E+00  1.50000000E+00
  8.00000000E-01  8.00000000E-01  1.50000000E+00  1.50000000E+00  8.00000000E-01
  8.00000000E-01  1.50000000E+00  1.50000000E+00  8.00000000E-01  8.00000000E-01
  1.50000000E+00  1.50000000E+00  8.00000000E-01  8.00000000E-01  1.50000000E+00
  1.50000000E+00  8.00000000E-01  8.00000000E-01  1.50000000E+00  1.50000000E+00
  8.00000000E-01  8.00000000E-01  1.50000000E+00  1.50000000E+00  8.00000000E-01
  8.00000000E-01  1.50000000E+00  1.50000000E+00  8.00000000E-01  8.00000000E-01
  1.50000000E+00  1.50000000E+00  8.00000000E-01  8.00000000E-01  1.50000000E+00
  1.50000000E+00  8.00000000E-01  8.00000000E-01  1.50000000E+00  1.50000000E+00
  8.00000000E-01  8.00000000E-01  1.50000000E+00  1.50000000E+00  8.00000000E-01
  8.00000000E-01  1.50000000E+00  1.50000000E+00  8.00000000E-01  8.00000000E-01
  1.50000000E+00  1.50000000E+00  8.00000000E-01  8.00000000E-01  1.50000000E+00
  1.50000000E+00  8.00000000E-01  8.00000000E-01  1.50000000E+00  1.50000000E+00
  8.00000000E-01  8.00000000E-01  1.50000000E+00  1.50000000E+00  8.00000000E-01
  8.00000000E-01  1.50000000E+00  1.50000000E+00  8.00000000E-01  8.00000000E-01
  1.50000000E+00  1.50000000E+00  8.00000000E-01  8.00000000E-01  1.50000000E+00
  1.50000000E+00  8.00000000E-01  8.00000000E-01  1.50000000E+00  1.50000000E+00
  8.00000000E-01  8.00000000E-01  1.50000000E+00  1.50000000E+00  8.00000000E-01
  8.00000000E-01  1.50000000E+00  1.50000000E+00  8.00000000E-01  8.00000000E-01
  1.50000000E+00  1.50000000E+00  8.00000000E-01  8.00000000E-01  1.50000000E+00
  1.50000000E+00  8.00000000E-01  8.00000000E-01  1.50000000E+00  1.50000000E+00
  8.00000000E-01  8.00000000E-01  1.50000000E+00  1.50000000E+00  8.00000000E-01
  8.00000000E-01  1.50000000E+00  1.50000000E+00  8.00000000E-01  8.00000000E-01
  1.50000000E+00  1.50000000E+00  8.00000000E-01  8.00000000E-01  1.50000000E+00
  1.50000000E+00  8.00000000E-01  8.00000000E-01  1.50000000E+00  1.50000000E+00
  8.00000000E-01  8.00000000E-01  1.50000000E+00  1.50000000E+00  8.00000000E-01
  8.00000000E-01  1.50000000E+00  1.50000000E+00  8.00000000E-01  8.00000000E-01
  1.50000000E+00  1.50000000E+00  8.00000000E-01  8.00000000E-01  1.50000000E+00
  1.50000000E+00  8.00000000E-01  8.00000000E-01  1.50000000E+00  1.50000000E+00
  8.00000000E-01  8.00000000E-01  1.50000000E+00  1.50000000E+00  8.00000000E-01
  8.00000000E-01  1.50000000E+00  1.50000000E+00  8.00000000E-01  8.00000000E-01
  1.50000000E+00  1.50000000E+00  8.00000000E-01  8.00000000E-01  1.50000000E+00
  1.50000000E+00  8.00000000E-01  8.00000000E-01  1.50000000E+00  1.50000000E+00
  8.00000000E-01  8.00000000E-01  1.50000000E+00  1.50000000E+00  8.00000000E-01
  8.00000000E-01  1.50000000E+00  1.50000000E+00  8.00000000E-01  8.00000000E-01
  1.50000000E+00  1.50000000E+00  8.00000000E-01  8.00000000E-01  1.50000000E+00
  1.50000000E+00  8.00000000E-01  8.00000000E-01  1.50000000E+00  1.50000000E+00
  8.00000000E-01  8.00000000E-01  1.50000000E+00  1.50000000E+00  8.00000000E-01
  8.00000000E-01  1.50000000E+00  1.50000000E+00  8.00000000E-01  8.00000000E-01
  1.50000000E+00  1.50000000E+00  8.00000000E-01  8.00000000E-01  1.50000000E+00
  1.50000000E+00  8.00000000E-01  8.00000000E-01  1.50000000E+00  1.50000000E+00
  8.00000000E-01  8.00000000E-01  1.50000000E+00  1.50000000E+00  8.00000000E-01
  8.00000000E-01  1.50000000E+00  1.50000000E+00  8.00000000E-01  8.00000000E-01
  1.50000000E+00  1.50000000E+00  8.00000000E-01  8.00000000E-01  1.50000000E+00
  1.50000000E+00  8.00000000E-01  8.00000000E-01  1.50000000E+00  1.50000000E+00
  8.00000000E-01  8.00000000E-01  1.50000000E+00  1.50000000E+00  8.00000000E-01
  8.00000000E-01  1.50000000E+00  1.50000000E+00  8.00000000E-01  8.00000000E-01
  1.50000000E+00  1.50000000E+00  8.00000000E-01  8.00000000E-01  1.50000000E+00
  1.50000000E+00  8.00000000E-01  8.00000000E-01  1.50000000E+00  1.50000000E+00
  8.00000000E-01  8.00000000E-01  1.50000000E+00  1.50000000E+00  8.00000000E-01
  8.00000000E-01  1.50000000E+00  1.50000000E+00  8.00000000E-01  8.00000000E-01
  1.50000000E+00  1.50000000E+00  8.00000000E-01  8.00000000E-01  1.50000000E+00
  1.50000000E+00  8.00000000E-01  8.00000000E-01  1.50000000E+00  1.50000000E+00
  8.00000000E-01  8.00000000E-01  1.50000000E+00  1.50000000E+00  8.00000000E-01
  8.00000000E-01  1.50000000E+00  1.50000000E+00  8.00000000E-01  8.00000000E-01
  1.50000000E+00  1.50000000E+00  8.00000000E-01  8.00000000E-01  1.50000000E+00
  1.50000000E+00  8.00000000E-01  8.00000000E-01  1.50000000E+00  1.50000000E+00
  8.00000000E-01  8.00000000E-01  1.50000000E+00  1.50000000E+00  8.00000000E-01
  8.00000000E-01  1.50000000E+00  1.50000000E+00  8.00000000E-01  8.00000000E-01
  1.50000000E+00  1.50000000E+00  8.00000000E-01  8.00000000E-01  1.50000000E+00
  1.50000000E+00  8.00000000E-01  8.00000000E-01  1.50000000E+00  1.50000000E+00
  8.00000000E-01  8.00000000E-01  1.50000000E+00  1.50000000E+00  8.00000000E-01
  8.00000000E-01  1.50000000E+00  1.50000000E+00  8.00000000E-01  8.00000000E-01
  1.50000000E+00  1.50000000E+00  8.00000000E-01  8.00000000E-01  1.50000000E+00
  1.50000000E+00  8.00000000E-01  8.00000000E-01  1.50000000E+00  1.50000000E+00
  8.00000000E-01  8.00000000E-01  1.50000000E+00  1.50000000E+00  8.00000000E-01
  8.00000000E-01  1.50000000E+00  1.50000000E+00  8.00000000E-01  8.00000000E-01
  1.50000000E+00  1.50000000E+00  8.00000000E-01  8.00000000E-01  1.50000000E+00
  1.50000000E+00  8.00000000E-01  8.00000000E-01  1.50000000E+00  1.50000000E+00
  8.00000000E-01  8.00000000E-01  1.50000000E+00  1.50000000E+00  8.00000000E-01
  8.00000000E-01  1.50000000E+00  1.50000000E+00  8.00000000E-01  8.00000000E-01
  1.50000000E+00  1.50000000E+00  8.00000000E-01  8.00000000E-01  1.50000000E+00
  1.50000000E+00  8.00000000E-01  8.00000000E-01  1.50000000E+00  1.50000000E+00
  8.00000000E-01  8.00000000E-01  1.50000000E+00  1.50000000E+00  8.00000000E-01
  8.00000000E-01  1.50000000E+00  1.50000000E+00  8.00000000E-01  8.00000000E-01
  1.50000000E+00  1.50000000E+00  8.00000000E-01  8.00000000E-01  1.50000000E+00
  1.50000000E+00  8.00000000E-01  8.00000000E-01  1.50000000E+00  1.50000000E+00
  8.00000000E-01  8.00000000E-01  1.50000000E+00  1.50000000E+00  8.00000000E-01
  8.00000000E-01  1.50000000E+00  1.50000000E+00  8.00000000E-01  8.00000000E-01
  1.50000000E+00  1.50000000E+00  8.00000000E-01  8.00000000E-01  1.50000000E+00
  1.50000000E+00  8.00000000E-01  8.00000000E-01  1.50000000E+00  1.50000000E+00
  8.00000000E-01  8.00000000E-01  1.50000000E+00  1.50000000E+00  8.00000000E-01
  8.00000000E-01  1.50000000E+00  1.50000000E+00  8.00000000E-01  8.00000000E-01
  1.50000000E+00  1.50000000E+00  8.00000000E-01  8.00000000E-01  1.50000000E+00
  1.50000000E+00  8.00000000E-01  8.00000000E-01  1.50000000E+00  1.50000000E+00
  8.00000000E-01  8.00000000E-01  1.50000000E+00  1.50000000E+00  8.00000000E-01
  8.00000000E-01  1.50000000E+00  1.50000000E+00  8.00000000E-01  8.00000000E-01
  1.50000000E+00  1.50000000E+00  8.00000000E-01  8.00000000E-01  1.50000000E+00
  1.50000000E+00  8.00000000E-01  8.00000000E-01  1.50000000E+00  1.50000000E+00
  8.00000000E-01  8.00000000E-01  1.50000000E+00  1.50000000E+00  8.00000000E-01
  8.00000000E-01  1.50000000E+00  1.50000000E+00  8.00000000E-01  8.00000000E-01
  1.50000000E+00  1.50000000E+00  8.00000000E-01  8.00000000E-01  1.50000000E+00
  1.50000000E+00  8.00000000E-01  8.00000000E-01  1.50000000E+00  1.50000000E+00
  8.00000000E-01  8.00000000E-01  1.50000000E+00  1.50000000E+00  8.00000000E-01
  8.00000000E-01  1.50000000E+00  1.50000000E+00  8.00000000E-01  8.00000000E-01
  1.50000000E+00  1.50000000E+00  8.00000000E-01  8.00000000E-01  1.50000000E+00
  1.50000000E+00  8.00000000E-01  8.00000000E-01  1.50000000E+00  1.50000000E+00
  8.00000000E-01  8.00000000E-01  1.50000000E+00  1.50000000E+00  8.00000000E-01
  8.00000000E-01  1.50000000E+00  1.50000000E+00  8.00000000E-01  8.00000000E-01
  1.50000000E+00  1.50000000E+00  8.00000000E-01  8.00000000E-01  1.50000000E+00
  1.50000000E+00  8.00000000E-01  8.00000000E-01  1.50000000E+00  1.50000000E+00
  8.00000000E-01  8.00000000E-01  1.50000000E+00  1.50000000E+00  8.00000000E-01
  8.00000000E-01  1.50000000E+00  1.50000000E+00  8.00000000E-01  8.00000000E-01
  1.50000000E+00  1.50000000E+00  8.00000000E-01  8.00000000E-01  1.50000000E+00
  1.50000000E+00  8.00000000E-01  8.00000000E-01  1.50000000E+00  1.50000000E+00
  8.00000000E-01  8.00000000E-01  1.50000000E+00  1.50000000E+00  8.00000000E-01
  8.00000000E-01  1.50000000E+00  1.50000000E+00  8.00000000E-01  8.00000000E-01
  1.50000000E+00  1.50000000E+00  8.00000000E-01  8.00000000E-01  1.50000000E+00
  1.50000000E+00  8.00000000E-01  8.00000000E-01  1.50000000E+00  1.50000000E+00
  8.00000000E-01  8.00000000E-01  1.50000000E+00  1.50000000E+00  8.00000000E-01
  8.00000000E-01  1.50000000E+00  1.50000000E+00  8.00000000E-01  8.00000000E-01
  1.50000000E+00  1.50000000E+00  8.00000000E-01  8.00000000E-01  1.50000000E+00
  1.50000000E+00  8.00000000E-01  8.00000000E-01  1.50000000E+00  1.50000000E+00
  8.00000000E-01  8.00000000E-01  1.50000000E+00  1.50000000E+00  8.00000000E-01
  8.00000000E-01  1.50000000E+00  1.50000000E+00  8.00000000E-01  8.00000000E-01
  1.50000000E+00  1.50000000E+00  8.00000000E-01  8.00000000E-01  1.50000000E+00
  1.50000000E+00  8.00000000E-01  8.00000000E-01  1.50000000E+00  1.50000000E+00
  8.00000000E-01  8.00000000E-01  1.50000000E+00  1.50000000E+00  8.00000000E-01
  8.00000000E-01  1.50000000E+00  1.50000000E+00  8.00000000E-01  8.00000000E-01
  1.50000000E+00  1.50000000E+00  8.00000000E-01  8.00000000E-01  1.50000000E+00
  1.50000000E+00  8.00000000E-01  8.00000000E-01  1.50000000E+00  1.50000000E+00
  8.00000000E-01  8.00000000E-01  1.50000000E+00  1.50000000E+00  8.00000000E-01
  8.00000000E-01  1.50000000E+00  1.50000000E+00  8.00000000E-01  8.00000000E-01
  1.50000000E+00  1.50000000E+00  8.00000000E-01  8.00000000E-01  1.50000000E+00
  1.50000000E+00  8.00000000E-01  8.00000000E-01  1.50000000E+00  1.50000000E+00
  8.00000000E-01  8.00000000E-01  1.50000000E+00  1.50000000E+00  8.00000000E-01
  8.00000000E-01  1.50000000E+00  1.50000000E+00  8.00000000E-01  8.00000000E-01
  1.50000000E+00  1.50000000E+00  8.00000000E-01  8.00000000E-01  1.50000000E+00
  1.50000000E+00  8.00000000E-01  8.00000000E-01  1.50000000E+00  1.50000000E+00
  8.00000000E-01  8.00000000E-01  1.50000000E+00  1.50000000E+00  8.00000000E-01
  8.00000000E-01  1.50000000E+00  1.50000000E+00  8.00000000E-01  8.00000000E-01
  1.50000000E+00  1.50000000E+00  8.00000000E-01  8.00000000E-01  1.50000000E+00
  1.50000000E+00  8.00000000E-01  8.00000000E-01  1.50000000E+00  1.50000000E+00
  8.00000000E-01  8.00000000E-01  1.50000000E+00  1.50000000E+00  8.00000000E-01
  8.00000000E-01  1.50000000E+00  1.50000000E+00  8.00000000E-01  8.00000000E-01
  1.50000000E+00  1.50000000E+00  8.00000000E-01  8.00000000E-01  1.50000000E+00
  1.50000000E+00  8.00000000E-01  8.00000000E-01  1.50000000E+00  1.50000000E+00
  8.00000000E-01  8.00000000E-01  1.50000000E+00  1.50000000E+00  8.00000000E-01
  8.00000000E-01  1.50000000E+00  1.50000000E+00  8.00000000E-01  8.00000000E-01
  1.50000000E+00  1.50000000E+00  8.00000000E-01  8.00000000E-01  1.50000000E+00
  1.50000000E+00  8.00000000E-01  8.00000000E-01  1.50000000E+00  1.50000000E+00
  8.00000000E-01  8.00000000E-01  1.50000000E+00  1.50000000E+00  8.00000000E-01
  8.00000000E-01  1.50000000E+00  1.50000000E+00  8.00000000E-01  8.00000000E-01
  1.50000000E+00  1.50000000E+00  8.00000000E-01  8.00000000E-01  1.50000000E+00
  1.50000000E+00  8.00000000E-01  8.00000000E-01  1.50000000E+00  1.50000000E+00
  8.00000000E-01  8.00000000E-01  1.50000000E+00  1.50000000E+00  8.00000000E-01
  8.00000000E-01  1.50000000E+00  1.50000000E+00  8.00000000E-01  8.00000000E-01
  1.50000000E+00  1.50000000E+00  8.00000000E-01  8.00000000E-01  1.50000000E+00
  1.50000000E+00  8.00000000E-01  8.00000000E-01  1.50000000E+00  1.50000000E+00
  8.00000000E-01  8.00000000E-01  1.50000000E+00  1.50000000E+00  8.00000000E-01
  8.00000000E-01  1.50000000E+00  1.50000000E+00  8.00000000E-01  8.00000000E-01
  1.50000000E+00  1.50000000E+00  8.00000000E-01  8.00000000E-01  1.50000000E+00
  1.50000000E+00  8.00000000E-01  8.00000000E-01  1.50000000E+00  1.50000000E+00
  8.00000000E-01  8.00000000E-01  1.50000000E+00  1.50000000E+00  8.00000000E-01
  8.00000000E-01  1.50000000E+00  1.50000000E+00  8.00000000E-01  8.00000000E-01
  1.50000000E+00  1.50000000E+00  8.00000000E-01  8.00000000E-01  1.50000000E+00
  1.50000000E+00  8.00000000E-01  8.00000000E-01  1.50000000E+00  1.50000000E+00
  8.00000000E-01  8.00000000E-01  1.50000000E+00  1.50000000E+00  8.00000000E-01
  8.00000000E-01  1.50000000E+00  1.50000000E+00  8.00000000E-01  8.00000000E-01
  1.50000000E+00  1.50000000E+00  8.00000000E-01  8.00000000E-01  1.50000000E+00
  1.50000000E+00  8.00000000E-01  8.00000000E-01  1.50000000E+00  1.50000000E+00
  8.00000000E-01  8.00000000E-01  1.50000000E+00  1.50000000E+00  8.00000000E-01
  8.00000000E-01  1.50000000E+00  1.50000000E+00  8.00000000E-01  8.00000000E-01
  1.50000000E+00  1.50000000E+00  8.00000000E-01  8.00000000E-01  1.50000000E+00
  1.50000000E+00  8.00000000E-01  8.00000000E-01  1.50000000E+00  1.50000000E+00
  8.00000000E-01  8.00000000E-01  1.50000000E+00  1.50000000E+00  8.00000000E-01
  8.00000000E-01  1.50000000E+00  1.50000000E+00  8.00000000E-01  8.00000000E-01
  1.50000000E+00  1.50000000E+00  8.00000000E-01  8.00000000E-01  1.50000000E+00
  1.50000000E+00  8.00000000E-01  8.00000000E-01  1.50000000E+00  1.50000000E+00
  8.00000000E-01  8.00000000E-01  1.50000000E+00  1.50000000E+00  8.00000000E-01
  8.00000000E-01  1.50000000E+00  1.50000000E+00  8.00000000E-01  8.00000000E-01
  1.50000000E+00  1.50000000E+00  8.00000000E-01  8.00000000E-01  1.50000000E+00
  1.50000000E+00  8.00000000E-01  8.00000000E-01  1.50000000E+00  1.50000000E+00
  8.00000000E-01  8.00000000E-01  1.50000000E+00  1.50000000E+00  8.00000000E-01
  8.00000000E-01  1.50000000E+00  1.50000000E+00  8.00000000E-01  8.00000000E-01
  1.50000000E+00  1.50000000E+00  8.00000000E-01  8.00000000E-01  1.50000000E+00
  1.50000000E+00  8.00000000E-01  8.00000000E-01  1.50000000E+00  1.50000000E+00
  8.00000000E-01  8.00000000E-01  1.50000000E+00  1.50000000E+00  8.00000000E-01
  8.00000000E-01  1.50000000E+00  1.50000000E+00  8.00000000E-01  8.00000000E-01
  1.50000000E+00  1.50000000E+00  8.00000000E-01  8.00000000E-01  1.50000000E+00
  1.50000000E+00  8.00000000E-01  8.00000000E-01  1.50000000E+00  1.50000000E+00
  8.00000000E-01  8.00000000E-01  1.50000000E+00  1.50000000E+00  8.00000000E-01
  8.00000000E-01  1.50000000E+00  1.50000000E+00  8.00000000E-01  8.00000000E-01
  1.50000000E+00  1.50000000E+00  8.00000000E-01  8.00000000E-01  1.50000000E+00
  1.50000000E+00  8.00000000E-01  8.00000000E-01  1.50000000E+00  1.50000000E+00
  8.00000000E-01  8.00000000E-01  1.50000000E+00  1.50000000E+00  8.00000000E-01
  8.00000000E-01  1.50000000E+00  1.50000000E+00  8.00000000E-01  8.00000000E-01
  1.50000000E+00  1.50000000E+00  8.00000000E-01  8.00000000E-01  1.50000000E+00
  1.50000000E+00  8.00000000E-01  8.00000000E-01  1.50000000E+00  1.50000000E+00
  8.00000000E-01  8.00000000E-01  1.50000000E+00  1.50000000E+00  8.00000000E-01
  8.00000000E-01  1.50000000E+00  1.50000000E+00  8.00000000E-01  8.00000000E-01
  1.50000000E+00  1.50000000E+00  8.00000000E-01  8.00000000E-01  1.50000000E+00
  1.50000000E+00  8.00000000E-01  8.00000000E-01  1.50000000E+00  1.50000000E+00
  8.00000000E-01  8.00000000E-01  1.50000000E+00  1.50000000E+00  8.00000000E-01
  8.00000000E-01  1.50000000E+00  1.50000000E+00  8.00000000E-01  8.00000000E-01
  1.50000000E+00  1.50000000E+00  8.00000000E-01  8.00000000E-01  1.50000000E+00
  1.50000000E+00  8.00000000E-01  8.00000000E-01  1.50000000E+00  1.50000000E+00
  8.00000000E-01  8.00000000E-01  1.50000000E+00  1.50000000E+00  8.00000000E-01
  8.00000000E-01  1.50000000E+00  1.50000000E+00  8.00000000E-01  8.00000000E-01
  1.50000000E+00  1.50000000E+00  8.00000000E-01  8.00000000E-01  1.50000000E+00
  1.50000000E+00  8.00000000E-01  8.00000000E-01  1.50000000E+00  1.50000000E+00
  8.00000000E-01  8.00000000E-01  1.50000000E+00  1.50000000E+00  8.00000000E-01
  8.00000000E-01  1.50000000E+00  1.50000000E+00  8.00000000E-01  8.00000000E-01
  1.50000000E+00  1.50000000E+00  8.00000000E-01  8.00000000E-01  1.50000000E+00
  1.50000000E+00  8.00000000E-01  8.00000000E-01  1.50000000E+00  1.50000000E+00
  8.00000000E-01  8.00000000E-01  1.50000000E+00  1.50000000E+00  8.00000000E-01
  8.00000000E-01  1.50000000E+00  1.50000000E+00  8.00000000E-01  8.00000000E-01
  1.50000000E+00  1.50000000E+00  8.00000000E-01  8.00000000E-01  1.50000000E+00
  1.50000000E+00  8.00000000E-01  8.00000000E-01  1.50000000E+00  1.50000000E+00
  8.00000000E-01  8.00000000E-01  1.50000000E+00  1.50000000E+00  8.00000000E-01
  8.00000000E-01  1.50000000E+00  1.50000000E+00  8.00000000E-01  8.00000000E-01
  1.50000000E+00  1.50000000E+00  8.00000000E-01  8.00000000E-01  1.50000000E+00
  1.50000000E+00  8.00000000E-01  8.00000000E-01  1.50000000E+00  1.50000000E+00
  8.00000000E-01  8.00000000E-01  1.50000000E+00  1.50000000E+00  8.00000000E-01
  8.00000000E-01  1.50000000E+00  1.50000000E+00  8.00000000E-01  8.00000000E-01
  1.50000000E+00  1.50000000E+00  8.00000000E-01  8.00000000E-01  1.50000000E+00
  1.50000000E+00  8.00000000E-01  8.00000000E-01  1.50000000E+00  1.50000000E+00
  8.00000000E-01  8.00000000E-01  1.50000000E+00  1.50000000E+00  8.00000000E-01
  8.00000000E-01  1.50000000E+00  1.50000000E+00  8.00000000E-01  8.00000000E-01
  1.50000000E+00  1.50000000E+00  8.00000000E-01  8.00000000E-01  1.50000000E+00
  1.50000000E+00  8.00000000E-01  8.00000000E-01  1.50000000E+00  1.50000000E+00
  8.00000000E-01  8.00000000E-01  1.50000000E+00  1.50000000E+00  8.00000000E-01
  8.00000000E-01  1.50000000E+00  1.50000000E+00  8.00000000E-01  8.00000000E-01
  1.50000000E+00  1.50000000E+00  8.00000000E-01  8.00000000E-01  1.50000000E+00
  1.50000000E+00  8.00000000E-01  8.00000000E-01  1.50000000E+00  1.50000000E+00
  8.00000000E-01  8.00000000E-01  1.50000000E+00  1.50000000E+00  8.00000000E-01
  8.00000000E-01  1.50000000E+00  1.50000000E+00  8.00000000E-01  8.00000000E-01
  1.50000000E+00  1.50000000E+00  8.00000000E-01  8.00000000E-01  1.50000000E+00
  1.50000000E+00  8.00000000E-01  8.00000000E-01  1.50000000E+00  1.50000000E+00
  8.00000000E-01  8.00000000E-01  1.50000000E+00  1.50000000E+00  8.00000000E-01
  8.00000000E-01  1.50000000E+00  1.50000000E+00  8.00000000E-01  8.00000000E-01
  1.50000000E+00  1.50000000E+00  8.00000000E-01  8.00000000E-01  1.50000000E+00
  1.50000000E+00  8.00000000E-01  8.00000000E-01  1.50000000E+00  1.50000000E+00
  8.00000000E-01  8.00000000E-01  1.50000000E+00  1.50000000E+00  8.00000000E-01
  8.00000000E-01  1.50000000E+00  1.50000000E+00  8.00000000E-01  8.00000000E-01
  1.50000000E+00  1.50000000E+00  8.00000000E-01  8.00000000E-01  1.50000000E+00
  1.50000000E+00  8.00000000E-01  8.00000000E-01  1.50000000E+00  1.50000000E+00
  8.00000000E-01  8.00000000E-01  1.50000000E+00  1.50000000E+00  8.00000000E-01
  8.00000000E-01  1.50000000E+00  1.50000000E+00  8.00000000E-01  8.00000000E-01
  1.50000000E+00  1.50000000E+00  8.00000000E-01  8.00000000E-01  1.50000000E+00
  1.50000000E+00  8.00000000E-01  8.00000000E-01  1.50000000E+00  1.50000000E+00
  8.00000000E-01  8.00000000E-01  1.50000000E+00  1.50000000E+00  8.00000000E-01
  8.00000000E-01  1.50000000E+00  1.50000000E+00  8.00000000E-01  8.00000000E-01
  1.50000000E+00  1.50000000E+00  8.00000000E-01  8.00000000E-01  1.50000000E+00
  1.50000000E+00  8.00000000E-01  8.00000000E-01  1.50000000E+00  1.50000000E+00
  8.00000000E-01  8.00000000E-01  1.50000000E+00  1.50000000E+00  8.00000000E-01
  8.00000000E-01  1.50000000E+00  1.50000000E+00  8.00000000E-01  8.00000000E-01
  1.50000000E+00  1.50000000E+00  8.00000000E-01  8.00000000E-01  1.50000000E+00
  1.50000000E+00  8.00000000E-01  8.00000000E-01  1.50000000E+00  1.50000000E+00
  8.00000000E-01  8.00000000E-01  1.50000000E+00  1.50000000E+00  8.00000000E-01
  8.00000000E-01  1.50000000E+00  1.50000000E+00  8.00000000E-01  8.00000000E-01
  1.50000000E+00  1.50000000E+00  8.00000000E-01  8.00000000E-01  1.50000000E+00
  1.50000000E+00  8.00000000E-01  8.00000000E-01  1.50000000E+00  1.50000000E+00
  8.00000000E-01  8.00000000E-01  1.50000000E+00  1.50000000E+00  8.00000000E-01
  8.00000000E-01  1.50000000E+00  1.50000000E+00  8.00000000E-01  8.00000000E-01
  1.50000000E+00  1.50000000E+00  8.00000000E-01  8.00000000E-01  1.50000000E+00
  1.50000000E+00  8.00000000E-01  8.00000000E-01  1.50000000E+00  1.50000000E+00
  8.00000000E-01  8.00000000E-01  1.50000000E+00  1.50000000E+00  8.00000000E-01
  8.00000000E-01  1.50000000E+00  1.50000000E+00  8.00000000E-01  8.00000000E-01
  1.50000000E+00  1.50000000E+00  8.00000000E-01  8.00000000E-01  1.50000000E+00
  1.50000000E+00  8.00000000E-01  8.00000000E-01  1.50000000E+00  1.50000000E+00
  8.00000000E-01  8.00000000E-01  1.50000000E+00  1.50000000E+00  8.00000000E-01
  8.00000000E-01  1.50000000E+00  1.50000000E+00  8.00000000E-01  8.00000000E-01
  1.50000000E+00  1.50000000E+00  8.00000000E-01  8.00000000E-01  1.50000000E+00
  1.50000000E+00  8.00000000E-01  8.00000000E-01  1.50000000E+00  1.50000000E+00
  8.00000000E-01  8.00000000E-01  1.50000000E+00  1.50000000E+00  8.00000000E-01
  8.00000000E-01  1.50000000E+00  1.50000000E+00  8.00000000E-01  8.00000000E-01
  1.50000000E+00  1.50000000E+00  8.00000000E-01  8.00000000E-01  1.50000000E+00
  1.50000000E+00  8.00000000E-01  8.00000000E-01  1.50000000E+00  1.50000000E+00
  8.00000000E-01  8.00000000E-01  1.50000000E+00  1.50000000E+00  8.00000000E-01
  8.00000000E-01  1.50000000E+00  1.50000000E+00  8.00000000E-01  8.00000000E-01
  1.50000000E+00  1.50000000E+00  8.00000000E-01  8.00000000E-01  1.50000000E+00
  1.50000000E+00  8.00000000E-01  8.00000000E-01  1.50000000E+00  1.50000000E+00
  8.00000000E-01  8.00000000E-01  1.50000000E+00  1.50000000E+00  8.00000000E-01
  8.00000000E-01  1.50000000E+00  1.50000000E+00  8.00000000E-01  8.00000000E-01
  1.50000000E+00  1.50000000E+00  8.00000000E-01  8.00000000E-01  1.50000000E+00
  1.50000000E+00  8.00000000E-01  8.00000000E-01  1.50000000E+00  1.50000000E+00
  8.00000000E-01  8.00000000E-01  1.50000000E+00  1.50000000E+00  8.00000000E-01
  8.00000000E-01  1.50000000E+00  1.50000000E+00  8.00000000E-01  8.00000000E-01
  1.50000000E+00  1.50000000E+00  8.00000000E-01  8.00000000E-01  1.50000000E+00
  1.50000000E+00  8.00000000E-01  8.00000000E-01  1.50000000E+00  1.50000000E+00
  8.00000000E-01  8.00000000E-01  1.50000000E+00  1.50000000E+00  8.00000000E-01
  8.00000000E-01  1.50000000E+00  1.50000000E+00  8.00000000E-01  8.00000000E-01
  1.50000000E+00  1.50000000E+00  8.00000000E-01  8.00000000E-01  1.50000000E+00
  1.50000000E+00  8.00000000E-01  8.00000000E-01  1.50000000E+00  1.50000000E+00
  8.00000000E-01  8.00000000E-01  1.50000000E+00  1.50000000E+00  8.00000000E-01
  8.00000000E-01  1.50000000E+00  1.50000000E+00  8.00000000E-01  8.00000000E-01
  1.50000000E+00  1.50000000E+00  8.00000000E-01  8.00000000E-01  1.50000000E+00
  1.50000000E+00  8.00000000E-01  8.00000000E-01  1.50000000E+00  1.50000000E+00
  8.00000000E-01  8.00000000E-01  1.50000000E+00  1.50000000E+00  8.00000000E-01
  8.00000000E-01  1.50000000E+00  1.50000000E+00  8.00000000E-01  8.00000000E-01
  1.50000000E+00  1.50000000E+00  8.00000000E-01  8.00000000E-01  1.50000000E+00
  1.50000000E+00  8.00000000E-01  8.00000000E-01  1.50000000E+00  1.50000000E+00
  8.00000000E-01  8.00000000E-01  1.50000000E+00  1.50000000E+00  8.00000000E-01
  8.00000000E-01  1.50000000E+00  1.50000000E+00  8.00000000E-01  8.00000000E-01
  1.50000000E+00  1.50000000E+00  8.00000000E-01  8.00000000E-01  1.50000000E+00
  1.50000000E+00  8.00000000E-01  8.00000000E-01  1.50000000E+00  1.50000000E+00
  8.00000000E-01  8.00000000E-01  1.50000000E+00  1.50000000E+00  8.00000000E-01
  8.00000000E-01  1.50000000E+00  1.50000000E+00  8.00000000E-01  8.00000000E-01
  1.50000000E+00  1.50000000E+00  8.00000000E-01  8.00000000E-01  1.50000000E+00
  1.50000000E+00  8.00000000E-01  8.00000000E-01  1.50000000E+00  1.50000000E+00
  8.00000000E-01  8.00000000E-01  1.50000000E+00  1.50000000E+00  8.00000000E-01
  8.00000000E-01  1.50000000E+00  1.50000000E+00  8.00000000E-01  8.00000000E-01
  1.50000000E+00  1.50000000E+00  8.00000000E-01  8.00000000E-01  1.50000000E+00
  1.50000000E+00  8.00000000E-01  8.00000000E-01  1.50000000E+00  1.50000000E+00
  8.00000000E-01  8.00000000E-01  1.50000000E+00  1.50000000E+00  8.00000000E-01
  8.00000000E-01  1.50000000E+00  1.50000000E+00  8.00000000E-01  8.00000000E-01
  1.50000000E+00  1.50000000E+00  8.00000000E-01  8.00000000E-01  1.50000000E+00
  1.50000000E+00  8.00000000E-01  8.00000000E-01  1.50000000E+00  1.50000000E+00
  8.00000000E-01  8.00000000E-01  1.50000000E+00  1.50000000E+00  8.00000000E-01
  8.00000000E-01  1.50000000E+00  1.50000000E+00  8.00000000E-01  8.00000000E-01
  1.50000000E+00  1.50000000E+00  8.00000000E-01  8.00000000E-01  1.50000000E+00
  1.50000000E+00  8.00000000E-01  8.00000000E-01  1.50000000E+00  1.50000000E+00
  8.00000000E-01  8.00000000E-01  1.50000000E+00  1.50000000E+00  8.00000000E-01
  8.00000000E-01  1.50000000E+00  1.50000000E+00  8.00000000E-01  8.00000000E-01
  1.50000000E+00  1.50000000E+00  8.00000000E-01  8.00000000E-01  1.50000000E+00
  1.50000000E+00  8.00000000E-01  8.00000000E-01  1.50000000E+00  1.50000000E+00
  8.00000000E-01  8.00000000E-01  1.50000000E+00  1.50000000E+00  8.00000000E-01
  8.00000000E-01  1.50000000E+00  1.50000000E+00  8.00000000E-01  8.00000000E-01
  1.50000000E+00  1.50000000E+00  8.00000000E-01  8.00000000E-01  1.50000000E+00
  1.50000000E+00  8.00000000E-01  8.00000000E-01  1.50000000E+00  1.50000000E+00
  8.00000000E-01  8.00000000E-01  1.50000000E+00  1.50000000E+00  8.00000000E-01
  8.00000000E-01  1.50000000E+00  1.50000000E+00  8.00000000E-01  8.00000000E-01
  1.50000000E+00  1.50000000E+00  8.00000000E-01  8.00000000E-01  1.50000000E+00
  1.50000000E+00  8.00000000E-01  8.00000000E-01  1.50000000E+00  1.50000000E+00
  8.00000000E-01  8.00000000E-01  1.50000000E+00  1.50000000E+00  8.00000000E-01
  8.00000000E-01  1.50000000E+00  1.50000000E+00  8.00000000E-01  8.00000000E-01
  1.50000000E+00  1.50000000E+00  8.00000000E-01  8.00000000E-01  1.50000000E+00
  1.50000000E+00  8.00000000E-01  8.00000000E-01  1.50000000E+00  1.50000000E+00
  8.00000000E-01  8.00000000E-01  1.50000000E+00  1.50000000E+00  8.00000000E-01
  8.00000000E-01  1.50000000E+00  1.50000000E+00  8.00000000E-01  8.00000000E-01
  1.50000000E+00  1.50000000E+00  8.00000000E-01  8.00000000E-01  1.50000000E+00
  1.50000000E+00  8.00000000E-01  8.00000000E-01  1.50000000E+00  1.50000000E+00
  8.00000000E-01  8.00000000E-01  1.50000000E+00  1.50000000E+00  8.00000000E-01
  8.00000000E-01  1.50000000E+00  1.50000000E+00  8.00000000E-01  8.00000000E-01
  1.50000000E+00  1.50000000E+00  8.00000000E-01  8.00000000E-01  1.50000000E+00
  1.50000000E+00  8.00000000E-01  8.00000000E-01  1.50000000E+00  1.50000000E+00
  8.00000000E-01  8.00000000E-01  1.50000000E+00  1.50000000E+00  8.00000000E-01
  8.00000000E-01  1.50000000E+00  1.50000000E+00  8.00000000E-01  8.00000000E-01
  1.50000000E+00  1.50000000E+00  8.00000000E-01  8.00000000E-01  1.50000000E+00
  1.50000000E+00  8.00000000E-01  8.00000000E-01  1.50000000E+00  1.50000000E+00
  8.00000000E-01  8.00000000E-01  1.50000000E+00  1.50000000E+00  8.00000000E-01
  8.00000000E-01  1.50000000E+00  1.50000000E+00  8.00000000E-01  8.00000000E-01
  1.50000000E+00  1.50000000E+00  8.00000000E-01  8.00000000E-01  1.50000000E+00
  1.50000000E+00  8.00000000E-01  8.00000000E-01  1.50000000E+00  1.50000000E+00
  8.00000000E-01  8.00000000E-01  1.50000000E+00  1.50000000E+00  8.00000000E-01
  8.00000000E-01  1.50000000E+00  1.50000000E+00  8.00000000E-01  8.00000000E-01
  1.50000000E+00  1.50000000E+00  8.00000000E-01  8.00000000E-01  1.50000000E+00
  1.50000000E+00  8.00000000E-01  8.00000000E-01  1.50000000E+00  1.50000000E+00
  8.00000000E-01  8.00000000E-01  1.50000000E+00  1.50000000E+00  8.00000000E-01
  8.00000000E-01  1.50000000E+00  1.50000000E+00  8.00000000E-01  8.00000000E-01
  1.50000000E+00  1.50000000E+00  8.00000000E-01  8.00000000E-01  1.50000000E+00
  1.50000000E+00  8.00000000E-01  8.00000000E-01  1.50000000E+00  1.50000000E+00
  8.00000000E-01  8.00000000E-01  1.50000000E+00  1.50000000E+00  8.00000000E-01
  8.00000000E-01  1.50000000E+00  1.50000000E+00  8.00000000E-01  8.00000000E-01
  1.50000000E+00  1.50000000E+00  8.00000000E-01  8.00000000E-01  1.50000000E+00
  1.50000000E+00  8.00000000E-01  8.00000000E-01  1.50000000E+00  1.50000000E+00
  8.00000000E-01  8.00000000E-01  1.50000000E+00  1.50000000E+00  8.00000000E-01
  8.00000000E-01  1.50000000E+00  1.50000000E+00  8.00000000E-01  8.00000000E-01
  1.50000000E+00  1.50000000E+00  8.00000000E-01  8.00000000E-01  1.50000000E+00
  1.50000000E+00  8.00000000E-01  8.00000000E-01  1.50000000E+00  1.50000000E+00
  8.00000000E-01  8.00000000E-01  1.50000000E+00  1.50000000E+00  8.00000000E-01
  8.00000000E-01  1.50000000E+00  1.50000000E+00  8.00000000E-01  8.00000000E-01
  1.50000000E+00  1.50000000E+00  8.00000000E-01  8.00000000E-01  1.50000000E+00
  1.50000000E+00  8.00000000E-01  8.00000000E-01  1.50000000E+00  1.50000000E+00
  8.00000000E-01  8.00000000E-01  1.50000000E+00  1.50000000E+00  8.00000000E-01
  8.00000000E-01  1.50000000E+00  1.50000000E+00  8.00000000E-01  8.00000000E-01
  1.50000000E+00  1.50000000E+00  8.00000000E-01  8.00000000E-01  1.50000000E+00
  1.50000000E+00  8.00000000E-01  8.00000000E-01  1.50000000E+00  1.50000000E+00
  8.00000000E-01  8.00000000E-01  1.50000000E+00  1.50000000E+00  8.00000000E-01
  8.00000000E-01  1.50000000E+00  1.50000000E+00  8.00000000E-01  8.00000000E-01
  1.50000000E+00  1.50000000E+00  8.00000000E-01  8.00000000E-01  1.50000000E+00
  1.50000000E+00  8.00000000E-01  8.00000000E-01  1.50000000E+00  1.50000000E+00
  8.00000000E-01  8.00000000E-01  1.50000000E+00  1.50000000E+00  8.00000000E-01
  8.00000000E-01  1.50000000E+00  1.50000000E+00  8.00000000E-01  8.00000000E-01
  1.50000000E+00  1.50000000E+00  8.00000000E-01  8.00000000E-01  1.50000000E+00
  1.50000000E+00  8.00000000E-01  8.00000000E-01  1.50000000E+00  1.50000000E+00
  8.00000000E-01  8.00000000E-01  1.50000000E+00  1.50000000E+00  8.00000000E-01
  8.00000000E-01  1.50000000E+00  1.50000000E+00  8.00000000E-01  8.00000000E-01
  1.50000000E+00  1.50000000E+00  8.00000000E-01  8.00000000E-01  1.50000000E+00
  1.50000000E+00  8.00000000E-01  8.00000000E-01  1.50000000E+00  1.50000000E+00
  8.00000000E-01  8.00000000E-01  1.50000000E+00  1.50000000E+00  8.00000000E-01
  8.00000000E-01  1.50000000E+00  1.50000000E+00  8.00000000E-01  8.00000000E-01
  1.50000000E+00  1.50000000E+00  8.00000000E-01  8.00000000E-01  1.50000000E+00
  1.50000000E+00  8.00000000E-01  8.00000000E-01  1.50000000E+00  1.50000000E+00
  8.00000000E-01  8.00000000E-01  1.50000000E+00  1.50000000E+00  8.00000000E-01
  8.00000000E-01  1.50000000E+00  1.50000000E+00  8.00000000E-01  8.00000000E-01
  1.50000000E+00  1.50000000E+00  8.00000000E-01  8.00000000E-01  1.50000000E+00
  1.50000000E+00  8.00000000E-01  8.00000000E-01  1.50000000E+00  1.50000000E+00
  8.00000000E-01  8.00000000E-01  1.50000000E+00  1.50000000E+00  8.00000000E-01
  8.00000000E-01  1.50000000E+00  1.50000000E+00  8.00000000E-01  8.00000000E-01
  1.50000000E+00  1.50000000E+00  8.00000000E-01  8.00000000E-01  1.50000000E+00
  1.50000000E+00  8.00000000E-01  8.00000000E-01  1.50000000E+00  1.50000000E+00
  8.00000000E-01  8.00000000E-01  1.50000000E+00  1.50000000E+00  8.00000000E-01
  8.00000000E-01  1.50000000E+00  1.50000000E+00  8.00000000E-01  8.00000000E-01
  1.50000000E+00  1.50000000E+00  8.00000000E-01  8.00000000E-01  1.50000000E+00
  1.50000000E+00  8.00000000E-01  8.00000000E-01  1.50000000E+00  1.50000000E+00
  8.00000000E-01  8.00000000E-01  1.50000000E+00  1.50000000E+00  8.00000000E-01
  8.00000000E-01  1.50000000E+00  1.50000000E+00  8.00000000E-01  8.00000000E-01
  1.50000000E+00  1.50000000E+00  8.00000000E-01  8.00000000E-01  1.50000000E+00
  1.50000000E+00  8.00000000E-01  8.00000000E-01  1.50000000E+00  1.50000000E+00
  8.00000000E-01  8.00000000E-01  1.50000000E+00  1.50000000E+00  8.00000000E-01
  8.00000000E-01  1.50000000E+00  1.50000000E+00  8.00000000E-01  8.00000000E-01
  1.50000000E+00  1.50000000E+00  8.00000000E-01  8.00000000E-01  1.50000000E+00
  1.50000000E+00  8.00000000E-01  8.00000000E-01  1.50000000E+00  1.50000000E+00
  8.00000000E-01  8.00000000E-01  1.50000000E+00  1.50000000E+00  8.00000000E-01
  8.00000000E-01  1.50000000E+00  1.50000000E+00  8.00000000E-01  8.00000000E-01
  1.50000000E+00  1.50000000E+00  8.00000000E-01  8.00000000E-01  1.50000000E+00
  1.50000000E+00  8.00000000E-01  8.00000000E-01  1.50000000E+00  1.50000000E+00
  8.00000000E-01  8.00000000E-01  1.50000000E+00  1.50000000E+00  8.00000000E-01
  8.00000000E-01  1.50000000E+00  1.50000000E+00  8.00000000E-01  8.00000000E-01
  1.50000000E+00  1.50000000E+00  8.00000000E-01  8.00000000E-01  1.50000000E+00
  1.50000000E+00  8.00000000E-01  8.00000000E-01  1.50000000E+00  1.50000000E+00
  8.00000000E-01  8.00000000E-01  1.50000000E+00  1.50000000E+00  8.00000000E-01
  8.00000000E-01  1.50000000E+00  1.50000000E+00  8.00000000E-01  8.00000000E-01
  1.50000000E+00  1.50000000E+00  8.00000000E-01  8.00000000E-01  1.50000000E+00
  1.50000000E+00  8.00000000E-01  8.00000000E-01  1.50000000E+00  1.50000000E+00
  8.00000000E-01  8.00000000E-01  1.50000000E+00  1.50000000E+00  8.00000000E-01
  8.00000000E-01  1.50000000E+00  1.50000000E+00  8.00000000E-01  8.00000000E-01
  1.50000000E+00  1.50000000E+00  8.00000000E-01  8.00000000E-01  1.50000000E+00
  1.50000000E+00  8.00000000E-01  8.00000000E-01  1.50000000E+00  1.50000000E+00
  8.00000000E-01  8.00000000E-01  1.50000000E+00  1.50000000E+00  8.00000000E-01
  8.00000000E-01  1.50000000E+00  1.50000000E+00  8.00000000E-01  8.00000000E-01
  1.50000000E+00  1.50000000E+00  8.00000000E-01  8.00000000E-01  1.50000000E+00
  1.50000000E+00  8.00000000E-01  8.00000000E-01  1.50000000E+00  1.50000000E+00
  8.00000000E-01  8.00000000E-01  1.50000000E+00  1.50000000E+00  8.00000000E-01
  8.00000000E-01  1.50000000E+00  1.50000000E+00  8.00000000E-01  8.00000000E-01
  1.50000000E+00  1.50000000E+00  8.00000000E-01  8.00000000E-01  1.50000000E+00
  1.50000000E+00  8.00000000E-01  8.00000000E-01  1.50000000E+00  1.50000000E+00
  8.00000000E-01  8.00000000E-01  1.50000000E+00  1.50000000E+00  8.00000000E-01
  8.00000000E-01  1.50000000E+00  1.50000000E+00  8.00000000E-01  8.00000000E-01
  1.50000000E+00  1.50000000E+00  8.00000000E-01  8.00000000E-01  1.50000000E+00
  1.50000000E+00  8.00000000E-01  8.00000000E-01  1.50000000E+00  1.50000000E+00
  8.00000000E-01  8.00000000E-01  1.50000000E+00  1.50000000E+00  8.00000000E-01
  8.00000000E-01  1.50000000E+00  1.50000000E+00  8.00000000E-01  8.00000000E-01
  1.50000000E+00  1.50000000E+00  8.00000000E-01  8.00000000E-01  1.50000000E+00
  1.50000000E+00  8.00000000E-01  8.00000000E-01  1.50000000E+00  1.50000000E+00
  8.00000000E-01  8.00000000E-01  1.50000000E+00  1.50000000E+00  8.00000000E-01
  8.00000000E-01  1.50000000E+00  1.50000000E+00  8.00000000E-01  8.00000000E-01
  1.50000000E+00  1.50000000E+00  8.00000000E-01  8.00000000E-01  1.50000000E+00
  1.50000000E+00  8.00000000E-01  8.00000000E-01  1.50000000E+00  1.50000000E+00
  8.00000000E-01  8.00000000E-01  1.50000000E+00  1.50000000E+00  8.00000000E-01
  8.00000000E-01  1.50000000E+00  1.50000000E+00  8.00000000E-01  8.00000000E-01
  1.50000000E+00  1.50000000E+00  8.00000000E-01  8.00000000E-01  1.50000000E+00
  1.50000000E+00  8.00000000E-01  8.00000000E-01  1.50000000E+00  1.50000000E+00
  8.00000000E-01  8.00000000E-01  1.50000000E+00  1.50000000E+00  8.00000000E-01
  8.00000000E-01  1.50000000E+00  1.50000000E+00  8.00000000E-01  8.00000000E-01
  1.50000000E+00  1.50000000E+00  8.00000000E-01  8.00000000E-01  1.50000000E+00
  1.50000000E+00  8.00000000E-01  8.00000000E-01  1.50000000E+00  1.50000000E+00
  8.00000000E-01  8.00000000E-01  1.50000000E+00  1.50000000E+00  8.00000000E-01
  8.00000000E-01  1.50000000E+00  1.50000000E+00  8.00000000E-01  8.00000000E-01
  1.50000000E+00  1.50000000E+00  8.00000000E-01  8.00000000E-01  1.50000000E+00
  1.50000000E+00  8.00000000E-01  8.00000000E-01  1.50000000E+00  1.50000000E+00
  8.00000000E-01  8.00000000E-01  1.50000000E+00  1.50000000E+00  8.00000000E-01
  8.00000000E-01  1.50000000E+00  1.50000000E+00  8.00000000E-01  8.00000000E-01
  1.50000000E+00  1.50000000E+00  8.00000000E-01  8.00000000E-01  1.50000000E+00
  1.50000000E+00  8.00000000E-01  8.00000000E-01  1.50000000E+00  1.50000000E+00
  8.00000000E-01  8.00000000E-01  1.50000000E+00  1.50000000E+00  8.00000000E-01
  8.00000000E-01  1.50000000E+00  1.50000000E+00  8.00000000E-01  8.00000000E-01
  1.50000000E+00  1.50000000E+00  8.00000000E-01  8.00000000E-01  1.50000000E+00
  1.50000000E+00  8.00000000E-01  8.00000000E-01  1.50000000E+00  1.50000000E+00
  8.00000000E-01  8.00000000E-01  1.50000000E+00  1.50000000E+00  8.00000000E-01
  8.00000000E-01  1.50000000E+00  1.50000000E+00  8.00000000E-01  8.00000000E-01
  1.50000000E+00  1.50000000E+00  8.00000000E-01  8.00000000E-01  1.50000000E+00
  1.50000000E+00  8.00000000E-01  8.00000000E-01  1.50000000E+00  1.50000000E+00
  8.00000000E-01  8.00000000E-01  1.50000000E+00  1.50000000E+00  8.00000000E-01
  8.00000000E-01  1.50000000E+00  1.50000000E+00  8.00000000E-01  8.00000000E-01
  1.50000000E+00  1.50000000E+00  8.00000000E-01  8.00000000E-01  1.50000000E+00
  1.50000000E+00  8.00000000E-01  8.00000000E-01  1.50000000E+00  1.50000000E+00
  8.00000000E-01  8.00000000E-01  1.50000000E+00  1.50000000E+00  8.00000000E-01
  8.00000000E-01  1.50000000E+00  1.50000000E+00  8.00000000E-01  8.00000000E-01
  1.50000000E+00  1.50000000E+00  8.00000000E-01  8.00000000E-01  1.50000000E+00
  1.50000000E+00  8.00000000E-01  8.00000000E-01  1.50000000E+00  1.50000000E+00
  8.00000000E-01  8.00000000E-01  1.50000000E+00  1.50000000E+00  8.00000000E-01
  8.00000000E-01  1.50000000E+00  1.50000000E+00  8.00000000E-01  8.00000000E-01
  1.50000000E+00  1.50000000E+00  8.00000000E-01  8.00000000E-01  1.50000000E+00
  1.50000000E+00  8.00000000E-01  8.00000000E-01  1.50000000E+00  1.50000000E+00
  8.00000000E-01  8.00000000E-01  1.50000000E+00  1.50000000E+00  8.00000000E-01
  8.00000000E-01  1.50000000E+00  1.50000000E+00  8.00000000E-01  8.00000000E-01
  1.50000000E+00  1.50000000E+00  8.00000000E-01  8.00000000E-01  1.50000000E+00
  1.50000000E+00  8.00000000E-01  8.00000000E-01  1.50000000E+00  1.50000000E+00
  8.00000000E-01  8.00000000E-01  1.50000000E+00  1.50000000E+00  8.00000000E-01
  8.00000000E-01  1.50000000E+00  1.50000000E+00  8.00000000E-01  8.00000000E-01
  1.50000000E+00  1.50000000E+00  8.00000000E-01  8.00000000E-01  1.50000000E+00
  1.50000000E+00  8.00000000E-01  8.00000000E-01  1.50000000E+00  1.50000000E+00
  8.00000000E-01  8.00000000E-01  1.50000000E+00  1.50000000E+00  8.00000000E-01
  8.00000000E-01  1.50000000E+00  1.50000000E+00  8.00000000E-01  8.00000000E-01
  1.50000000E+00  1.50000000E+00  8.00000000E-01  8.00000000E-01  1.50000000E+00
  1.50000000E+00  8.00000000E-01  8.00000000E-01  1.50000000E+00  1.50000000E+00
  8.00000000E-01  8.00000000E-01  1.50000000E+00  1.50000000E+00  8.00000000E-01
  8.00000000E-01  1.50000000E+00  1.50000000E+00  8.00000000E-01  8.00000000E-01
  1.50000000E+00  1.50000000E+00  8.00000000E-01  8.00000000E-01  1.50000000E+00
  1.50000000E+00  8.00000000E-01  8.00000000E-01  1.50000000E+00  1.50000000E+00
  8.00000000E-01  8.00000000E-01  1.50000000E+00  1.50000000E+00  8.00000000E-01
  8.00000000E-01  1.50000000E+00  1.50000000E+00  8.00000000E-01  8.00000000E-01
  1.50000000E+00  1.50000000E+00  8.00000000E-01  8.00000000E-01  1.50000000E+00
  1.50000000E+00  8.00000000E-01  8.00000000E-01  1.50000000E+00  1.50000000E+00
  8.00000000E-01  8.00000000E-01  1.50000000E+00  1.50000000E+00  8.00000000E-01
  8.00000000E-01  1.50000000E+00  1.50000000E+00  8.00000000E-01  8.00000000E-01
  1.50000000E+00  1.50000000E+00  8.00000000E-01  8.00000000E-01  1.50000000E+00
  1.50000000E+00  8.00000000E-01  8.00000000E-01  1.50000000E+00  1.50000000E+00
  8.00000000E-01  8.00000000E-01  1.50000000E+00  1.50000000E+00  8.00000000E-01
  8.00000000E-01  1.50000000E+00  1.50000000E+00  8.00000000E-01  8.00000000E-01
  1.50000000E+00  1.50000000E+00  8.00000000E-01  8.00000000E-01  1.50000000E+00
  1.50000000E+00  8.00000000E-01  8.00000000E-01  1.50000000E+00  1.50000000E+00
  8.00000000E-01  8.00000000E-01  1.50000000E+00  1.50000000E+00  8.00000000E-01
  8.00000000E-01  1.50000000E+00  1.50000000E+00  8.00000000E-01  8.00000000E-01
  1.50000000E+00  1.50000000E+00  8.00000000E-01  8.00000000E-01  1.50000000E+00
  1.50000000E+00  8.00000000E-01  8.00000000E-01  1.50000000E+00  1.50000000E+00
  8.00000000E-01  8.00000000E-01  1.50000000E+00  1.50000000E+00  8.00000000E-01
  8.00000000E-01  1.50000000E+00  1.50000000E+00  8.00000000E-01  8.00000000E-01
  1.50000000E+00  1.50000000E+00  8.00000000E-01  8.00000000E-01  1.50000000E+00
  1.50000000E+00  8.00000000E-01  8.00000000E-01  1.50000000E+00  1.50000000E+00
  8.00000000E-01  8.00000000E-01  1.50000000E+00  1.50000000E+00  8.00000000E-01
  8.00000000E-01  1.50000000E+00  1.50000000E+00  8.00000000E-01  8.00000000E-01
  1.50000000E+00  1.50000000E+00  8.00000000E-01  8.00000000E-01  1.50000000E+00
  1.50000000E+00  8.00000000E-01  8.00000000E-01  1.50000000E+00  1.50000000E+00
  8.00000000E-01  8.00000000E-01  1.50000000E+00  1.50000000E+00  8.00000000E-01
  8.00000000E-01  1.50000000E+00  1.50000000E+00  8.00000000E-01  8.00000000E-01
  1.50000000E+00  1.50000000E+00  8.00000000E-01  8.00000000E-01  1.50000000E+00
  1.50000000E+00  8.00000000E-01  8.00000000E-01  1.50000000E+00  1.50000000E+00
  8.00000000E-01  8.00000000E-01  1.50000000E+00  1.50000000E+00  8.00000000E-01
  8.00000000E-01  1.50000000E+00  1.50000000E+00  8.00000000E-01  8.00000000E-01
  1.50000000E+00  1.50000000E+00  8.00000000E-01  8.00000000E-01  1.50000000E+00
  1.50000000E+00  8.00000000E-01  8.00000000E-01  1.50000000E+00  1.50000000E+00
  8.00000000E-01  8.00000000E-01  1.50000000E+00  1.50000000E+00  8.00000000E-01
  8.00000000E-01  1.50000000E+00  1.50000000E+00  8.00000000E-01  8.00000000E-01
  1.50000000E+00  1.50000000E+00  8.00000000E-01  8.00000000E-01  1.50000000E+00
  1.50000000E+00  8.00000000E-01  8.00000000E-01  1.50000000E+00  1.50000000E+00
  8.00000000E-01  8.00000000E-01  1.50000000E+00  1.50000000E+00  8.00000000E-01
  8.00000000E-01  1.50000000E+00  1.50000000E+00  8.00000000E-01  8.00000000E-01
  1.50000000E+00  1.50000000E+00  8.00000000E-01  8.00000000E-01  1.50000000E+00
  1.50000000E+00  8.00000000E-01  8.00000000E-01  1.50000000E+00  1.50000000E+00
  8.00000000E-01  8.00000000E-01  1.50000000E+00  1.50000000E+00  8.00000000E-01
  8.00000000E-01  1.50000000E+00  1.50000000E+00  8.00000000E-01  8.00000000E-01
  1.50000000E+00  1.50000000E+00  8.00000000E-01  8.00000000E-01  1.50000000E+00
  1.50000000E+00  8.00000000E-01  8.00000000E-01  1.50000000E+00  1.50000000E+00
  8.00000000E-01  8.00000000E-01  1.50000000E+00  1.50000000E+00  8.00000000E-01
  8.00000000E-01  1.50000000E+00  1.50000000E+00  8.00000000E-01  8.00000000E-01
  1.50000000E+00  1.50000000E+00  8.00000000E-01  8.00000000E-01  1.50000000E+00
  1.50000000E+00  8.00000000E-01  8.00000000E-01  1.50000000E+00  1.50000000E+00
  8.00000000E-01  8.00000000E-01  1.50000000E+00  1.50000000E+00  8.00000000E-01
  8.00000000E-01  1.50000000E+00  1.50000000E+00  8.00000000E-01  8.00000000E-01
  1.50000000E+00  1.50000000E+00  8.00000000E-01  8.00000000E-01  1.50000000E+00
  1.50000000E+00  8.00000000E-01  8.00000000E-01  1.50000000E+00  1.50000000E+00
  8.00000000E-01  8.00000000E-01  1.50000000E+00  1.50000000E+00  8.00000000E-01
  8.00000000E-01  1.50000000E+00  1.50000000E+00  8.00000000E-01  8.00000000E-01
  1.50000000E+00  1.50000000E+00  8.00000000E-01  8.00000000E-01  1.50000000E+00
  1.50000000E+00  8.00000000E-01  8.00000000E-01  1.50000000E+00  1.50000000E+00
  8.00000000E-01  8.00000000E-01  1.50000000E+00  1.50000000E+00  8.00000000E-01
  8.00000000E-01  1.50000000E+00  1.50000000E+00  8.00000000E-01  8.00000000E-01
  1.50000000E+00  1.50000000E+00  8.00000000E-01  8.00000000E-01  1.50000000E+00
  1.50000000E+00  8.00000000E-01  8.00000000E-01  1.50000000E+00  1.50000000E+00
  8.00000000E-01  8.00000000E-01  1.50000000E+00  1.50000000E+00  8.00000000E-01
  8.00000000E-01  1.50000000E+00  1.50000000E+00  8.00000000E-01  8.00000000E-01
  1.50000000E+00  1.50000000E+00  8.00000000E-01  8.00000000E-01  1.50000000E+00
  1.50000000E+00  8.00000000E-01  8.00000000E-01  1.50000000E+00  1.50000000E+00
  8.00000000E-01  8.00000000E-01  1.50000000E+00  1.50000000E+00  8.00000000E-01
  8.00000000E-01  1.50000000E+00  1.50000000E+00  8.00000000E-01  8.00000000E-01
  1.50000000E+00  1.50000000E+00  8.00000000E-01  8.00000000E-01  1.50000000E+00
  1.50000000E+00  8.00000000E-01  8.00000000E-01  1.50000000E+00  1.50000000E+00
  8.00000000E-01  8.00000000E-01  1.50000000E+00  1.50000000E+00  8.00000000E-01
  8.00000000E-01  1.50000000E+00  1.50000000E+00  8.00000000E-01  8.00000000E-01
  1.50000000E+00  1.50000000E+00  8.00000000E-01  8.00000000E-01  1.50000000E+00
  1.50000000E+00  8.00000000E-01  8.00000000E-01  1.50000000E+00  1.50000000E+00
  8.00000000E-01  8.00000000E-01  1.50000000E+00  1.50000000E+00  8.00000000E-01
  8.00000000E-01  1.50000000E+00  1.50000000E+00  8.00000000E-01  8.00000000E-01
  1.50000000E+00  1.50000000E+00  8.00000000E-01  8.00000000E-01  1.50000000E+00
  1.50000000E+00  8.00000000E-01  8.00000000E-01  1.50000000E+00  1.50000000E+00
  8.00000000E-01  8.00000000E-01  1.50000000E+00  1.50000000E+00  8.00000000E-01
  8.00000000E-01  1.50000000E+00  1.50000000E+00  8.00000000E-01  8.00000000E-01
  1.50000000E+00  1.50000000E+00  8.00000000E-01  8.00000000E-01  1.50000000E+00
  1.50000000E+00  8.00000000E-01  8.00000000E-01  1.50000000E+00  1.50000000E+00
  8.00000000E-01  8.00000000E-01  1.50000000E+00  1.50000000E+00  8.00000000E-01
  8.00000000E-01  1.50000000E+00  1.50000000E+00  8.00000000E-01  8.00000000E-01
  1.50000000E+00  1.50000000E+00  8.00000000E-01  8.00000000E-01  1.50000000E+00
  1.50000000E+00  8.00000000E-01  8.00000000E-01  1.50000000E+00  1.50000000E+00
  8.00000000E-01  8.00000000E-01  1.50000000E+00  1.50000000E+00  8.00000000E-01
  8.00000000E-01  1.50000000E+00  1.50000000E+00  8.00000000E-01  8.00000000E-01
  1.50000000E+00  1.50000000E+00  8.00000000E-01  8.00000000E-01  1.50000000E+00
  1.50000000E+00  8.00000000E-01  8.00000000E-01  1.50000000E+00  1.50000000E+00
  8.00000000E-01  8.00000000E-01  1.50000000E+00  1.50000000E+00  8.00000000E-01
  8.00000000E-01  1.50000000E+00  1.50000000E+00  8.00000000E-01  8.00000000E-01
  1.50000000E+00  1.50000000E+00  8.00000000E-01  8.00000000E-01  1.50000000E+00
  1.50000000E+00  8.00000000E-01  8.00000000E-01  1.50000000E+00  1.50000000E+00
  8.00000000E-01  8.00000000E-01  1.50000000E+00  1.50000000E+00  8.00000000E-01
  8.00000000E-01  1.50000000E+00  1.50000000E+00  8.00000000E-01  8.00000000E-01
  1.50000000E+00  1.50000000E+00  8.00000000E-01  8.00000000E-01  1.50000000E+00
  1.50000000E+00  8.00000000E-01  8.00000000E-01  1.50000000E+00  1.50000000E+00
  8.00000000E-01  8.00000000E-01  1.50000000E+00  1.50000000E+00  8.00000000E-01
  8.00000000E-01  1.50000000E+00  1.50000000E+00  8.00000000E-01  8.00000000E-01
  1.50000000E+00  1.50000000E+00  8.00000000E-01  8.00000000E-01  1.50000000E+00
  1.50000000E+00  8.00000000E-01  8.00000000E-01  1.50000000E+00  1.50000000E+00
  8.00000000E-01  8.00000000E-01  1.50000000E+00  1.50000000E+00  8.00000000E-01
  8.00000000E-01  1.50000000E+00  1.50000000E+00  8.00000000E-01  8.00000000E-01
  1.50000000E+00  1.50000000E+00  8.00000000E-01  8.00000000E-01  1.50000000E+00
  1.50000000E+00  8.00000000E-01  8.00000000E-01  1.50000000E+00  1.50000000E+00
  8.00000000E-01  8.00000000E-01  1.50000000E+00  1.50000000E+00  8.00000000E-01
  8.00000000E-01  1.50000000E+00  1.50000000E+00  8.00000000E-01  8.00000000E-01
  1.50000000E+00  1.50000000E+00  8.00000000E-01  8.00000000E-01  1.50000000E+00
  1.50000000E+00  8.00000000E-01  8.00000000E-01  1.50000000E+00  1.50000000E+00
  8.00000000E-01  8.00000000E-01  1.50000000E+00  1.50000000E+00  8.00000000E-01
  8.00000000E-01  1.50000000E+00  1.50000000E+00  8.00000000E-01  8.00000000E-01
  1.50000000E+00  1.50000000E+00  8.00000000E-01  8.00000000E-01  1.50000000E+00
  1.50000000E+00  8.00000000E-01  8.00000000E-01  1.50000000E+00  1.50000000E+00
  8.00000000E-01  8.00000000E-01  1.50000000E+00  1.50000000E+00  8.00000000E-01
  8.00000000E-01  1.50000000E+00  1.50000000E+00  8.00000000E-01  8.00000000E-01
  1.50000000E+00  1.50000000E+00  8.00000000E-01  8.00000000E-01  1.50000000E+00
  1.50000000E+00  8.00000000E-01  8.00000000E-01  1.50000000E+00  1.50000000E+00
  8.00000000E-01  8.00000000E-01  1.50000000E+00  1.50000000E+00  8.00000000E-01
  8.00000000E-01  1.50000000E+00  1.50000000E+00  8.00000000E-01  8.00000000E-01
  1.50000000E+00  1.50000000E+00  8.00000000E-01  8.00000000E-01  1.50000000E+00
  1.50000000E+00  8.00000000E-01  8.00000000E-01  1.50000000E+00  1.50000000E+00
  8.00000000E-01  8.00000000E-01  1.50000000E+00  1.50000000E+00  8.00000000E-01
  8.00000000E-01  1.50000000E+00  1.50000000E+00  8.00000000E-01  8.00000000E-01
  1.50000000E+00  1.50000000E+00  8.00000000E-01  8.00000000E-01  1.50000000E+00
  1.50000000E+00  8.00000000E-01  8.00000000E-01  1.50000000E+00  1.50000000E+00
  8.00000000E-01  8.00000000E-01  1.50000000E+00  1.50000000E+00  8.00000000E-01
  8.00000000E-01  1.50000000E+00  1.50000000E+00  8.00000000E-01  8.00000000E-01
  1.50000000E+00  1.50000000E+00  8.00000000E-01  8.00000000E-01  1.50000000E+00
  1.50000000E+00  8.00000000E-01  8.00000000E-01  1.50000000E+00  1.50000000E+00
  8.00000000E-01  8.00000000E-01  1.50000000E+00  1.50000000E+00  8.00000000E-01
  8.00000000E-01  1.50000000E+00  1.50000000E+00  8.00000000E-01  8.00000000E-01
  1.50000000E+00  1.50000000E+00  8.00000000E-01  8.00000000E-01  1.50000000E+00
  1.50000000E+00  8.00000000E-01  8.00000000E-01  1.50000000E+00  1.50000000E+00
  8.00000000E-01  8.00000000E-01  1.50000000E+00  1.50000000E+00  8.00000000E-01
  8.00000000E-01  1.50000000E+00  1.50000000E+00  8.00000000E-01  8.00000000E-01
  1.50000000E+00  1.50000000E+00  8.00000000E-01  8.00000000E-01  1.50000000E+00
  1.50000000E+00  8.00000000E-01  8.00000000E-01  1.50000000E+00  1.50000000E+00
  8.00000000E-01  8.00000000E-01  1.50000000E+00  1.50000000E+00  8.00000000E-01
  8.00000000E-01  1.50000000E+00  1.50000000E+00  8.00000000E-01  8.00000000E-01
  1.50000000E+00  1.50000000E+00  8.00000000E-01  8.00000000E-01  1.50000000E+00
  1.50000000E+00  8.00000000E-01  8.00000000E-01  1.50000000E+00  1.50000000E+00
  8.00000000E-01  8.00000000E-01  1.50000000E+00  1.50000000E+00  8.00000000E-01
  8.00000000E-01  1.50000000E+00  1.50000000E+00  8.00000000E-01  8.00000000E-01
  1.50000000E+00  1.50000000E+00  8.00000000E-01  8.00000000E-01  1.50000000E+00
  1.50000000E+00  8.00000000E-01  8.00000000E-01  1.50000000E+00  1.50000000E+00
  8.00000000E-01  8.00000000E-01  1.50000000E+00  1.50000000E+00  8.00000000E-01
  8.00000000E-01  1.50000000E+00  1.50000000E+00  8.00000000E-01  8.00000000E-01
  1.50000000E+00  1.50000000E+00  8.00000000E-01  8.00000000E-01  1.50000000E+00
  1.50000000E+00  8.00000000E-01  8.00000000E-01  1.50000000E+00  1.50000000E+00
  8.00000000E-01  8.00000000E-01  1.50000000E+00  1.50000000E+00  8.00000000E-01
  8.00000000E-01  1.50000000E+00  1.50000000E+00  8.00000000E-01  8.00000000E-01
  1.50000000E+00  1.50000000E+00  8.00000000E-01  8.00000000E-01  1.50000000E+00
  1.50000000E+00  8.00000000E-01  8.00000000E-01  1.50000000E+00  1.50000000E+00
  8.00000000E-01  8.00000000E-01  1.50000000E+00  1.50000000E+00  8.00000000E-01
  8.00000000E-01  1.50000000E+00  1.50000000E+00  8.00000000E-01  8.00000000E-01
  1.50000000E+00  1.50000000E+00  8.00000000E-01  8.00000000E-01  1.50000000E+00
  1.50000000E+00  8.00000000E-01  8.00000000E-01  1.50000000E+00  1.50000000E+00
  8.00000000E-01  8.00000000E-01  1.50000000E+00  1.50000000E+00  8.00000000E-01
  8.00000000E-01  1.50000000E+00  1.50000000E+00  8.00000000E-01  8.00000000E-01
  1.50000000E+00  1.50000000E+00  8.00000000E-01  8.00000000E-01  1.50000000E+00
  1.50000000E+00  8.00000000E-01  8.00000000E-01  1.50000000E+00  1.50000000E+00
  8.00000000E-01  8.00000000E-01  1.50000000E+00  1.50000000E+00  8.00000000E-01
  8.00000000E-01  1.50000000E+00  1.50000000E+00  8.00000000E-01  8.00000000E-01
  1.50000000E+00  1.50000000E+00  8.00000000E-01  8.00000000E-01  1.50000000E+00
  1.50000000E+00  8.00000000E-01  8.00000000E-01  1.50000000E+00  1.50000000E+00
  8.00000000E-01  8.00000000E-01  1.50000000E+00  1.50000000E+00  8.00000000E-01
  8.00000000E-01  1.50000000E+00  1.50000000E+00  8.00000000E-01  8.00000000E-01
  1.50000000E+00  1.50000000E+00  8.00000000E-01  8.00000000E-01  1.50000000E+00
  1.50000000E+00  8.00000000E-01  8.00000000E-01  1.50000000E+00  1.50000000E+00
  8.00000000E-01  8.00000000E-01  1.50000000E+00  1.50000000E+00  8.00000000E-01
  8.00000000E-01  1.50000000E+00  1.50000000E+00  8.00000000E-01  8.00000000E-01
  1.50000000E+00  1.50000000E+00  8.00000000E-01  8.00000000E-01  1.50000000E+00
  1.50000000E+00  8.00000000E-01  8.00000000E-01  1.50000000E+00  1.50000000E+00
  8.00000000E-01  8.00000000E-01  1.50000000E+00  1.50000000E+00  8.00000000E-01
  8.00000000E-01  1.50000000E+00  1.50000000E+00  8.00000000E-01  8.00000000E-01
  1.50000000E+00  1.50000000E+00  8.00000000E-01  8.00000000E-01  1.50000000E+00
  1.50000000E+00  8.00000000E-01  8.00000000E-01  1.50000000E+00  1.50000000E+00
  8.00000000E-01  8.00000000E-01  1.50000000E+00  1.50000000E+00  8.00000000E-01
  8.00000000E-01  1.50000000E+00  1.50000000E+00  8.00000000E-01  8.00000000E-01
  1.50000000E+00  1.50000000E+00  8.00000000E-01  8.00000000E-01  1.50000000E+00
  1.50000000E+00  8.00000000E-01  8.00000000E-01  1.50000000E+00  1.50000000E+00
  8.00000000E-01  8.00000000E-01  1.50000000E+00  1.50000000E+00  8.00000000E-01
  8.00000000E-01  1.50000000E+00  1.50000000E+00  8.00000000E-01  8.00000000E-01
  1.50000000E+00  1.50000000E+00  8.00000000E-01  8.00000000E-01  1.50000000E+00
  1.50000000E+00  8.00000000E-01  8.00000000E-01  1.50000000E+00  1.50000000E+00
  8.00000000E-01  8.00000000E-01  1.50000000E+00  1.50000000E+00  8.00000000E-01
  8.00000000E-01  1.50000000E+00  1.50000000E+00  8.00000000E-01  8.00000000E-01
  1.50000000E+00  1.50000000E+00  8.00000000E-01  8.00000000E-01  1.50000000E+00
  1.50000000E+00  8.00000000E-01  8.00000000E-01  1.50000000E+00  1.50000000E+00
  8.00000000E-01  8.00000000E-01  1.50000000E+00  1.50000000E+00  8.00000000E-01
  8.00000000E-01  1.50000000E+00  1.50000000E+00  8.00000000E-01  8.00000000E-01
  1.50000000E+00  1.50000000E+00  8.00000000E-01  8.00000000E-01  1.50000000E+00
  1.50000000E+00  8.00000000E-01  8.00000000E-01  1.50000000E+00  1.50000000E+00
  8.00000000E-01  8.00000000E-01  1.50000000E+00  1.50000000E+00  8.00000000E-01
  8.00000000E-01  1.50000000E+00  1.50000000E+00  8.00000000E-01  8.00000000E-01
  1.50000000E+00  1.50000000E+00  8.00000000E-01  8.00000000E-01  1.50000000E+00
  1.50000000E+00  8.00000000E-01  8.00000000E-01  1.50000000E+00  1.50000000E+00
  8.00000000E-01  8.00000000E-01  1.50000000E+00  1.50000000E+00  8.00000000E-01
  8.00000000E-01  1.50000000E+00  1.50000000E+00  8.00000000E-01  8.00000000E-01
  1.50000000E+00  1.50000000E+00  8.00000000E-01  8.00000000E-01  1.50000000E+00
  1.50000000E+00  8.00000000E-01  8.00000000E-01  1.50000000E+00  1.50000000E+00
  8.00000000E-01  8.00000000E-01  1.50000000E+00  1.50000000E+00  8.00000000E-01
  8.00000000E-01  1.50000000E+00  1.50000000E+00  8.00000000E-01  8.00000000E-01
  1.50000000E+00  1.50000000E+00  8.00000000E-01  8.00000000E-01  1.50000000E+00
  1.50000000E+00  8.00000000E-01  8.00000000E-01  1.50000000E+00  1.50000000E+00
  8.00000000E-01  8.00000000E-01  1.50000000E+00  1.50000000E+00  8.00000000E-01
  8.00000000E-01  1.50000000E+00  1.50000000E+00  8.00000000E-01  8.00000000E-01
  1.50000000E+00  1.50000000E+00  8.00000000E-01  8.00000000E-01  1.50000000E+00
  1.50000000E+00  8.00000000E-01  8.00000000E-01  1.50000000E+00  1.50000000E+00
  8.00000000E-01  8.00000000E-01  1.50000000E+00  1.50000000E+00  8.00000000E-01
  8.00000000E-01  1.50000000E+00  1.50000000E+00  8.00000000E-01  8.00000000E-01
  1.50000000E+00  1.50000000E+00  8.00000000E-01  8.00000000E-01  1.50000000E+00
  1.50000000E+00  8.00000000E-01  8.00000000E-01  1.50000000E+00  1.50000000E+00
  8.00000000E-01  8.00000000E-01  1.50000000E+00  1.50000000E+00  8.00000000E-01
  8.00000000E-01  1.50000000E+00  1.50000000E+00  8.00000000E-01  8.00000000E-01
  1.50000000E+00  1.50000000E+00  8.00000000E-01  8.00000000E-01  1.50000000E+00
  1.50000000E+00  8.00000000E-01  8.00000000E-01  1.50000000E+00  1.50000000E+00
  8.00000000E-01  8.00000000E-01  1.50000000E+00  1.50000000E+00  8.00000000E-01
  8.00000000E-01  1.50000000E+00  1.50000000E+00  8.00000000E-01  8.00000000E-01
  1.50000000E+00  1.50000000E+00  8.00000000E-01  8.00000000E-01  1.50000000E+00
  1.50000000E+00  8.00000000E-01  8.00000000E-01  1.50000000E+00  1.50000000E+00
  8.00000000E-01  8.00000000E-01  1.50000000E+00  1.50000000E+00  8.00000000E-01
  8.00000000E-01  1.50000000E+00  1.50000000E+00  8.00000000E-01  8.00000000E-01
  1.50000000E+00  1.50000000E+00  8.00000000E-01  8.00000000E-01  1.50000000E+00
  1.50000000E+00  8.00000000E-01  8.00000000E-01  1.50000000E+00  1.50000000E+00
  8.00000000E-01  8.00000000E-01  1.50000000E+00  1.50000000E+00  8.00000000E-01
  8.00000000E-01  1.50000000E+00  1.50000000E+00  8.00000000E-01  8.00000000E-01
  1.50000000E+00  1.50000000E+00  8.00000000E-01  8.00000000E-01  1.50000000E+00
  1.50000000E+00  8.00000000E-01  8.00000000E-01  1.50000000E+00  1.50000000E+00
  8.00000000E-01  8.00000000E-01  1.50000000E+00  1.50000000E+00  8.00000000E-01
  8.00000000E-01  1.50000000E+00  1.50000000E+00  8.00000000E-01  8.00000000E-01
  1.50000000E+00  1.50000000E+00  8.00000000E-01  8.00000000E-01  1.50000000E+00
  1.50000000E+00  8.00000000E-01  8.00000000E-01  1.50000000E+00  1.50000000E+00
  8.00000000E-01  8.00000000E-01  1.50000000E+00  1.50000000E+00  8.00000000E-01
  8.00000000E-01  1.50000000E+00  1.50000000E+00  8.00000000E-01  8.00000000E-01
  1.50000000E+00  1.50000000E+00  8.00000000E-01  8.00000000E-01  1.50000000E+00
  1.50000000E+00  8.00000000E-01  8.00000000E-01  1.50000000E+00  1.50000000E+00
  8.00000000E-01  8.00000000E-01  1.50000000E+00  1.50000000E+00  8.00000000E-01
  8.00000000E-01  1.50000000E+00  1.50000000E+00  8.00000000E-01  8.00000000E-01
  1.50000000E+00  1.50000000E+00  8.00000000E-01  8.00000000E-01  1.50000000E+00
  1.50000000E+00  8.00000000E-01  8.00000000E-01  1.50000000E+00  1.50000000E+00
  8.00000000E-01  8.00000000E-01  1.50000000E+00  1.50000000E+00  8.00000000E-01
  8.00000000E-01  1.50000000E+00  1.50000000E+00  8.00000000E-01  8.00000000E-01
  1.50000000E+00  1.50000000E+00  8.00000000E-01  8.00000000E-01  1.50000000E+00
  1.50000000E+00  8.00000000E-01  8.00000000E-01  1.50000000E+00  1.50000000E+00
  8.00000000E-01  8.00000000E-01  1.50000000E+00  1.50000000E+00  8.00000000E-01
  8.00000000E-01  1.50000000E+00  1.50000000E+00  8.00000000E-01  8.00000000E-01
  1.50000000E+00  1.50000000E+00  8.00000000E-01  8.00000000E-01  1.50000000E+00
  1.50000000E+00  8.00000000E-01  8.00000000E-01  1.50000000E+00  1.50000000E+00
  8.00000000E-01  8.00000000E-01  1.50000000E+00  1.50000000E+00  8.00000000E-01
  8.00000000E-01  1.50000000E+00  1.50000000E+00  8.00000000E-01  8.00000000E-01
  1.50000000E+00  1.50000000E+00  8.00000000E-01  8.00000000E-01  1.50000000E+00
  1.50000000E+00  8.00000000E-01  8.00000000E-01  1.50000000E+00  1.50000000E+00
  8.00000000E-01  8.00000000E-01  1.50000000E+00  1.50000000E+00  8.00000000E-01
  8.00000000E-01  1.50000000E+00  1.50000000E+00  8.00000000E-01  8.00000000E-01
  1.50000000E+00  1.50000000E+00  8.00000000E-01  8.00000000E-01  1.50000000E+00
  1.50000000E+00  8.00000000E-01  8.00000000E-01  1.50000000E+00  1.50000000E+00
  8.00000000E-01  8.00000000E-01  1.50000000E+00  1.50000000E+00  8.00000000E-01
  8.00000000E-01  1.50000000E+00  1.50000000E+00  8.00000000E-01  8.00000000E-01
  1.50000000E+00  1.50000000E+00  8.00000000E-01  8.00000000E-01  1.50000000E+00
  1.50000000E+00  8.00000000E-01  8.00000000E-01  1.50000000E+00  1.50000000E+00
  8.00000000E-01  8.00000000E-01  1.50000000E+00  1.50000000E+00  8.00000000E-01
  8.00000000E-01  1.50000000E+00  1.50000000E+00  8.00000000E-01  8.00000000E-01
  1.50000000E+00  1.50000000E+00  8.00000000E-01  8.00000000E-01  1.50000000E+00
  1.50000000E+00  8.00000000E-01  8.00000000E-01  1.50000000E+00  1.50000000E+00
  8.00000000E-01  8.00000000E-01  1.50000000E+00  1.50000000E+00  8.00000000E-01
  8.00000000E-01  1.50000000E+00  1.50000000E+00  8.00000000E-01  8.00000000E-01
  1.50000000E+00  1.50000000E+00  8.00000000E-01  8.00000000E-01  1.50000000E+00
  1.50000000E+00  8.00000000E-01  8.00000000E-01  1.50000000E+00  1.50000000E+00
  8.00000000E-01  8.00000000E-01  1.50000000E+00  1.50000000E+00  8.00000000E-01
  8.00000000E-01  1.50000000E+00  1.50000000E+00  8.00000000E-01  8.00000000E-01
  1.50000000E+00  1.50000000E+00  8.00000000E-01  8.00000000E-01  1.50000000E+00
  1.50000000E+00  8.00000000E-01  8.00000000E-01  1.50000000E+00  1.50000000E+00
  8.00000000E-01  8.00000000E-01  1.50000000E+00  1.50000000E+00  8.00000000E-01
  8.00000000E-01  1.50000000E+00  1.50000000E+00  8.00000000E-01  8.00000000E-01
  1.50000000E+00  1.50000000E+00  8.00000000E-01  8.00000000E-01  1.50000000E+00
  1.50000000E+00  8.00000000E-01  8.00000000E-01  1.50000000E+00  1.50000000E+00
  8.00000000E-01  8.00000000E-01  1.50000000E+00  1.50000000E+00  8.00000000E-01
  8.00000000E-01  1.50000000E+00  1.50000000E+00  8.00000000E-01  8.00000000E-01
  1.50000000E+00  1.50000000E+00  8.00000000E-01  8.00000000E-01  1.50000000E+00
  1.50000000E+00  8.00000000E-01  8.00000000E-01  1.50000000E+00  1.50000000E+00
  8.00000000E-01  8.00000000E-01  1.50000000E+00  1.50000000E+00  8.00000000E-01
  8.00000000E-01  1.50000000E+00  1.50000000E+00  8.00000000E-01  8.00000000E-01
  1.50000000E+00  1.50000000E+00  8.00000000E-01  8.00000000E-01  1.50000000E+00
  1.50000000E+00  8.00000000E-01  8.00000000E-01  1.50000000E+00  1.50000000E+00
  8.00000000E-01  8.00000000E-01  1.50000000E+00  1.50000000E+00  8.00000000E-01
  8.00000000E-01  1.50000000E+00  1.50000000E+00  8.00000000E-01  8.00000000E-01
  1.50000000E+00  1.50000000E+00  8.00000000E-01  8.00000000E-01  1.50000000E+00
  1.50000000E+00  8.00000000E-01  8.00000000E-01  1.50000000E+00  1.50000000E+00
  8.00000000E-01  8.00000000E-01  1.50000000E+00  1.50000000E+00  8.00000000E-01
  8.00000000E-01  1.50000000E+00  1.50000000E+00  8.00000000E-01  8.00000000E-01
  1.50000000E+00  1.50000000E+00  8.00000000E-01  8.00000000E-01  1.50000000E+00
  1.50000000E+00  8.00000000E-01  8.00000000E-01  1.50000000E+00  1.50000000E+00
  8.00000000E-01  8.00000000E-01  1.50000000E+00  1.50000000E+00  8.00000000E-01
  8.00000000E-01  1.50000000E+00  1.50000000E+00  8.00000000E-01  8.00000000E-01
  1.50000000E+00  1.50000000E+00  8.00000000E-01  8.00000000E-01  1.50000000E+00
  1.50000000E+00  8.00000000E-01  8.00000000E-01  1.50000000E+00  1.50000000E+00
  8.00000000E-01  8.00000000E-01  1.50000000E+00  1.50000000E+00  8.00000000E-01
  8.00000000E-01  1.50000000E+00  1.50000000E+00  8.00000000E-01  8.00000000E-01
  1.50000000E+00  1.50000000E+00  8.00000000E-01  8.00000000E-01  1.50000000E+00
  1.50000000E+00  8.00000000E-01  8.00000000E-01  1.50000000E+00  1.50000000E+00
  8.00000000E-01  8.00000000E-01  1.50000000E+00  1.50000000E+00  8.00000000E-01
  8.00000000E-01  1.50000000E+00  1.50000000E+00  8.00000000E-01  8.00000000E-01
  1.50000000E+00  1.50000000E+00  8.00000000E-01  8.00000000E-01  1.50000000E+00
  1.50000000E+00  8.00000000E-01  8.00000000E-01  1.50000000E+00  1.50000000E+00
  8.00000000E-01  8.00000000E-01  1.50000000E+00  1.50000000E+00  8.00000000E-01
  8.00000000E-01  1.50000000E+00  1.50000000E+00  8.00000000E-01  8.00000000E-01
  1.50000000E+00  1.50000000E+00  8.00000000E-01  8.00000000E-01  1.50000000E+00
  1.50000000E+00  8.00000000E-01  8.00000000E-01  1.50000000E+00  1.50000000E+00
  8.00000000E-01  8.00000000E-01  1.50000000E+00  1.50000000E+00  8.00000000E-01
  8.00000000E-01  1.50000000E+00  1.50000000E+00  8.00000000E-01  8.00000000E-01
  1.50000000E+00  1.50000000E+00  8.00000000E-01  8.00000000E-01  1.50000000E+00
  1.50000000E+00  8.00000000E-01  8.00000000E-01  1.50000000E+00  1.50000000E+00
  8.00000000E-01  8.00000000E-01  1.50000000E+00  1.50000000E+00  8.00000000E-01
  8.00000000E-01  1.50000000E+00  1.50000000E+00  8.00000000E-01  8.00000000E-01
  1.50000000E+00  1.50000000E+00  8.00000000E-01  8.00000000E-01  1.50000000E+00
  1.50000000E+00  8.00000000E-01  8.00000000E-01  1.50000000E+00  1.50000000E+00
  8.00000000E-01  8.00000000E-01  1.50000000E+00  1.50000000E+00  8.00000000E-01
  8.00000000E-01  1.50000000E+00  1.50000000E+00  8.00000000E-01  8.00000000E-01
  1.50000000E+00  1.50000000E+00  8.00000000E-01  8.00000000E-01  1.50000000E+00
  1.50000000E+00  8.00000000E-01  8.00000000E-01  1.50000000E+00  1.50000000E+00
  8.00000000E-01  8.00000000E-01  1.50000000E+00  1.50000000E+00  8.00000000E-01
  8.00000000E-01  1.50000000E+00  1.50000000E+00  8.00000000E-01  8.00000000E-01
  1.50000000E+00  1.50000000E+00  8.00000000E-01  8.00000000E-01  1.50000000E+00
  1.50000000E+00  8.00000000E-01  8.00000000E-01  1.50000000E+00  1.50000000E+00
  8.00000000E-01  8.00000000E-01  1.50000000E+00  1.50000000E+00  8.00000000E-01
  8.00000000E-01  1.50000000E+00  1.50000000E+00  8.00000000E-01  8.00000000E-01
  1.50000000E+00  1.50000000E+00  8.00000000E-01  8.00000000E-01  1.50000000E+00
  1.50000000E+00  8.00000000E-01  8.00000000E-01  1.50000000E+00  1.50000000E+00
  8.00000000E-01  8.00000000E-01  1.50000000E+00  1.50000000E+00  8.00000000E-01
  8.00000000E-01  1.50000000E+00  1.50000000E+00  8.00000000E-01  8.00000000E-01
  1.50000000E+00  1.50000000E+00  8.00000000E-01  8.00000000E-01  1.50000000E+00
  1.50000000E+00  8.00000000E-01  8.00000000E-01  1.50000000E+00  1.50000000E+00
  8.00000000E-01  8.00000000E-01  1.50000000E+00  1.50000000E+00  8.00000000E-01
  8.00000000E-01  1.50000000E+00  1.50000000E+00  8.00000000E-01  8.00000000E-01
  1.50000000E+00  1.50000000E+00  8.00000000E-01  8.00000000E-01  1.50000000E+00
  1.50000000E+00  8.00000000E-01  8.00000000E-01  1.50000000E+00  1.50000000E+00
  8.00000000E-01  8.00000000E-01  1.50000000E+00  1.50000000E+00  8.00000000E-01
  8.00000000E-01  1.50000000E+00  1.50000000E+00  8.00000000E-01  8.00000000E-01
  1.50000000E+00  1.50000000E+00  8.00000000E-01  8.00000000E-01  1.50000000E+00
  1.50000000E+00  8.00000000E-01  8.00000000E-01  1.50000000E+00  1.50000000E+00
  8.00000000E-01  8.00000000E-01  1.50000000E+00  1.50000000E+00  8.00000000E-01
  8.00000000E-01  1.50000000E+00  1.50000000E+00  8.00000000E-01  8.00000000E-01
  1.50000000E+00  1.50000000E+00  8.00000000E-01  8.00000000E-01  1.50000000E+00
  1.50000000E+00  8.00000000E-01  8.00000000E-01  1.50000000E+00  1.50000000E+00
  8.00000000E-01  8.00000000E-01  1.50000000E+00  1.50000000E+00  8.00000000E-01
  8.00000000E-01  1.50000000E+00  1.50000000E+00  8.00000000E-01  8.00000000E-01
  1.50000000E+00  1.50000000E+00  8.00000000E-01  8.00000000E-01  1.50000000E+00
  1.50000000E+00  8.00000000E-01  8.00000000E-01  1.50000000E+00  1.50000000E+00
  8.00000000E-01  8.00000000E-01  1.50000000E+00  1.50000000E+00  8.00000000E-01
  8.00000000E-01  1.50000000E+00  1.50000000E+00  8.00000000E-01  8.00000000E-01
  1.50000000E+00  1.50000000E+00  8.00000000E-01  8.00000000E-01  1.50000000E+00
  1.50000000E+00  8.00000000E-01  8.00000000E-01  1.50000000E+00  1.50000000E+00
  8.00000000E-01  8.00000000E-01  1.50000000E+00  1.50000000E+00  8.00000000E-01
  8.00000000E-01  1.50000000E+00  1.50000000E+00  8.00000000E-01  8.00000000E-01
  1.50000000E+00  1.50000000E+00  8.00000000E-01  8.00000000E-01  1.50000000E+00
  1.50000000E+00  8.00000000E-01  8.00000000E-01  1.50000000E+00  1.50000000E+00
  8.00000000E-01  8.00000000E-01  1.50000000E+00  1.50000000E+00  8.00000000E-01
  8.00000000E-01  1.50000000E+00  1.50000000E+00  8.00000000E-01  8.00000000E-01
  1.50000000E+00  1.50000000E+00  8.00000000E-01  8.00000000E-01  1.50000000E+00
  1.50000000E+00  8.00000000E-01  8.00000000E-01  1.50000000E+00  1.50000000E+00
  8.00000000E-01  8.00000000E-01  1.50000000E+00  1.50000000E+00  8.00000000E-01
  8.00000000E-01  1.50000000E+00  1.50000000E+00  8.00000000E-01  8.00000000E-01
  1.50000000E+00  1.50000000E+00  8.00000000E-01  8.00000000E-01  1.50000000E+00
  1.50000000E+00  8.00000000E-01  8.00000000E-01  1.50000000E+00  1.50000000E+00
  8.00000000E-01  8.00000000E-01  1.50000000E+00  1.50000000E+00  8.00000000E-01
  8.00000000E-01  1.50000000E+00  1.50000000E+00  8.00000000E-01  8.00000000E-01
  1.50000000E+00  1.50000000E+00  8.00000000E-01  8.00000000E-01  1.50000000E+00
  1.50000000E+00  8.00000000E-01  8.00000000E-01  1.50000000E+00  1.50000000E+00
  8.00000000E-01  8.00000000E-01  1.50000000E+00  1.50000000E+00  8.00000000E-01
  8.00000000E-01  1.50000000E+00  1.50000000E+00  8.00000000E-01  8.00000000E-01
  1.50000000E+00  1.50000000E+00  8.00000000E-01  8.00000000E-01  1.50000000E+00
  1.50000000E+00  8.00000000E-01  8.00000000E-01  1.50000000E+00  1.50000000E+00
  8.00000000E-01  8.00000000E-01  1.50000000E+00  1.50000000E+00  8.00000000E-01
  8.00000000E-01  1.50000000E+00  1.50000000E+00  8.00000000E-01  8.00000000E-01
  1.50000000E+00  1.50000000E+00  8.00000000E-01  8.00000000E-01  1.50000000E+00
  1.50000000E+00  8.00000000E-01  8.00000000E-01  1.50000000E+00  1.50000000E+00
  8.00000000E-01  8.00000000E-01  1.50000000E+00  1.50000000E+00  8.00000000E-01
  8.00000000E-01  1.50000000E+00  1.50000000E+00  8.00000000E-01  8.00000000E-01
  1.50000000E+00  1.50000000E+00  8.00000000E-01  8.00000000E-01  1.50000000E+00
  1.50000000E+00  8.00000000E-01  8.00000000E-01  1.50000000E+00  1.50000000E+00
  8.00000000E-01  8.00000000E-01  1.50000000E+00  1.50000000E+00  8.00000000E-01
  8.00000000E-01  1.50000000E+00  1.50000000E+00  8.00000000E-01  8.00000000E-01
  1.50000000E+00  1.50000000E+00  8.00000000E-01  8.00000000E-01  1.50000000E+00
  1.50000000E+00  8.00000000E-01  8.00000000E-01  1.50000000E+00  1.50000000E+00
  8.00000000E-01  8.00000000E-01  1.50000000E+00  1.50000000E+00  8.00000000E-01
  8.00000000E-01  1.50000000E+00  1.50000000E+00  8.00000000E-01  8.00000000E-01
  1.50000000E+00  1.50000000E+00  8.00000000E-01  8.00000000E-01  1.50000000E+00
  1.50000000E+00  8.00000000E-01  8.00000000E-01  1.50000000E+00  1.50000000E+00
  8.00000000E-01  8.00000000E-01  1.50000000E+00  1.50000000E+00  8.00000000E-01
  8.00000000E-01  1.50000000E+00  1.50000000E+00  8.00000000E-01  8.00000000E-01
  1.50000000E+00  1.50000000E+00  8.00000000E-01  8.00000000E-01  1.50000000E+00
  1.50000000E+00  8.00000000E-01  8.00000000E-01  1.50000000E+00  1.50000000E+00
  8.00000000E-01  8.00000000E-01  1.50000000E+00  1.50000000E+00  8.00000000E-01
  8.00000000E-01  1.50000000E+00  1.50000000E+00  8.00000000E-01  8.00000000E-01
  1.50000000E+00  1.50000000E+00  8.00000000E-01  8.00000000E-01  1.50000000E+00
  1.50000000E+00  8.00000000E-01  8.00000000E-01  1.50000000E+00  1.50000000E+00
  8.00000000E-01  8.00000000E-01  1.50000000E+00  1.50000000E+00  8.00000000E-01
  8.00000000E-01  1.50000000E+00  1.50000000E+00  8.00000000E-01  8.00000000E-01
  1.50000000E+00  1.50000000E+00  8.00000000E-01  8.00000000E-01  1.50000000E+00
  1.50000000E+00  8.00000000E-01  8.00000000E-01  1.50000000E+00  1.50000000E+00
  8.00000000E-01  8.00000000E-01  1.50000000E+00  1.50000000E+00  8.00000000E-01
  8.00000000E-01  1.50000000E+00  1.50000000E+00  8.00000000E-01  8.00000000E-01
  1.50000000E+00  1.50000000E+00  8.00000000E-01  8.00000000E-01  1.50000000E+00
  1.50000000E+00  8.00000000E-01  8.00000000E-01  1.50000000E+00  1.50000000E+00
  8.00000000E-01  8.00000000E-01  1.50000000E+00  1.50000000E+00  8.00000000E-01
  8.00000000E-01  1.50000000E+00  1.50000000E+00  8.00000000E-01  8.00000000E-01
  1.50000000E+00  1.50000000E+00  8.00000000E-01  8.00000000E-01  1.50000000E+00
  1.50000000E+00  8.00000000E-01  8.00000000E-01  1.50000000E+00  1.50000000E+00
  8.00000000E-01  8.00000000E-01  1.50000000E+00  1.50000000E+00  8.00000000E-01
  8.00000000E-01  1.50000000E+00  1.50000000E+00  8.00000000E-01  8.00000000E-01
  1.50000000E+00  1.50000000E+00  8.00000000E-01  8.00000000E-01  1.50000000E+00
  1.50000000E+00  8.00000000E-01  8.00000000E-01  1.50000000E+00  1.50000000E+00
  8.00000000E-01  8.00000000E-01  1.50000000E+00  1.50000000E+00  8.00000000E-01
  8.00000000E-01  1.50000000E+00  1.50000000E+00  8.00000000E-01  8.00000000E-01
  1.50000000E+00  1.50000000E+00  8.00000000E-01  8.00000000E-01  1.50000000E+00
  1.50000000E+00  8.00000000E-01  8.00000000E-01  1.50000000E+00  1.50000000E+00
  8.00000000E-01  8.00000000E-01  1.50000000E+00  1.50000000E+00  8.00000000E-01
  8.00000000E-01  1.50000000E+00  1.50000000E+00  8.00000000E-01  8.00000000E-01
  1.50000000E+00  1.50000000E+00  8.00000000E-01  8.00000000E-01  1.50000000E+00
  1.50000000E+00  8.00000000E-01  8.00000000E-01  1.50000000E+00  1.50000000E+00
  8.00000000E-01  8.00000000E-01  1.50000000E+00  1.50000000E+00  8.00000000E-01
  8.00000000E-01  1.50000000E+00  1.50000000E+00  8.00000000E-01  8.00000000E-01
  1.50000000E+00  1.50000000E+00  8.00000000E-01  8.00000000E-01  1.50000000E+00
  1.50000000E+00  8.00000000E-01  8.00000000E-01  1.50000000E+00  1.50000000E+00
  8.00000000E-01  8.00000000E-01  1.50000000E+00  1.50000000E+00  8.00000000E-01
  8.00000000E-01  1.50000000E+00  1.50000000E+00  8.00000000E-01  8.00000000E-01
  1.50000000E+00  1.50000000E+00  8.00000000E-01  8.00000000E-01  1.50000000E+00
  1.50000000E+00  8.00000000E-01  8.00000000E-01  1.50000000E+00  1.50000000E+00
  8.00000000E-01  8.00000000E-01  1.50000000E+00  1.50000000E+00  8.00000000E-01
  8.00000000E-01  1.50000000E+00  1.50000000E+00  8.00000000E-01  8.00000000E-01
  1.50000000E+00  1.50000000E+00  8.00000000E-01  8.00000000E-01  1.50000000E+00
  1.50000000E+00  8.00000000E-01  8.00000000E-01  1.50000000E+00  1.50000000E+00
  8.00000000E-01  8.00000000E-01  1.50000000E+00  1.50000000E+00  8.00000000E-01
  8.00000000E-01  1.50000000E+00  1.50000000E+00  8.00000000E-01  8.00000000E-01
  1.50000000E+00  1.50000000E+00  8.00000000E-01  8.00000000E-01  1.50000000E+00
  1.50000000E+00  8.00000000E-01  8.00000000E-01  1.50000000E+00  1.50000000E+00
  8.00000000E-01  8.00000000E-01  1.50000000E+00  1.50000000E+00  8.00000000E-01
  8.00000000E-01  1.50000000E+00  1.50000000E+00  8.00000000E-01  8.00000000E-01
  1.50000000E+00  1.50000000E+00  8.00000000E-01  8.00000000E-01  1.50000000E+00
  1.50000000E+00  8.00000000E-01  8.00000000E-01  1.50000000E+00  1.50000000E+00
  8.00000000E-01  8.00000000E-01  1.50000000E+00  1.50000000E+00  8.00000000E-01
  8.00000000E-01  1.50000000E+00  1.50000000E+00  8.00000000E-01  8.00000000E-01
  1.50000000E+00  1.50000000E+00  8.00000000E-01  8.00000000E-01  1.50000000E+00
  1.50000000E+00  8.00000000E-01  8.00000000E-01  1.50000000E+00  1.50000000E+00
  8.00000000E-01  8.00000000E-01  1.50000000E+00  1.50000000E+00  8.00000000E-01
  8.00000000E-01  1.50000000E+00  1.50000000E+00  8.00000000E-01  8.00000000E-01
  1.50000000E+00  1.50000000E+00  8.00000000E-01  8.00000000E-01  1.50000000E+00
  1.50000000E+00  8.00000000E-01  8.00000000E-01  1.50000000E+00  1.50000000E+00
  8.00000000E-01  8.00000000E-01  1.50000000E+00  1.50000000E+00  8.00000000E-01
  8.00000000E-01  1.50000000E+00  1.50000000E+00  8.00000000E-01  8.00000000E-01
  1.50000000E+00  1.50000000E+00  8.00000000E-01  8.00000000E-01  1.50000000E+00
  1.50000000E+00  8.00000000E-01  8.00000000E-01  1.50000000E+00  1.50000000E+00
  8.00000000E-01  8.00000000E-01  1.50000000E+00  1.50000000E+00  8.00000000E-01
  8.00000000E-01  1.50000000E+00  1.50000000E+00  8.00000000E-01  8.00000000E-01
  1.50000000E+00  1.50000000E+00  8.00000000E-01  8.00000000E-01  1.50000000E+00
  1.50000000E+00  8.00000000E-01  8.00000000E-01  1.50000000E+00  1.50000000E+00
  8.00000000E-01  8.00000000E-01  1.50000000E+00  1.50000000E+00  8.00000000E-01
  8.00000000E-01  1.50000000E+00  1.50000000E+00  8.00000000E-01  8.00000000E-01
  1.50000000E+00  1.50000000E+00  8.00000000E-01  8.00000000E-01  1.50000000E+00
  1.50000000E+00  8.00000000E-01  8.00000000E-01  1.50000000E+00  1.50000000E+00
  8.00000000E-01  8.00000000E-01  1.50000000E+00  1.50000000E+00  8.00000000E-01
  8.00000000E-01  1.50000000E+00  1.50000000E+00  8.00000000E-01  8.00000000E-01
  1.50000000E+00  1.50000000E+00  8.00000000E-01  8.00000000E-01  1.50000000E+00
  1.50000000E+00  8.00000000E-01  8.00000000E-01  1.50000000E+00
%FLAG SCREEN                                                                    
%FORMAT(5E16.8)                                                                 
  8.50000000E-01  7.20000000E-01  8.50000000E-01  8.50000000E-01  7.20000000E-01
  8.50000000E-01  7.90000000E-01  8.50000000E-01  7.20000000E-01  8.50000000E-01
  7.20000000E-01  8.50000000E-01  8.50000000E-01  7.20000000E-01  8.50000000E-01
  8.50000000E-01  7.20000000E-01  8.50000000E-01  8.50000000E-01  7.20000000E-01
  8.50000000E-01  8.50000000E-01  7.90000000E-01  8.50000000E-01  8.50000000E-01
  8.50000000E-01  7.20000000E-01  8.50000000E-01  7.90000000E-01  8.50000000E-01
  7.20000000E-01  8.50000000E-01  7.20000000E-01  8.50000000E-01  8.50000000E-01
  8.50000000E-01  7.20000000E-01  8.50000000E-01  7.90000000E-01  8.50000000E-01
  7.20000000E-01  8.50000000E-01  7.20000000E-01  8.50000000E-01  8.50000000E-01
  7.20000000E-01  8.50000000E-01  8.50000000E-01  7.20000000E-01  8.50000000E-01
  8.50000000E-01  7.20000000E-01  8.50000000E-01  7.90000000E-01  8.50000000E-01
  7.20000000E-01  8.50000000E-01  8.50000000E-01  8.50000000E-01  8.50000000E-01
  8.50000000E-01  8.50000000E-01  8.00000000E-01  8.50000000E-01  8.50000000E-01
  8.50000000E-01  8.00000000E-01  8.50000000E-01  8.50000000E-01  8.50000000E-01
  8.00000000E-01  8.50000000E-01  8.50000000E-01  8.50000000E-01  8.00000000E-01
  8.50000000E-01  8.50000000E-01  8.50000000E-01  8.00000000E-01  8.50000000E-01
  8.50000000E-01  8.50000000E-01  8.00000000E-01  8.50000000E-01  8.50000000E-01
  8.50000000E-01  8.00000000E-01  8.50000000E-01  8.50000000E-01  8.50000000E-01
  8.00000000E-01  8.50000000E-01  8.50000000E-01  8.50000000E-01  8.00000000E-01
  8.50000000E-01  8.50000000E-01  8.50000000E-01  8.00000000E-01  8.50000000E-01
  8.50000000E-01  8.50000000E-01  8.00000000E-01  8.50000000E-01  8.50000000E-01
  8.50000000E-01  8.00000000E-01  8.50000000E-01  8.50000000E-01  8.50000000E-01
  8.00000000E-01  8.50000000E-01  8.50000000E-01  8.50000000E-01  8.00000000E-01
  8.50000000E-01  8.50000000E-01  8.50000000E-01  8.00000000E-01  8.50000000E-01
  8.50000000E-01  8.50000000E-01  8.00000000E-01  8.50000000E-01  8.50000000E-01
  8.50000000E-01  8.00000000E-01  8.50000000E-01  8.50000000E-01  8.50000000E-01
  8.00000000E-01  8.50000000E-01  8.50000000E-01  8.50000000E-01  8.00000000E-01
  8.50000000E-01  8.50000000E-01  8.50000000E-01  8.00000000E-01  8.50000000E-01
  8.50000000E-01  8.50000000E-01  8.00000000E-01  8.50000000E-01  8.50000000E-01
  8.50000000E-01  8.00000000E-01  8.50000000E-01  8.50000000E-01  8.50000000E-01
  8.00000000E-01  8.50000000E-01  8.50000000E-01  8.50000000E-01  8.00000000E-01
  8.50000000E-01  8.50000000E-01  8.50000000E-01  8.00000000E-01  8.50000000E-01
  8.50000000E-01  8.50000000E-01  8.00000000E-01  8.50000000E-01  8.50000000E-01
  8.50000000E-01  8.00000000E-01  8.50000000E-01  8.50000000E-01  8.50000000E-01
  8.00000000E-01  8.50000000E-01  8.50000000E-01  8.50000000E-01  8.00000000E-01
  8.50000000E-01  8.50000000E-01  8.50000000E-01  8.00000000E-01  8.50000000E-01
  8.50000000E-01  8.50000000E-01  8.00000000E-01  8.50000000E-01  8.50000000E-01
  8.50000000E-01  8.00000000E-01  8.50000000E-01  8.50000000E-01  8.50000000E-01
  8.00000000E-01  8.50000000E-01  8.50000000E-01  8.50000000E-01  8.00000000E-01
  8.50000000E-01  8.50000000E-01  8.50000000E-01  8.00000000E-01  8.50000000E-01
  8.50000000E-01  8.50000000E-01  8.00000000E-01  8.50000000E-01  8.50000000E-01
  8.50000000E-01  8.00000000E-01  8.50000000E-01  8.50000000E-01  8.50000000E-01
  8.00000000E-01  8.50000000E-01  8.50000000E-01  8.50000000E-01  8.00000000E-01
  8.50000000E-01  8.50000000E-01  8.50000000E-01  8.00000000E-01  8.50000000E-01
  8.50000000E-01  8.50000000E-01  8.00000000E-01  8.50000000E-01  8.50000000E-01
  8.50000000E-01  8.00000000E-01  8.50000000E-01  8.50000000E-01  8.50000000E-01
  8.00000000E-01  8.50000000E-01  8.50000000E-01  8.50000000E-01  8.00000000E-01
  8.50000000E-01  8.50000000E-01  8.50000000E-01  8.00000000E-01  8.50000000E-01
  8.50000000E-01  8.50000000E-01  8.00000000E-01  8.50000000E-01  8.50000000E-01
  8.50000000E-01  8.00000000E-01  8.50000000E-01  8.50000000E-01  8.50000000E-01
  8.00000000E-01  8.50000000E-01  8.50000000E-01  8.50000000E-01  8.00000000E-01
  8.50000000E-01  8.50000000E-01  8.50000000E-01  8.00000000E-01  8.50000000E-01
  8.50000000E-01  8.50000000E-01  8.00000000E-01  8.50000000E-01  8.50000000E-01
  8.50000000E-01  8.00000000E-01  8.50000000E-01  8.50000000E-01  8.50000000E-01
  8.00000000E-01  8.50000000E-01  8.50000000E-01  8.50000000E-01  8.00000000E-01
  8.50000000E-01  8.50000000E-01  8.50000000E-01  8.00000000E-01  8.50000000E-01
  8.50000000E-01  8.50000000E-01  8.00000000E-01  8.50000000E-01  8.50000000E-01
  8.50000000E-01  8.00000000E-01  8.50000000E-01  8.50000000E-01  8.50000000E-01
  8.00000000E-01  8.50000000E-01  8.50000000E-01  8.50000000E-01  8.00000000E-01
  8.50000000E-01  8.50000000E-01  8.50000000E-01  8.00000000E-01  8.50000000E-01
  8.50000000E-01  8.50000000E-01  8.00000000E-01  8.50000000E-01  8.50000000E-01
  8.50000000E-01  8.00000000E-01  8.50000000E-01  8.50000000E-01  8.50000000E-01
  8.00000000E-01  8.50000000E-01  8.50000000E-01  8.50000000E-01  8.00000000E-01
  8.50000000E-01  8.50000000E-01  8.50000000E-01  8.00000000E-01  8.50000000E-01
  8.50000000E-01  8.50000000E-01  8.00000000E-01  8.50000000E-01  8.50000000E-01
  8.50000000E-01  8.00000000E-01  8.50000000E-01  8.50000000E-01  8.50000000E-01
  8.00000000E-01  8.50000000E-01  8.50000000E-01  8.50000000E-01  8.00000000E-01
  8.50000000E-01  8.50000000E-01  8.50000000E-01  8.00000000E-01  8.50000000E-01
  8.50000000E-01  8.50000000E-01  8.00000000E-01  8.50000000E-01  8.50000000E-01
  8.50000000E-01  8.00000000E-01  8.50000000E-01  8.50000000E-01  8.50000000E-01
  8.00000000E-01  8.50000000E-01  8.50000000E-01  8.50000000E-01  8.00000000E-01
  8.50000000E-01  8.50000000E-01  8.50000000E-01  8.00000000E-01  8.50000000E-01
  8.50000000E-01  8.50000000E-01  8.00000000E-01  8.50000000E-01  8.50000000E-01
  8.50000000E-01  8.00000000E-01  8.50000000E-01  8.50000000E-01  8.50000000E-01
  8.00000000E-01  8.50000000E-01  8.50000000E-01  8.50000000E-01  8.00000000E-01
  8.50000000E-01  8.50000000E-01  8.50000000E-01  8.00000000E-01  8.50000000E-01
  8.50000000E-01  8.50000000E-01  8.00000000E-01  8.50000000E-01  8.50000000E-01
  8.50000000E-01  8.00000000E-01  8.50000000E-01  8.50000000E-01  8.50000000E-01
  8.00000000E-01  8.50000000E-01  8.50000000E-01  8.50000000E-01  8.00000000E-01
  8.50000000E-01  8.50000000E-01  8.50000000E-01  8.00000000E-01  8.50000000E-01
  8.50000000E-01  8.50000000E-01  8.00000000E-01  8.50000000E-01  8.50000000E-01
  8.50000000E-01  8.00000000E-01  8.50000000E-01  8.50000000E-01  8.50000000E-01
  8.00000000E-01  8.50000000E-01  8.50000000E-01  8.50000000E-01  8.00000000E-01
  8.50000000E-01  8.50000000E-01  8.50000000E-01  8.00000000E-01  8.50000000E-01
  8.50000000E-01  8.50000000E-01  8.00000000E-01  8.50000000E-01  8.50000000E-01
  8.50000000E-01  8.00000000E-01  8.50000000E-01  8.50000000E-01  8.50000000E-01
  8.00000000E-01  8.50000000E-01  8.50000000E-01  8.50000000E-01  8.00000000E-01
  8.50000000E-01  8.50000000E-01  8.50000000E-01  8.00000000E-01  8.50000000E-01
  8.50000000E-01  8.50000000E-01  8.00000000E-01  8.50000000E-01  8.50000000E-01
  8.50000000E-01  8.00000000E-01  8.50000000E-01  8.50000000E-01  8.50000000E-01
  8.00000000E-01  8.50000000E-01  8.50000000E-01  8.50000000E-01  8.00000000E-01
  8.50000000E-01  8.50000000E-01  8.50000000E-01  8.00000000E-01  8.50000000E-01
  8.50000000E-01  8.50000000E-01  8.00000000E-01  8.50000000E-01  8.50000000E-01
  8.50000000E-01  8.00000000E-01  8.50000000E-01  8.50000000E-01  8.50000000E-01
  8.00000000E-01  8.50000000E-01  8.50000000E-01  8.50000000E-01  8.00000000E-01
  8.50000000E-01  8.50000000E-01  8.50000000E-01  8.00000000E-01  8.50000000E-01
  8.50000000E-01  8.50000000E-01  8.00000000E-01  8.50000000E-01  8.50000000E-01
  8.50000000E-01  8.00000000E-01  8.50000000E-01  8.50000000E-01  8.50000000E-01
  8.00000000E-01  8.50000000E-01  8.50000000E-01  8.50000000E-01  8.00000000E-01
  8.50000000E-01  8.50000000E-01  8.50000000E-01  8.00000000E-01  8.50000000E-01
  8.50000000E-01  8.50000000E-01  8.00000000E-01  8.50000000E-01  8.50000000E-01
  8.50000000E-01  8.00000000E-01  8.50000000E-01  8.50000000E-01  8.50000000E-01
  8.00000000E-01  8.50000000E-01  8.50000000E-01  8.50000000E-01  8.00000000E-01
  8.50000000E-01  8.50000000E-01  8.50000000E-01  8.00000000E-01  8.50000000E-01
  8.50000000E-01  8.50000000E-01  8.00000000E-01  8.50000000E-01  8.50000000E-01
  8.50000000E-01  8.00000000E-01  8.50000000E-01  8.50000000E-01  8.50000000E-01
  8.00000000E-01  8.50000000E-01  8.50000000E-01  8.50000000E-01  8.00000000E-01
  8.50000000E-01  8.50000000E-01  8.50000000E-01  8.00000000E-01  8.50000000E-01
  8.50000000E-01  8.50000000E-01  8.00000000E-01  8.50000000E-01  8.50000000E-01
  8.50000000E-01  8.00000000E-01  8.50000000E-01  8.50000000E-01  8.50000000E-01
  8.00000000E-01  8.50000000E-01  8.50000000E-01  8.50000000E-01  8.00000000E-01
  8.50000000E-01  8.50000000E-01  8.50000000E-01  8.00000000E-01  8.50000000E-01
  8.50000000E-01  8.50000000E-01  8.00000000E-01  8.50000000E-01  8.50000000E-01
  8.50000000E-01  8.00000000E-01  8.50000000E-01  8.50000000E-01  8.50000000E-01
  8.00000000E-01  8.50000000E-01  8.50000000E-01  8.50000000E-01  8.00000000E-01
  8.50000000E-01  8.50000000E-01  8.50000000E-01  8.00000000E-01  8.50000000E-01
  8.50000000E-01  8.50000000E-01  8.00000000E-01  8.50000000E-01  8.50000000E-01
  8.50000000E-01  8.00000000E-01  8.50000000E-01  8.50000000E-01  8.50000000E-01
  8.00000000E-01  8.50000000E-01  8.50000000E-01  8.50000000E-01  8.00000000E-01
  8.50000000E-01  8.50000000E-01  8.50000000E-01  8.00000000E-01  8.50000000E-01
  8.50000000E-01  8.50000000E-01  8.00000000E-01  8.50000000E-01  8.50000000E-01
  8.50000000E-01  8.00000000E-01  8.50000000E-01  8.50000000E-01  8.50000000E-01
  8.00000000E-01  8.50000000E-01  8.50000000E-01  8.50000000E-01  8.00000000E-01
  8.50000000E-01  8.50000000E-01  8.50000000E-01  8.00000000E-01  8.50000000E-01
  8.50000000E-01  8.50000000E-01  8.00000000E-01  8.50000000E-01  8.50000000E-01
  8.50000000E-01  8.00000000E-01  8.50000000E-01  8.50000000E-01  8.50000000E-01
  8.00000000E-01  8.50000000E-01  8.50000000E-01  8.50000000E-01  8.00000000E-01
  8.50000000E-01  8.50000000E-01  8.50000000E-01  8.00000000E-01  8.50000000E-01
  8.50000000E-01  8.50000000E-01  8.00000000E-01  8.50000000E-01  8.50000000E-01
  8.50000000E-01  8.00000000E-01  8.50000000E-01  8.50000000E-01  8.50000000E-01
  8.00000000E-01  8.50000000E-01  8.50000000E-01  8.50000000E-01  8.00000000E-01
  8.50000000E-01  8.50000000E-01  8.50000000E-01  8.00000000E-01  8.50000000E-01
  8.50000000E-01  8.50000000E-01  8.00000000E-01  8.50000000E-01  8.50000000E-01
  8.50000000E-01  8.00000000E-01  8.50000000E-01  8.50000000E-01  8.50000000E-01
  8.00000000E-01  8.50000000E-01  8.50000000E-01  8.50000000E-01  8.00000000E-01
  8.50000000E-01  8.50000000E-01  8.50000000E-01  8.00000000E-01  8.50000000E-01
  8.50000000E-01  8.50000000E-01  8.00000000E-01  8.50000000E-01  8.50000000E-01
  8.50000000E-01  8.00000000E-01  8.50000000E-01  8.50000000E-01  8.50000000E-01
  8.00000000E-01  8.50000000E-01  8.50000000E-01  8.50000000E-01  8.00000000E-01
  8.50000000E-01  8.50000000E-01  8.50000000E-01  8.00000000E-01  8.50000000E-01
  8.50000000E-01  8.50000000E-01  8.00000000E-01  8.50000000E-01  8.50000000E-01
  8.50000000E-01  8.00000000E-01  8.50000000E-01  8.50000000E-01  8.50000000E-01
  8.00000000E-01  8.50000000E-01  8.50000000E-01  8.50000000E-01  8.00000000E-01
  8.50000000E-01  8.50000000E-01  8.50000000E-01  8.00000000E-01  8.50000000E-01
  8.50000000E-01  8.50000000E-01  8.00000000E-01  8.50000000E-01  8.50000000E-01
  8.50000000E-01  8.00000000E-01  8.50000000E-01  8.50000000E-01  8.50000000E-01
  8.00000000E-01  8.50000000E-01  8.50000000E-01  8.50000000E-01  8.00000000E-01
  8.50000000E-01  8.50000000E-01  8.50000000E-01  8.00000000E-01  8.50000000E-01
  8.50000000E-01  8.50000000E-01  8.00000000E-01  8.50000000E-01  8.50000000E-01
  8.50000000E-01  8.00000000E-01  8.50000000E-01  8.50000000E-01  8.50000000E-01
  8.00000000E-01  8.50000000E-01  8.50000000E-01  8.50000000E-01  8.00000000E-01
  8.50000000E-01  8.50000000E-01  8.50000000E-01  8.00000000E-01  8.50000000E-01
  8.50000000E-01  8.50000000E-01  8.00000000E-01  8.50000000E-01  8.50000000E-01
  8.50000000E-01  8.00000000E-01  8.50000000E-01  8.50000000E-01  8.50000000E-01
  8.00000000E-01  8.50000000E-01  8.50000000E-01  8.50000000E-01  8.00000000E-01
  8.50000000E-01  8.50000000E-01  8.50000000E-01  8.00000000E-01  8.50000000E-01
  8.50000000E-01  8.50000000E-01  8.00000000E-01  8.50000000E-01  8.50000000E-01
  8.50000000E-01  8.00000000E-01  8.50000000E-01  8.50000000E-01  8.50000000E-01
  8.00000000E-01  8.50000000E-01  8.50000000E-01  8.50000000E-01  8.00000000E-01
  8.50000000E-01  8.50000000E-01  8.50000000E-01  8.00000000E-01  8.50000000E-01
  8.50000000E-01  8.50000000E-01  8.00000000E-01  8.50000000E-01  8.50000000E-01
  8.50000000E-01  8.00000000E-01  8.50000000E-01  8.50000000E-01  8.50000000E-01
  8.00000000E-01  8.50000000E-01  8.50000000E-01  8.50000000E-01  8.00000000E-01
  8.50000000E-01  8.50000000E-01  8.50000000E-01  8.00000000E-01  8.50000000E-01
  8.50000000E-01  8.50000000E-01  8.00000000E-01  8.50000000E-01  8.50000000E-01
  8.50000000E-01  8.00000000E-01  8.50000000E-01  8.50000000E-01  8.50000000E-01
  8.00000000E-01  8.50000000E-01  8.50000000E-01  8.50000000E-01  8.00000000E-01
  8.50000000E-01  8.50000000E-01  8.50000000E-01  8.00000000E-01  8.50000000E-01
  8.50000000E-01  8.50000000E-01  8.00000000E-01  8.50000000E-01  8.50000000E-01
  8.50000000E-01  8.00000000E-01  8.50000000E-01  8.50000000E-01  8.50000000E-01
  8.00000000E-01  8.50000000E-01  8.50000000E-01  8.50000000E-01  8.00000000E-01
  8.50000000E-01  8.50000000E-01  8.50000000E-01  8.00000000E-01  8.50000000E-01
  8.50000000E-01  8.50000000E-01  8.00000000E-01  8.50000000E-01  8.50000000E-01
  8.50000000E-01  8.00000000E-01  8.50000000E-01  8.50000000E-01  8.50000000E-01
  8.00000000E-01  8.50000000E-01  8.50000000E-01  8.50000000E-01  8.00000000E-01
  8.50000000E-01  8.50000000E-01  8.50000000E-01  8.00000000E-01  8.50000000E-01
  8.50000000E-01  8.50000000E-01  8.00000000E-01  8.50000000E-01  8.50000000E-01
  8.50000000E-01  8.00000000E-01  8.50000000E-01  8.50000000E-01  8.50000000E-01
  8.00000000E-01  8.50000000E-01  8.50000000E-01  8.50000000E-01  8.00000000E-01
  8.50000000E-01  8.50000000E-01  8.50000000E-01  8.00000000E-01  8.50000000E-01
  8.50000000E-01  8.50000000E-01  8.00000000E-01  8.50000000E-01  8.50000000E-01
  8.50000000E-01  8.00000000E-01  8.50000000E-01  8.50000000E-01  8.50000000E-01
  8.00000000E-01  8.50000000E-01  8.50000000E-01  8.50000000E-01  8.00000000E-01
  8.50000000E-01  8.50000000E-01  8.50000000E-01  8.00000000E-01  8.50000000E-01
  8.50000000E-01  8.50000000E-01  8.00000000E-01  8.50000000E-01  8.50000000E-01
  8.50000000E-01  8.00000000E-01  8.50000000E-01  8.50000000E-01  8.50000000E-01
  8.00000000E-01  8.50000000E-01  8.50000000E-01  8.50000000E-01  8.00000000E-01
  8.50000000E-01  8.50000000E-01  8.50000000E-01  8.00000000E-01  8.50000000E-01
  8.50000000E-01  8.50000000E-01  8.00000000E-01  8.50000000E-01  8.50000000E-01
  8.50000000E-01  8.00000000E-01  8.50000000E-01  8.50000000E-01  8.50000000E-01
  8.00000000E-01  8.50000000E-01  8.50000000E-01  8.50000000E-01  8.00000000E-01
  8.50000000E-01  8.50000000E-01  8.50000000E-01  8.00000000E-01  8.50000000E-01
  8.50000000E-01  8.50000000E-01  8.00000000E-01  8.50000000E-01  8.50000000E-01
  8.50000000E-01  8.00000000E-01  8.50000000E-01  8.50000000E-01  8.50000000E-01
  8.00000000E-01  8.50000000E-01  8.50000000E-01  8.50000000E-01  8.00000000E-01
  8.50000000E-01  8.50000000E-01  8.50000000E-01  8.00000000E-01  8.50000000E-01
  8.50000000E-01  8.50000000E-01  8.00000000E-01  8.50000000E-01  8.50000000E-01
  8.50000000E-01  8.00000000E-01  8.50000000E-01  8.50000000E-01  8.50000000E-01
  8.00000000E-01  8.50000000E-01  8.50000000E-01  8.50000000E-01  8.00000000E-01
  8.50000000E-01  8.50000000E-01  8.50000000E-01  8.00000000E-01  8.50000000E-01
  8.50000000E-01  8.50000000E-01  8.00000000E-01  8.50000000E-01  8.50000000E-01
  8.50000000E-01  8.00000000E-01  8.50000000E-01  8.50000000E-01  8.50000000E-01
  8.00000000E-01  8.50000000E-01  8.50000000E-01  8.50000000E-01  8.00000000E-01
  8.50000000E-01  8.50000000E-01  8.50000000E-01  8.00000000E-01  8.50000000E-01
  8.50000000E-01  8.50000000E-01  8.00000000E-01  8.50000000E-01  8.50000000E-01
  8.50000000E-01  8.00000000E-01  8.50000000E-01  8.50000000E-01  8.50000000E-01
  8.00000000E-01  8.50000000E-01  8.50000000E-01  8.50000000E-01  8.00000000E-01
  8.50000000E-01  8.50000000E-01  8.50000000E-01  8.00000000E-01  8.50000000E-01
  8.50000000E-01  8.50000000E-01  8.00000000E-01  8.50000000E-01  8.50000000E-01
  8.50000000E-01  8.00000000E-01  8.50000000E-01  8.50000000E-01  8.50000000E-01
  8.00000000E-01  8.50000000E-01  8.50000000E-01  8.50000000E-01  8.00000000E-01
  8.50000000E-01  8.50000000E-01  8.50000000E-01  8.00000000E-01  8.50000000E-01
  8.50000000E-01  8.50000000E-01  8.00000000E-01  8.50000000E-01  8.50000000E-01
  8.50000000E-01  8.00000000E-01  8.50000000E-01  8.50000000E-01  8.50000000E-01
  8.00000000E-01  8.50000000E-01  8.50000000E-01  8.50000000E-01  8.00000000E-01
  8.50000000E-01  8.50000000E-01  8.50000000E-01  8.00000000E-01  8.50000000E-01
  8.50000000E-01  8.50000000E-01  8.00000000E-01  8.50000000E-01  8.50000000E-01
  8.50000000E-01  8.00000000E-01  8.50000000E-01  8.50000000E-01  8.50000000E-01
  8.00000000E-01  8.50000000E-01  8.50000000E-01  8.50000000E-01  8.00000000E-01
  8.50000000E-01  8.50000000E-01  8.50000000E-01  8.00000000E-01  8.50000000E-01
  8.50000000E-01  8.50000000E-01  8.00000000E-01  8.50000000E-01  8.50000000E-01
  8.50000000E-01  8.00000000E-01  8.50000000E-01  8.50000000E-01  8.50000000E-01
  8.00000000E-01  8.50000000E-01  8.50000000E-01  8.50000000E-01  8.00000000E-01
  8.50000000E-01  8.50000000E-01  8.50000000E-01  8.00000000E-01  8.50000000E-01
  8.50000000E-01  8.50000000E-01  8.00000000E-01  8.50000000E-01  8.50000000E-01
  8.50000000E-01  8.00000000E-01  8.50000000E-01  8.50000000E-01  8.50000000E-01
  8.00000000E-01  8.50000000E-01  8.50000000E-01  8.50000000E-01  8.00000000E-01
  8.50000000E-01  8.50000000E-01  8.50000000E-01  8.00000000E-01  8.50000000E-01
  8.50000000E-01  8.50000000E-01  8.00000000E-01  8.50000000E-01  8.50000000E-01
  8.50000000E-01  8.00000000E-01  8.50000000E-01  8.50000000E-01  8.50000000E-01
  8.00000000E-01  8.50000000E-01  8.50000000E-01  8.50000000E-01  8.00000000E-01
  8.50000000E-01  8.50000000E-01  8.50000000E-01  8.00000000E-01  8.50000000E-01
  8.50000000E-01  8.50000000E-01  8.00000000E-01  8.50000000E-01  8.50000000E-01
  8.50000000E-01  8.00000000E-01  8.50000000E-01  8.50000000E-01  8.50000000E-01
  8.00000000E-01  8.50000000E-01  8.50000000E-01  8.50000000E-01  8.00000000E-01
  8.50000000E-01  8.50000000E-01  8.50000000E-01  8.00000000E-01  8.50000000E-01
  8.50000000E-01  8.50000000E-01  8.00000000E-01  8.50000000E-01  8.50000000E-01
  8.50000000E-01  8.00000000E-01  8.50000000E-01  8.50000000E-01  8.50000000E-01
  8.00000000E-01  8.50000000E-01  8.50000000E-01  8.50000000E-01  8.00000000E-01
  8.50000000E-01  8.50000000E-01  8.50000000E-01  8.00000000E-01  8.50000000E-01
  8.50000000E-01  8.50000000E-01  8.00000000E-01  8.50000000E-01  8.50000000E-01
  8.50000000E-01  8.00000000E-01  8.50000000E-01  8.50000000E-01  8.50000000E-01
  8.00000000E-01  8.50000000E-01  8.50000000E-01  8.50000000E-01  8.00000000E-01
  8.50000000E-01  8.50000000E-01  8.50000000E-01  8.00000000E-01  8.50000000E-01
  8.50000000E-01  8.50000000E-01  8.00000000E-01  8.50000000E-01  8.50000000E-01
  8.50000000E-01  8.00000000E-01  8.50000000E-01  8.50000000E-01  8.50000000E-01
  8.00000000E-01  8.50000000E-01  8.50000000E-01  8.50000000E-01  8.00000000E-01
  8.50000000E-01  8.50000000E-01  8.50000000E-01  8.00000000E-01  8.50000000E-01
  8.50000000E-01  8.50000000E-01  8.00000000E-01  8.50000000E-01  8.50000000E-01
  8.50000000E-01  8.00000000E-01  8.50000000E-01  8.50000000E-01  8.50000000E-01
  8.00000000E-01  8.50000000E-01  8.50000000E-01  8.50000000E-01  8.00000000E-01
  8.50000000E-01  8.50000000E-01  8.50000000E-01  8.00000000E-01  8.50000000E-01
  8.50000000E-01  8.50000000E-01  8.00000000E-01  8.50000000E-01  8.50000000E-01
  8.50000000E-01  8.00000000E-01  8.50000000E-01  8.50000000E-01  8.50000000E-01
  8.00000000E-01  8.50000000E-01  8.50000000E-01  8.50000000E-01  8.00000000E-01
  8.50000000E-01  8.50000000E-01  8.50000000E-01  8.00000000E-01  8.50000000E-01
  8.50000000E-01  8.50000000E-01  8.00000000E-01  8.50000000E-01  8.50000000E-01
  8.50000000E-01  8.00000000E-01  8.50000000E-01  8.50000000E-01  8.50000000E-01
  8.00000000E-01  8.50000000E-01  8.50000000E-01  8.50000000E-01  8.00000000E-01
  8.50000000E-01  8.50000000E-01  8.50000000E-01  8.00000000E-01  8.50000000E-01
  8.50000000E-01  8.50000000E-01  8.00000000E-01  8.50000000E-01  8.50000000E-01
  8.50000000E-01  8.00000000E-01  8.50000000E-01  8.50000000E-01  8.50000000E-01
  8.00000000E-01  8.50000000E-01  8.50000000E-01  8.50000000E-01  8.00000000E-01
  8.50000000E-01  8.50000000E-01  8.50000000E-01  8.00000000E-01  8.50000000E-01
  8.50000000E-01  8.50000000E-01  8.00000000E-01  8.50000000E-01  8.50000000E-01
  8.50000000E-01  8.00000000E-01  8.50000000E-01  8.50000000E-01  8.50000000E-01
  8.00000000E-01  8.50000000E-01  8.50000000E-01  8.50000000E-01  8.00000000E-01
  8.50000000E-01  8.50000000E-01  8.50000000E-01  8.00000000E-01  8.50000000E-01
  8.50000000E-01  8.50000000E-01  8.00000000E-01  8.50000000E-01  8.50000000E-01
  8.50000000E-01  8.00000000E-01  8.50000000E-01  8.50000000E-01  8.50000000E-01
  8.00000000E-01  8.50000000E-01  8.50000000E-01  8.50000000E-01  8.00000000E-01
  8.50000000E-01  8.50000000E-01  8.50000000E-01  8.00000000E-01  8.50000000E-01
  8.50000000E-01  8.50000000E-01  8.00000000E-01  8.50000000E-01  8.50000000E-01
  8.50000000E-01  8.00000000E-01  8.50000000E-01  8.50000000E-01  8.50000000E-01
  8.00000000E-01  8.50000000E-01  8.50000000E-01  8.50000000E-01  8.00000000E-01
  8.50000000E-01  8.50000000E-01  8.50000000E-01  8.00000000E-01  8.50000000E-01
  8.50000000E-01  8.50000000E-01  8.00000000E-01  8.50000000E-01  8.50000000E-01
  8.50000000E-01  8.00000000E-01  8.50000000E-01  8.50000000E-01  8.50000000E-01
  8.00000000E-01  8.50000000E-01  8.50000000E-01  8.50000000E-01  8.00000000E-01
  8.50000000E-01  8.50000000E-01  8.50000000E-01  8.00000000E-01  8.50000000E-01
  8.50000000E-01  8.50000000E-01  8.00000000E-01  8.50000000E-01  8.50000000E-01
  8.50000000E-01  8.00000000E-01  8.50000000E-01  8.50000000E-01  8.50000000E-01
  8.00000000E-01  8.50000000E-01  8.50000000E-01  8.50000000E-01  8.00000000E-01
  8.50000000E-01  8.50000000E-01  8.50000000E-01  8.00000000E-01  8.50000000E-01
  8.50000000E-01  8.50000000E-01  8.00000000E-01  8.50000000E-01  8.50000000E-01
  8.50000000E-01  8.00000000E-01  8.50000000E-01  8.50000000E-01  8.50000000E-01
  8.00000000E-01  8.50000000E-01  8.50000000E-01  8.50000000E-01  8.00000000E-01
  8.50000000E-01  8.50000000E-01  8.50000000E-01  8.00000000E-01  8.50000000E-01
  8.50000000E-01  8.50000000E-01  8.00000000E-01  8.50000000E-01  8.50000000E-01
  8.50000000E-01  8.00000000E-01  8.50000000E-01  8.50000000E-01  8.50000000E-01
  8.00000000E-01  8.50000000E-01  8.50000000E-01  8.50000000E-01  8.00000000E-01
  8.50000000E-01  8.50000000E-01  8.50000000E-01  8.00000000E-01  8.50000000E-01
  8.50000000E-01  8.50000000E-01  8.00000000E-01  8.50000000E-01  8.50000000E-01
  8.50000000E-01  8.00000000E-01  8.50000000E-01  8.50000000E-01  8.50000000E-01
  8.00000000E-01  8.50000000E-01  8.50000000E-01  8.50000000E-01  8.00000000E-01
  8.50000000E-01  8.50000000E-01  8.50000000E-01  8.00000000E-01  8.50000000E-01
  8.50000000E-01  8.50000000E-01  8.00000000E-01  8.50000000E-01  8.50000000E-01
  8.50000000E-01  8.00000000E-01  8.50000000E-01  8.50000000E-01  8.50000000E-01
  8.00000000E-01  8.50000000E-01  8.50000000E-01  8.50000000E-01  8.00000000E-01
  8.50000000E-01  8.50000000E-01  8.50000000E-01  8.00000000E-01  8.50000000E-01
  8.50000000E-01  8.50000000E-01  8.00000000E-01  8.50000000E-01  8.50000000E-01
  8.50000000E-01  8.00000000E-01  8.50000000E-01  8.50000000E-01  8.50000000E-01
  8.00000000E-01  8.50000000E-01  8.50000000E-01  8.50000000E-01  8.00000000E-01
  8.50000000E-01  8.50000000E-01  8.50000000E-01  8.00000000E-01  8.50000000E-01
  8.50000000E-01  8.50000000E-01  8.00000000E-01  8.50000000E-01  8.50000000E-01
  8.50000000E-01  8.00000000E-01  8.50000000E-01  8.50000000E-01  8.50000000E-01
  8.00000000E-01  8.50000000E-01  8.50000000E-01  8.50000000E-01  8.00000000E-01
  8.50000000E-01  8.50000000E-01  8.50000000E-01  8.00000000E-01  8.50000000E-01
  8.50000000E-01  8.50000000E-01  8.00000000E-01  8.50000000E-01  8.50000000E-01
  8.50000000E-01  8.00000000E-01  8.50000000E-01  8.50000000E-01  8.50000000E-01
  8.00000000E-01  8.50000000E-01  8.50000000E-01  8.50000000E-01  8.00000000E-01
  8.50000000E-01  8.50000000E-01  8.50000000E-01  8.00000000E-01  8.50000000E-01
  8.50000000E-01  8.50000000E-01  8.00000000E-01  8.50000000E-01  8.50000000E-01
  8.50000000E-01  8.00000000E-01  8.50000000E-01  8.50000000E-01  8.50000000E-01
  8.00000000E-01  8.50000000E-01  8.50000000E-01  8.50000000E-01  8.00000000E-01
  8.50000000E-01  8.50000000E-01  8.50000000E-01  8.00000000E-01  8.50000000E-01
  8.50000000E-01  8.50000000E-01  8.00000000E-01  8.50000000E-01  8.50000000E-01
  8.50000000E-01  8.00000000E-01  8.50000000E-01  8.50000000E-01  8.50000000E-01
  8.00000000E-01  8.50000000E-01  8.50000000E-01  8.50000000E-01  8.00000000E-01
  8.50000000E-01  8.50000000E-01  8.50000000E-01  8.00000000E-01  8.50000000E-01
  8.50000000E-01  8.50000000E-01  8.00000000E-01  8.50000000E-01  8.50000000E-01
  8.50000000E-01  8.00000000E-01  8.50000000E-01  8.50000000E-01  8.50000000E-01
  8.00000000E-01  8.50000000E-01  8.50000000E-01  8.50000000E-01  8.00000000E-01
  8.50000000E-01  8.50000000E-01  8.50000000E-01  8.00000000E-01  8.50000000E-01
  8.50000000E-01  8.50000000E-01  8.00000000E-01  8.50000000E-01  8.50000000E-01
  8.50000000E-01  8.00000000E-01  8.50000000E-01  8.50000000E-01  8.50000000E-01
  8.00000000E-01  8.50000000E-01  8.50000000E-01  8.50000000E-01  8.00000000E-01
  8.50000000E-01  8.50000000E-01  8.50000000E-01  8.00000000E-01  8.50000000E-01
  8.50000000E-01  8.50000000E-01  8.00000000E-01  8.50000000E-01  8.50000000E-01
  8.50000000E-01  8.00000000E-01  8.50000000E-01  8.50000000E-01  8.50000000E-01
  8.00000000E-01  8.50000000E-01  8.50000000E-01  8.50000000E-01  8.00000000E-01
  8.50000000E-01  8.50000000E-01  8.50000000E-01  8.00000000E-01  8.50000000E-01
  8.50000000E-01  8.50000000E-01  8.00000000E-01  8.50000000E-01  8.50000000E-01
  8.50000000E-01  8.00000000E-01  8.50000000E-01  8.50000000E-01  8.50000000E-01
  8.00000000E-01  8.50000000E-01  8.50000000E-01  8.50000000E-01  8.00000000E-01
  8.50000000E-01  8.50000000E-01  8.50000000E-01  8.00000000E-01  8.50000000E-01
  8.50000000E-01  8.50000000E-01  8.00000000E-01  8.50000000E-01  8.50000000E-01
  8.50000000E-01  8.00000000E-01  8.50000000E-01  8.50000000E-01  8.50000000E-01
  8.00000000E-01  8.50000000E-01  8.50000000E-01  8.50000000E-01  8.00000000E-01
  8.50000000E-01  8.50000000E-01  8.50000000E-01  8.00000000E-01  8.50000000E-01
  8.50000000E-01  8.50000000E-01  8.00000000E-01  8.50000000E-01  8.50000000E-01
  8.50000000E-01  8.00000000E-01  8.50000000E-01  8.50000000E-01  8.50000000E-01
  8.00000000E-01  8.50000000E-01  8.50000000E-01  8.50000000E-01  8.00000000E-01
  8.50000000E-01  8.50000000E-01  8.50000000E-01  8.00000000E-01  8.50000000E-01
  8.50000000E-01  8.50000000E-01  8.00000000E-01  8.50000000E-01  8.50000000E-01
  8.50000000E-01  8.00000000E-01  8.50000000E-01  8.50000000E-01  8.50000000E-01
  8.00000000E-01  8.50000000E-01  8.50000000E-01  8.50000000E-01  8.00000000E-01
  8.50000000E-01  8.50000000E-01  8.50000000E-01  8.00000000E-01  8.50000000E-01
  8.50000000E-01  8.50000000E-01  8.00000000E-01  8.50000000E-01  8.50000000E-01
  8.50000000E-01  8.00000000E-01  8.50000000E-01  8.50000000E-01  8.50000000E-01
  8.00000000E-01  8.50000000E-01  8.50000000E-01  8.50000000E-01  8.00000000E-01
  8.50000000E-01  8.50000000E-01  8.50000000E-01  8.00000000E-01  8.50000000E-01
  8.50000000E-01  8.50000000E-01  8.00000000E-01  8.50000000E-01  8.50000000E-01
  8.50000000E-01  8.00000000E-01  8.50000000E-01  8.50000000E-01  8.50000000E-01
  8.00000000E-01  8.50000000E-01  8.50000000E-01  8.50000000E-01  8.00000000E-01
  8.50000000E-01  8.50000000E-01  8.50000000E-01  8.00000000E-01  8.50000000E-01
  8.50000000E-01  8.50000000E-01  8.00000000E-01  8.50000000E-01  8.50000000E-01
  8.50000000E-01  8.00000000E-01  8.50000000E-01  8.50000000E-01  8.50000000E-01
  8.00000000E-01  8.50000000E-01  8.50000000E-01  8.50000000E-01  8.00000000E-01
  8.50000000E-01  8.50000000E-01  8.50000000E-01  8.00000000E-01  8.50000000E-01
  8.50000000E-01  8.50000000E-01  8.00000000E-01  8.50000000E-01  8.50000000E-01
  8.50000000E-01  8.00000000E-01  8.50000000E-01  8.50000000E-01  8.50000000E-01
  8.00000000E-01  8.50000000E-01  8.50000000E-01  8.50000000E-01  8.00000000E-01
  8.50000000E-01  8.50000000E-01  8.50000000E-01  8.00000000E-01  8.50000000E-01
  8.50000000E-01  8.50000000E-01  8.00000000E-01  8.50000000E-01  8.50000000E-01
  8.50000000E-01  8.00000000E-01  8.50000000E-01  8.50000000E-01  8.50000000E-01
  8.00000000E-01  8.50000000E-01  8.50000000E-01  8.50000000E-01  8.00000000E-01
  8.50000000E-01  8.50000000E-01  8.50000000E-01  8.00000000E-01  8.50000000E-01
  8.50000000E-01  8.50000000E-01  8.00000000E-01  8.50000000E-01  8.50000000E-01
  8.50000000E-01  8.00000000E-01  8.50000000E-01  8.50000000E-01  8.50000000E-01
  8.00000000E-01  8.50000000E-01  8.50000000E-01  8.50000000E-01  8.00000000E-01
  8.50000000E-01  8.50000000E-01  8.50000000E-01  8.00000000E-01  8.50000000E-01
  8.50000000E-01  8.50000000E-01  8.00000000E-01  8.50000000E-01  8.50000000E-01
  8.50000000E-01  8.00000000E-01  8.50000000E-01  8.50000000E-01  8.50000000E-01
  8.00000000E-01  8.50000000E-01  8.50000000E-01  8.50000000E-01  8.00000000E-01
  8.50000000E-01  8.50000000E-01  8.50000000E-01  8.00000000E-01  8.50000000E-01
  8.50000000E-01  8.50000000E-01  8.00000000E-01  8.50000000E-01  8.50000000E-01
  8.50000000E-01  8.00000000E-01  8.50000000E-01  8.50000000E-01  8.50000000E-01
  8.00000000E-01  8.50000000E-01  8.50000000E-01  8.50000000E-01  8.00000000E-01
  8.50000000E-01  8.50000000E-01  8.50000000E-01  8.00000000E-01  8.50000000E-01
  8.50000000E-01  8.50000000E-01  8.00000000E-01  8.50000000E-01  8.50000000E-01
  8.50000000E-01  8.00000000E-01  8.50000000E-01  8.50000000E-01  8.50000000E-01
  8.00000000E-01  8.50000000E-01  8.50000000E-01  8.50000000E-01  8.00000000E-01
  8.50000000E-01  8.50000000E-01  8.50000000E-01  8.00000000E-01  8.50000000E-01
  8.50000000E-01  8.50000000E-01  8.00000000E-01  8.50000000E-01  8.50000000E-01
  8.50000000E-01  8.00000000E-01  8.50000000E-01  8.50000000E-01  8.50000000E-01
  8.00000000E-01  8.50000000E-01  8.50000000E-01  8.50000000E-01  8.00000000E-01
  8.50000000E-01  8.50000000E-01  8.50000000E-01  8.00000000E-01  8.50000000E-01
  8.50000000E-01  8.50000000E-01  8.00000000E-01  8.50000000E-01  8.50000000E-01
  8.50000000E-01  8.00000000E-01  8.50000000E-01  8.50000000E-01  8.50000000E-01
  8.00000000E-01  8.50000000E-01  8.50000000E-01  8.50000000E-01  8.00000000E-01
  8.50000000E-01  8.50000000E-01  8.50000000E-01  8.00000000E-01  8.50000000E-01
  8.50000000E-01  8.50000000E-01  8.00000000E-01  8.50000000E-01  8.50000000E-01
  8.50000000E-01  8.00000000E-01  8.50000000E-01  8.50000000E-01  8.50000000E-01
  8.00000000E-01  8.50000000E-01  8.50000000E-01  8.50000000E-01  8.00000000E-01
  8.50000000E-01  8.50000000E-01  8.50000000E-01  8.00000000E-01  8.50000000E-01
  8.50000000E-01  8.50000000E-01  8.00000000E-01  8.50000000E-01  8.50000000E-01
  8.50000000E-01  8.00000000E-01  8.50000000E-01  8.50000000E-01  8.50000000E-01
  8.00000000E-01  8.50000000E-01  8.50000000E-01  8.50000000E-01  8.00000000E-01
  8.50000000E-01  8.50000000E-01  8.50000000E-01  8.00000000E-01  8.50000000E-01
  8.50000000E-01  8.50000000E-01  8.00000000E-01  8.50000000E-01  8.50000000E-01
  8.50000000E-01  8.00000000E-01  8.50000000E-01  8.50000000E-01  8.50000000E-01
  8.00000000E-01  8.50000000E-01  8.50000000E-01  8.50000000E-01  8.00000000E-01
  8.50000000E-01  8.50000000E-01  8.50000000E-01  8.00000000E-01  8.50000000E-01
  8.50000000E-01  8.50000000E-01  8.00000000E-01  8.50000000E-01  8.50000000E-01
  8.50000000E-01  8.00000000E-01  8.50000000E-01  8.50000000E-01  8.50000000E-01
  8.00000000E-01  8.50000000E-01  8.50000000E-01  8.50000000E-01  8.00000000E-01
  8.50000000E-01  8.50000000E-01  8.50000000E-01  8.00000000E-01  8.50000000E-01
  8.50000000E-01  8.50000000E-01  8.00000000E-01  8.50000000E-01  8.50000000E-01
  8.50000000E-01  8.00000000E-01  8.50000000E-01  8.50000000E-01  8.50000000E-01
  8.00000000E-01  8.50000000E-01  8.50000000E-01  8.50000000E-01  8.00000000E-01
  8.50000000E-01  8.50000000E-01  8.50000000E-01  8.00000000E-01  8.50000000E-01
  8.50000000E-01  8.50000000E-01  8.00000000E-01  8.50000000E-01  8.50000000E-01
  8.50000000E-01  8.00000000E-01  8.50000000E-01  8.50000000E-01  8.50000000E-01
  8.00000000E-01  8.50000000E-01  8.50000000E-01  8.50000000E-01  8.00000000E-01
  8.50000000E-01  8.50000000E-01  8.50000000E-01  8.00000000E-01  8.50000000E-01
  8.50000000E-01  8.50000000E-01  8.00000000E-01  8.50000000E-01  8.50000000E-01
  8.50000000E-01  8.00000000E-01  8.50000000E-01  8.50000000E-01  8.50000000E-01
  8.00000000E-01  8.50000000E-01  8.50000000E-01  8.50000000E-01  8.00000000E-01
  8.50000000E-01  8.50000000E-01  8.50000000E-01  8.00000000E-01  8.50000000E-01
  8.50000000E-01  8.50000000E-01  8.00000000E-01  8.50000000E-01  8.50000000E-01
  8.50000000E-01  8.00000000E-01  8.50000000E-01  8.50000000E-01  8.50000000E-01
  8.00000000E-01  8.50000000E-01  8.50000000E-01  8.50000000E-01  8.00000000E-01
  8.50000000E-01  8.50000000E-01  8.50000000E-01  8.00000000E-01  8.50000000E-01
  8.50000000E-01  8.50000000E-01  8.00000000E-01  8.50000000E-01  8.50000000E-01
  8.50000000E-01  8.00000000E-01  8.50000000E-01  8.50000000E-01  8.50000000E-01
  8.00000000E-01  8.50000000E-01  8.50000000E-01  8.50000000E-01  8.00000000E-01
  8.50000000E-01  8.50000000E-01  8.50000000E-01  8.00000000E-01  8.50000000E-01
  8.50000000E-01  8.50000000E-01  8.00000000E-01  8.50000000E-01  8.50000000E-01
  8.50000000E-01  8.00000000E-01  8.50000000E-01  8.50000000E-01  8.50000000E-01
  8.00000000E-01  8.50000000E-01  8.50000000E-01  8.50000000E-01  8.00000000E-01
  8.50000000E-01  8.50000000E-01  8.50000000E-01  8.00000000E-01  8.50000000E-01
  8.50000000E-01  8.50000000E-01  8.00000000E-01  8.50000000E-01  8.50000000E-01
  8.50000000E-01  8.00000000E-01  8.50000000E-01  8.50000000E-01  8.50000000E-01
  8.00000000E-01  8.50000000E-01  8.50000000E-01  8.50000000E-01  8.00000000E-01
  8.50000000E-01  8.50000000E-01  8.50000000E-01  8.00000000E-01  8.50000000E-01
  8.50000000E-01  8.50000000E-01  8.00000000E-01  8.50000000E-01  8.50000000E-01
  8.50000000E-01  8.00000000E-01  8.50000000E-01  8.50000000E-01  8.50000000E-01
  8.00000000E-01  8.50000000E-01  8.50000000E-01  8.50000000E-01  8.00000000E-01
  8.50000000E-01  8.50000000E-01  8.50000000E-01  8.00000000E-01  8.50000000E-01
  8.50000000E-01  8.50000000E-01  8.00000000E-01  8.50000000E-01  8.50000000E-01
  8.50000000E-01  8.00000000E-01  8.50000000E-01  8.50000000E-01  8.50000000E-01
  8.00000000E-01  8.50000000E-01  8.50000000E-01  8.50000000E-01  8.00000000E-01
  8.50000000E-01  8.50000000E-01  8.50000000E-01  8.00000000E-01  8.50000000E-01
  8.50000000E-01  8.50000000E-01  8.00000000E-01  8.50000000E-01  8.50000000E-01
  8.50000000E-01  8.00000000E-01  8.50000000E-01  8.50000000E-01  8.50000000E-01
  8.00000000E-01  8.50000000E-01  8.50000000E-01  8.50000000E-01  8.00000000E-01
  8.50000000E-01  8.50000000E-01  8.50000000E-01  8.00000000E-01  8.50000000E-01
  8.50000000E-01  8.50000000E-01  8.00000000E-01  8.50000000E-01  8.50000000E-01
  8.50000000E-01  8.00000000E-01  8.50000000E-01  8.50000000E-01  8.50000000E-01
  8.00000000E-01  8.50000000E-01  8.50000000E-01  8.50000000E-01  8.00000000E-01
  8.50000000E-01  8.50000000E-01  8.50000000E-01  8.00000000E-01  8.50000000E-01
  8.50000000E-01  8.50000000E-01  8.00000000E-01  8.50000000E-01  8.50000000E-01
  8.50000000E-01  8.00000000E-01  8.50000000E-01  8.50000000E-01  8.50000000E-01
  8.00000000E-01  8.50000000E-01  8.50000000E-01  8.50000000E-01  8.00000000E-01
  8.50000000E-01  8.50000000E-01  8.50000000E-01  8.00000000E-01  8.50000000E-01
  8.50000000E-01  8.50000000E-01  8.00000000E-01  8.50000000E-01  8.50000000E-01
  8.50000000E-01  8.00000000E-01  8.50000000E-01  8.50000000E-01  8.50000000E-01
  8.00000000E-01  8.50000000E-01  8.50000000E-01  8.50000000E-01  8.00000000E-01
  8.50000000E-01  8.50000000E-01  8.50000000E-01  8.00000000E-01  8.50000000E-01
  8.50000000E-01  8.50000000E-01  8.00000000E-01  8.50000000E-01  8.50000000E-01
  8.50000000E-01  8.00000000E-01  8.50000000E-01  8.50000000E-01  8.50000000E-01
  8.00000000E-01  8.50000000E-01  8.50000000E-01  8.50000000E-01  8.00000000E-01
  8.50000000E-01  8.50000000E-01  8.50000000E-01  8.00000000E-01  8.50000000E-01
  8.50000000E-01  8.50000000E-01  8.00000000E-01  8.50000000E-01  8.50000000E-01
  8.50000000E-01  8.00000000E-01  8.50000000E-01  8.50000000E-01  8.50000000E-01
  8.00000000E-01  8.50000000E-01  8.50000000E-01  8.50000000E-01  8.00000000E-01
  8.50000000E-01  8.50000000E-01  8.50000000E-01  8.00000000E-01  8.50000000E-01
  8.50000000E-01  8.50000000E-01  8.00000000E-01  8.50000000E-01  8.50000000E-01
  8.50000000E-01  8.00000000E-01  8.50000000E-01  8.50000000E-01  8.50000000E-01
  8.00000000E-01  8.50000000E-01  8.50000000E-01  8.50000000E-01  8.00000000E-01
  8.50000000E-01  8.50000000E-01  8.50000000E-01  8.00000000E-01  8.50000000E-01
  8.50000000E-01  8.50000000E-01  8.00000000E-01  8.50000000E-01  8.50000000E-01
  8.50000000E-01  8.00000000E-01  8.50000000E-01  8.50000000E-01  8.50000000E-01
  8.00000000E-01  8.50000000E-01  8.50000000E-01  8.50000000E-01  8.00000000E-01
  8.50000000E-01  8.50000000E-01  8.50000000E-01  8.00000000E-01  8.50000000E-01
  8.50000000E-01  8.50000000E-01  8.00000000E-01  8.50000000E-01  8.50000000E-01
  8.50000000E-01  8.00000000E-01  8.50000000E-01  8.50000000E-01  8.50000000E-01
  8.00000000E-01  8.50000000E-01  8.50000000E-01  8.50000000E-01  8.00000000E-01
  8.50000000E-01  8.50000000E-01  8.50000000E-01  8.00000000E-01  8.50000000E-01
  8.50000000E-01  8.50000000E-01  8.00000000E-01  8.50000000E-01  8.50000000E-01
  8.50000000E-01  8.00000000E-01  8.50000000E-01  8.50000000E-01  8.50000000E-01
  8.00000000E-01  8.50000000E-01  8.50000000E-01  8.50000000E-01  8.00000000E-01
  8.50000000E-01  8.50000000E-01  8.50000000E-01  8.00000000E-01  8.50000000E-01
  8.50000000E-01  8.50000000E-01  8.00000000E-01  8.50000000E-01  8.50000000E-01
  8.50000000E-01  8.00000000E-01  8.50000000E-01  8.50000000E-01  8.50000000E-01
  8.00000000E-01  8.50000000E-01  8.50000000E-01  8.50000000E-01  8.00000000E-01
  8.50000000E-01  8.50000000E-01  8.50000000E-01  8.00000000E-01  8.50000000E-01
  8.50000000E-01  8.50000000E-01  8.00000000E-01  8.50000000E-01  8.50000000E-01
  8.50000000E-01  8.00000000E-01  8.50000000E-01  8.50000000E-01  8.50000000E-01
  8.00000000E-01  8.50000000E-01  8.50000000E-01  8.50000000E-01  8.00000000E-01
  8.50000000E-01  8.50000000E-01  8.50000000E-01  8.00000000E-01  8.50000000E-01
  8.50000000E-01  8.50000000E-01  8.00000000E-01  8.50000000E-01  8.50000000E-01
  8.50000000E-01  8.00000000E-01  8.50000000E-01  8.50000000E-01  8.50000000E-01
  8.00000000E-01  8.50000000E-01  8.50000000E-01  8.50000000E-01  8.00000000E-01
  8.50000000E-01  8.50000000E-01  8.50000000E-01  8.00000000E-01  8.50000000E-01
  8.50000000E-01  8.50000000E-01  8.00000000E-01  8.50000000E-01  8.50000000E-01
  8.50000000E-01  8.00000000E-01  8.50000000E-01  8.50000000E-01  8.50000000E-01
  8.00000000E-01  8.50000000E-01  8.50000000E-01  8.50000000E-01  8.00000000E-01
  8.50000000E-01  8.50000000E-01  8.50000000E-01  8.00000000E-01  8.50000000E-01
  8.50000000E-01  8.50000000E-01  8.00000000E-01  8.50000000E-01  8.50000000E-01
  8.50000000E-01  8.00000000E-01  8.50000000E-01  8.50000000E-01  8.50000000E-01
  8.00000000E-01  8.50000000E-01  8.50000000E-01  8.50000000E-01  8.00000000E-01
  8.50000000E-01  8.50000000E-01  8.50000000E-01  8.00000000E-01  8.50000000E-01
  8.50000000E-01  8.50000000E-01  8.00000000E-01  8.50000000E-01  8.50000000E-01
  8.50000000E-01  8.00000000E-01  8.50000000E-01  8.50000000E-01  8.50000000E-01
  8.00000000E-01  8.50000000E-01  8.50000000E-01  8.50000000E-01  8.00000000E-01
  8.50000000E-01  8.50000000E-01  8.50000000E-01  8.00000000E-01  8.50000000E-01
  8.50000000E-01  8.50000000E-01  8.00000000E-01  8.50000000E-01  8.50000000E-01
  8.50000000E-01  8.00000000E-01  8.50000000E-01  8.50000000E-01  8.50000000E-01
  8.00000000E-01  8.50000000E-01  8.50000000E-01  8.50000000E-01  8.00000000E-01
  8.50000000E-01  8.50000000E-01  8.50000000E-01  8.00000000E-01  8.50000000E-01
  8.50000000E-01  8.50000000E-01  8.00000000E-01  8.50000000E-01  8.50000000E-01
  8.50000000E-01  8.00000000E-01  8.50000000E-01  8.50000000E-01  8.50000000E-01
  8.00000000E-01  8.50000000E-01  8.50000000E-01  8.50000000E-01  8.00000000E-01
  8.50000000E-01  8.50000000E-01  8.50000000E-01  8.00000000E-01  8.50000000E-01
  8.50000000E-01  8.50000000E-01  8.00000000E-01  8.50000000E-01  8.50000000E-01
  8.50000000E-01  8.00000000E-01  8.50000000E-01  8.50000000E-01  8.50000000E-01
  8.00000000E-01  8.50000000E-01  8.50000000E-01  8.50000000E-01  8.00000000E-01
  8.50000000E-01  8.50000000E-01  8.50000000E-01  8.00000000E-01  8.50000000E-01
  8.50000000E-01  8.50000000E-01  8.00000000E-01  8.50000000E-01  8.50000000E-01
  8.50000000E-01  8.00000000E-01  8.50000000E-01  8.50000000E-01  8.50000000E-01
  8.00000000E-01  8.50000000E-01  8.50000000E-01  8.50000000E-01  8.00000000E-01
  8.50000000E-01  8.50000000E-01  8.50000000E-01  8.00000000E-01  8.50000000E-01
  8.50000000E-01  8.50000000E-01  8.00000000E-01  8.50000000E-01  8.50000000E-01
  8.50000000E-01  8.00000000E-01  8.50000000E-01  8.50000000E-01  8.50000000E-01
  8.00000000E-01  8.50000000E-01  8.50000000E-01  8.50000000E-01  8.00000000E-01
  8.50000000E-01  8.50000000E-01  8.50000000E-01  8.00000000E-01  8.50000000E-01
  8.50000000E-01  8.50000000E-01  8.00000000E-01  8.50000000E-01  8.50000000E-01
  8.50000000E-01  8.00000000E-01  8.50000000E-01  8.50000000E-01  8.50000000E-01
  8.00000000E-01  8.50000000E-01  8.50000000E-01  8.50000000E-01  8.00000000E-01
  8.50000000E-01  8.50000000E-01  8.50000000E-01  8.00000000E-01  8.50000000E-01
  8.50000000E-01  8.50000000E-01  8.00000000E-01  8.50000000E-01  8.50000000E-01
  8.50000000E-01  8.00000000E-01  8.50000000E-01  8.50000000E-01  8.50000000E-01
  8.00000000E-01  8.50000000E-01  8.50000000E-01  8.50000000E-01  8.00000000E-01
  8.50000000E-01  8.50000000E-01  8.50000000E-01  8.00000000E-01  8.50000000E-01
  8.50000000E-01  8.50000000E-01  8.00000000E-01  8.50000000E-01  8.50000000E-01
  8.50000000E-01  8.00000000E-01  8.50000000E-01  8.50000000E-01  8.50000000E-01
  8.00000000E-01  8.50000000E-01  8.50000000E-01  8.50000000E-01  8.00000000E-01
  8.50000000E-01  8.50000000E-01  8.50000000E-01  8.00000000E-01  8.50000000E-01
  8.50000000E-01  8.50000000E-01  8.00000000E-01  8.50000000E-01  8.50000000E-01
  8.50000000E-01  8.00000000E-01  8.50000000E-01  8.50000000E-01  8.50000000E-01
  8.00000000E-01  8.50000000E-01  8.50000000E-01  8.50000000E-01  8.00000000E-01
  8.50000000E-01  8.50000000E-01  8.50000000E-01  8.00000000E-01  8.50000000E-01
  8.50000000E-01  8.50000000E-01  8.00000000E-01  8.50000000E-01  8.50000000E-01
  8.50000000E-01  8.00000000E-01  8.50000000E-01  8.50000000E-01  8.50000000E-01
  8.00000000E-01  8.50000000E-01  8.50000000E-01  8.50000000E-01  8.00000000E-01
  8.50000000E-01  8.50000000E-01  8.50000000E-01  8.00000000E-01  8.50000000E-01
  8.50000000E-01  8.50000000E-01  8.00000000E-01  8.50000000E-01  8.50000000E-01
  8.50000000E-01  8.00000000E-01  8.50000000E-01  8.50000000E-01  8.50000000E-01
  8.00000000E-01  8.50000000E-01  8.50000000E-01  8.50000000E-01  8.00000000E-01
  8.50000000E-01  8.50000000E-01  8.50000000E-01  8.00000000E-01  8.50000000E-01
  8.50000000E-01  8.50000000E-01  8.00000000E-01  8.50000000E-01  8.50000000E-01
  8.50000000E-01  8.00000000E-01  8.50000000E-01  8.50000000E-01  8.50000000E-01
  8.00000000E-01  8.50000000E-01  8.50000000E-01  8.50000000E-01  8.00000000E-01
  8.50000000E-01  8.50000000E-01  8.50000000E-01  8.00000000E-01  8.50000000E-01
  8.50000000E-01  8.50000000E-01  8.00000000E-01  8.50000000E-01  8.50000000E-01
  8.50000000E-01  8.00000000E-01  8.50000000E-01  8.50000000E-01  8.50000000E-01
  8.00000000E-01  8.50000000E-01  8.50000000E-01  8.50000000E-01  8.00000000E-01
  8.50000000E-01  8.50000000E-01  8.50000000E-01  8.00000000E-01  8.50000000E-01
  8.50000000E-01  8.50000000E-01  8.00000000E-01  8.50000000E-01  8.50000000E-01
  8.50000000E-01  8.00000000E-01  8.50000000E-01  8.50000000E-01  8.50000000E-01
  8.00000000E-01  8.50000000E-01  8.50000000E-01  8.50000000E-01  8.00000000E-01
  8.50000000E-01  8.50000000E-01  8.50000000E-01  8.00000000E-01  8.50000000E-01
  8.50000000E-01  8.50000000E-01  8.00000000E-01  8.50000000E-01  8.50000000E-01
  8.50000000E-01  8.00000000E-01  8.50000000E-01  8.50000000E-01  8.50000000E-01
  8.00000000E-01  8.50000000E-01  8.50000000E-01  8.50000000E-01  8.00000000E-01
  8.50000000E-01  8.50000000E-01  8.50000000E-01  8.00000000E-01  8.50000000E-01
  8.50000000E-01  8.50000000E-01  8.00000000E-01  8.50000000E-01  8.50000000E-01
  8.50000000E-01  8.00000000E-01  8.50000000E-01  8.50000000E-01  8.50000000E-01
  8.00000000E-01  8.50000000E-01  8.50000000E-01  8.50000000E-01  8.00000000E-01
  8.50000000E-01  8.50000000E-01  8.50000000E-01  8.00000000E-01  8.50000000E-01
  8.50000000E-01  8.50000000E-01  8.00000000E-01  8.50000000E-01  8.50000000E-01
  8.50000000E-01  8.00000000E-01  8.50000000E-01  8.50000000E-01  8.50000000E-01
  8.00000000E-01  8.50000000E-01  8.50000000E-01  8.50000000E-01  8.00000000E-01
  8.50000000E-01  8.50000000E-01  8.50000000E-01  8.00000000E-01  8.50000000E-01
  8.50000000E-01  8.50000000E-01  8.00000000E-01  8.50000000E-01  8.50000000E-01
  8.50000000E-01  8.00000000E-01  8.50000000E-01  8.50000000E-01  8.50000000E-01
  8.00000000E-01  8.50000000E-01  8.50000000E-01  8.50000000E-01  8.00000000E-01
  8.50000000E-01  8.50000000E-01  8.50000000E-01  8.00000000E-01  8.50000000E-01
  8.50000000E-01  8.50000000E-01  8.00000000E-01  8.50000000E-01  8.50000000E-01
  8.50000000E-01  8.00000000E-01  8.50000000E-01  8.50000000E-01  8.50000000E-01
  8.00000000E-01  8.50000000E-01  8.50000000E-01  8.50000000E-01  8.00000000E-01
  8.50000000E-01  8.50000000E-01  8.50000000E-01  8.00000000E-01  8.50000000E-01
  8.50000000E-01  8.50000000E-01  8.00000000E-01  8.50000000E-01  8.50000000E-01
  8.50000000E-01  8.00000000E-01  8.50000000E-01  8.50000000E-01  8.50000000E-01
  8.00000000E-01  8.50000000E-01  8.50000000E-01  8.50000000E-01  8.00000000E-01
  8.50000000E-01  8.50000000E-01  8.50000000E-01  8.00000000E-01  8.50000000E-01
  8.50000000E-01  8.50000000E-01  8.00000000E-01  8.50000000E-01  8.50000000E-01
  8.50000000E-01  8.00000000E-01  8.50000000E-01  8.50000000E-01  8.50000000E-01
  8.00000000E-01  8.50000000E-01  8.50000000E-01  8.50000000E-01  8.00000000E-01
  8.50000000E-01  8.50000000E-01  8.50000000E-01  8.00000000E-01  8.50000000E-01
  8.50000000E-01  8.50000000E-01  8.00000000E-01  8.50000000E-01  8.50000000E-01
  8.50000000E-01  8.00000000E-01  8.50000000E-01  8.50000000E-01  8.50000000E-01
  8.00000000E-01  8.50000000E-01  8.50000000E-01  8.50000000E-01  8.00000000E-01
  8.50000000E-01  8.50000000E-01  8.50000000E-01  8.00000000E-01  8.50000000E-01
  8.50000000E-01  8.50000000E-01  8.00000000E-01  8.50000000E-01  8.50000000E-01
  8.50000000E-01  8.00000000E-01  8.50000000E-01  8.50000000E-01  8.50000000E-01
  8.00000000E-01  8.50000000E-01  8.50000000E-01  8.50000000E-01  8.00000000E-01
  8.50000000E-01  8.50000000E-01  8.50000000E-01  8.00000000E-01  8.50000000E-01
  8.50000000E-01  8.50000000E-01  8.00000000E-01  8.50000000E-01  8.50000000E-01
  8.50000000E-01  8.00000000E-01  8.50000000E-01  8.50000000E-01  8.50000000E-01
  8.00000000E-01  8.50000000E-01  8.50000000E-01  8.50000000E-01  8.00000000E-01
  8.50000000E-01  8.50000000E-01  8.50000000E-01  8.00000000E-01  8.50000000E-01
  8.50000000E-01  8.50000000E-01  8.00000000E-01  8.50000000E-01  8.50000000E-01
  8.50000000E-01  8.00000000E-01  8.50000000E-01  8.50000000E-01  8.50000000E-01
  8.00000000E-01  8.50000000E-01  8.50000000E-01  8.50000000E-01  8.00000000E-01
  8.50000000E-01  8.50000000E-01  8.50000000E-01  8.00000000E-01  8.50000000E-01
  8.50000000E-01  8.50000000E-01  8.00000000E-01  8.50000000E-01  8.50000000E-01
  8.50000000E-01  8.00000000E-01  8.50000000E-01  8.50000000E-01  8.50000000E-01
  8.00000000E-01  8.50000000E-01  8.50000000E-01  8.50000000E-01  8.00000000E-01
  8.50000000E-01  8.50000000E-01  8.50000000E-01  8.00000000E-01  8.50000000E-01
  8.50000000E-01  8.50000000E-01  8.00000000E-01  8.50000000E-01  8.50000000E-01
  8.50000000E-01  8.00000000E-01  8.50000000E-01  8.50000000E-01  8.50000000E-01
  8.00000000E-01  8.50000000E-01  8.50000000E-01  8.50000000E-01  8.00000000E-01
  8.50000000E-01  8.50000000E-01  8.50000000E-01  8.00000000E-01  8.50000000E-01
  8.50000000E-01  8.50000000E-01  8.00000000E-01  8.50000000E-01  8.50000000E-01
  8.50000000E-01  8.00000000E-01  8.50000000E-01  8.50000000E-01  8.50000000E-01
  8.00000000E-01  8.50000000E-01  8.50000000E-01  8.50000000E-01  8.00000000E-01
  8.50000000E-01  8.50000000E-01  8.50000000E-01  8.00000000E-01  8.50000000E-01
  8.50000000E-01  8.50000000E-01  8.00000000E-01  8.50000000E-01  8.50000000E-01
  8.50000000E-01  8.00000000E-01  8.50000000E-01  8.50000000E-01  8.50000000E-01
  8.00000000E-01  8.50000000E-01  8.50000000E-01  8.50000000E-01  8.00000000E-01
  8.50000000E-01  8.50000000E-01  8.50000000E-01  8.00000000E-01  8.50000000E-01
  8.50000000E-01  8.50000000E-01  8.00000000E-01  8.50000000E-01  8.50000000E-01
  8.50000000E-01  8.00000000E-01  8.50000000E-01  8.50000000E-01  8.50000000E-01
  8.00000000E-01  8.50000000E-01  8.50000000E-01  8.50000000E-01  8.00000000E-01
  8.50000000E-01  8.50000000E-01  8.50000000E-01  8.00000000E-01  8.50000000E-01
  8.50000000E-01  8.50000000E-01  8.00000000E-01  8.50000000E-01  8.50000000E-01
  8.50000000E-01  8.00000000E-01  8.50000000E-01  8.50000000E-01  8.50000000E-01
  8.00000000E-01  8.50000000E-01  8.50000000E-01  8.50000000E-01  8.00000000E-01
  8.50000000E-01  8.50000000E-01  8.50000000E-01  8.00000000E-01  8.50000000E-01
  8.50000000E-01  8.50000000E-01  8.00000000E-01  8.50000000E-01  8.50000000E-01
  8.50000000E-01  8.00000000E-01  8.50000000E-01  8.50000000E-01  8.50000000E-01
  8.00000000E-01  8.50000000E-01  8.50000000E-01  8.50000000E-01  8.00000000E-01
  8.50000000E-01  8.50000000E-01  8.50000000E-01  8.00000000E-01  8.50000000E-01
  8.50000000E-01  8.50000000E-01  8.00000000E-01  8.50000000E-01  8.50000000E-01
  8.50000000E-01  8.00000000E-01  8.50000000E-01  8.50000000E-01  8.50000000E-01
  8.00000000E-01  8.50000000E-01  8.50000000E-01  8.50000000E-01  8.00000000E-01
  8.50000000E-01  8.50000000E-01  8.50000000E-01  8.00000000E-01  8.50000000E-01
  8.50000000E-01  8.50000000E-01  8.00000000E-01  8.50000000E-01  8.50000000E-01
  8.50000000E-01  8.00000000E-01  8.50000000E-01  8.50000000E-01  8.50000000E-01
  8.00000000E-01  8.50000000E-01  8.50000000E-01  8.50000000E-01  8.00000000E-01
  8.50000000E-01  8.50000000E-01  8.50000000E-01  8.00000000E-01  8.50000000E-01
  8.50000000E-01  8.50000000E-01  8.00000000E-01  8.50000000E-01  8.50000000E-01
  8.50000000E-01  8.00000000E-01  8.50000000E-01  8.50000000E-01  8.50000000E-01
  8.00000000E-01  8.50000000E-01  8.50000000E-01  8.50000000E-01  8.00000000E-01
  8.50000000E-01  8.50000000E-01  8.50000000E-01  8.00000000E-01  8.50000000E-01
  8.50000000E-01  8.50000000E-01  8.00000000E-01  8.50000000E-01  8.50000000E-01
  8.50000000E-01  8.00000000E-01  8.50000000E-01  8.50000000E-01  8.50000000E-01
  8.00000000E-01  8.50000000E-01  8.50000000E-01  8.50000000E-01  8.00000000E-01
  8.50000000E-01  8.50000000E-01  8.50000000E-01  8.00000000E-01  8.50000000E-01
  8.50000000E-01  8.50000000E-01  8.00000000E-01  8.50000000E-01  8.50000000E-01
  8.50000000E-01  8.00000000E-01  8.50000000E-01  8.50000000E-01  8.50000000E-01
  8.00000000E-01  8.50000000E-01  8.50000000E-01  8.50000000E-01  8.00000000E-01
  8.50000000E-01  8.50000000E-01  8.50000000E-01  8.00000000E-01  8.50000000E-01
  8.50000000E-01  8.50000000E-01  8.00000000E-01  8.50000000E-01  8.50000000E-01
  8.50000000E-01  8.00000000E-01  8.50000000E-01  8.50000000E-01  8.50000000E-01
  8.00000000E-01  8.50000000E-01  8.50000000E-01  8.50000000E-01  8.00000000E-01
  8.50000000E-01  8.50000000E-01  8.50000000E-01  8.00000000E-01  8.50000000E-01
  8.50000000E-01  8.50000000E-01  8.00000000E-01  8.50000000E-01  8.50000000E-01
  8.50000000E-01  8.00000000E-01  8.50000000E-01  8.50000000E-01  8.50000000E-01
  8.00000000E-01  8.50000000E-01  8.50000000E-01  8.50000000E-01  8.00000000E-01
  8.50000000E-01  8.50000000E-01  8.50000000E-01  8.00000000E-01  8.50000000E-01
  8.50000000E-01  8.50000000E-01  8.00000000E-01  8.50000000E-01  8.50000000E-01
  8.50000000E-01  8.00000000E-01  8.50000000E-01  8.50000000E-01  8.50000000E-01
  8.00000000E-01  8.50000000E-01  8.50000000E-01  8.50000000E-01  8.00000000E-01
  8.50000000E-01  8.50000000E-01  8.50000000E-01  8.00000000E-01  8.50000000E-01
  8.50000000E-01  8.50000000E-01  8.00000000E-01  8.50000000E-01  8.50000000E-01
  8.50000000E-01  8.00000000E-01  8.50000000E-01  8.50000000E-01  8.50000000E-01
  8.00000000E-01  8.50000000E-01  8.50000000E-01  8.50000000E-01  8.00000000E-01
  8.50000000E-01  8.50000000E-01  8.50000000E-01  8.00000000E-01  8.50000000E-01
  8.50000000E-01  8.50000000E-01  8.00000000E-01  8.50000000E-01  8.50000000E-01
  8.50000000E-01  8.00000000E-01  8.50000000E-01  8.50000000E-01  8.50000000E-01
  8.00000000E-01  8.50000000E-01  8.50000000E-01  8.50000000E-01  8.00000000E-01
  8.50000000E-01  8.50000000E-01  8.50000000E-01  8.00000000E-01  8.50000000E-01
  8.50000000E-01  8.50000000E-01  8.00000000E-01  8.50000000E-01  8.50000000E-01
  8.50000000E-01  8.00000000E-01  8.50000000E-01  8.50000000E-01  8.50000000E-01
  8.00000000E-01  8.50000000E-01  8.50000000E-01  8.50000000E-01  8.00000000E-01
  8.50000000E-01  8.50000000E-01  8.50000000E-01  8.00000000E-01  8.50000000E-01
  8.50000000E-01  8.50000000E-01  8.00000000E-01  8.50000000E-01  8.50000000E-01
  8.50000000E-01  8.00000000E-01  8.50000000E-01  8.50000000E-01  8.50000000E-01
  8.00000000E-01  8.50000000E-01  8.50000000E-01  8.50000000E-01  8.00000000E-01
  8.50000000E-01  8.50000000E-01  8.50000000E-01  8.00000000E-01  8.50000000E-01
  8.50000000E-01  8.50000000E-01  8.00000000E-01  8.50000000E-01  8.50000000E-01
  8.50000000E-01  8.00000000E-01  8.50000000E-01  8.50000000E-01  8.50000000E-01
  8.00000000E-01  8.50000000E-01  8.50000000E-01  8.50000000E-01  8.00000000E-01
  8.50000000E-01  8.50000000E-01  8.50000000E-01  8.00000000E-01  8.50000000E-01
  8.50000000E-01  8.50000000E-01  8.00000000E-01  8.50000000E-01  8.50000000E-01
  8.50000000E-01  8.00000000E-01  8.50000000E-01  8.50000000E-01  8.50000000E-01
  8.00000000E-01  8.50000000E-01  8.50000000E-01  8.50000000E-01  8.00000000E-01
  8.50000000E-01  8.50000000E-01  8.50000000E-01  8.00000000E-01  8.50000000E-01
  8.50000000E-01  8.50000000E-01  8.00000000E-01  8.50000000E-01  8.50000000E-01
  8.50000000E-01  8.00000000E-01  8.50000000E-01  8.50000000E-01  8.50000000E-01
  8.00000000E-01  8.50000000E-01  8.50000000E-01  8.50000000E-01  8.00000000E-01
  8.50000000E-01  8.50000000E-01  8.50000000E-01  8.00000000E-01  8.50000000E-01
  8.50000000E-01  8.50000000E-01  8.00000000E-01  8.50000000E-01  8.50000000E-01
  8.50000000E-01  8.00000000E-01  8.50000000E-01  8.50000000E-01  8.50000000E-01
  8.00000000E-01  8.50000000E-01  8.50000000E-01  8.50000000E-01  8.00000000E-01
  8.50000000E-01  8.50000000E-01  8.50000000E-01  8.00000000E-01  8.50000000E-01
  8.50000000E-01  8.50000000E-01  8.00000000E-01  8.50000000E-01  8.50000000E-01
  8.50000000E-01  8.00000000E-01  8.50000000E-01  8.50000000E-01  8.50000000E-01
  8.00000000E-01  8.50000000E-01  8.50000000E-01  8.50000000E-01  8.00000000E-01
  8.50000000E-01  8.50000000E-01  8.50000000E-01  8.00000000E-01  8.50000000E-01
  8.50000000E-01  8.50000000E-01  8.00000000E-01  8.50000000E-01  8.50000000E-01
  8.50000000E-01  8.00000000E-01  8.50000000E-01  8.50000000E-01  8.50000000E-01
  8.00000000E-01  8.50000000E-01  8.50000000E-01  8.50000000E-01  8.00000000E-01
  8.50000000E-01  8.50000000E-01  8.50000000E-01  8.00000000E-01  8.50000000E-01
  8.50000000E-01  8.50000000E-01  8.00000000E-01  8.50000000E-01  8.50000000E-01
  8.50000000E-01  8.00000000E-01  8.50000000E-01  8.50000000E-01  8.50000000E-01
  8.00000000E-01  8.50000000E-01  8.50000000E-01  8.50000000E-01  8.00000000E-01
  8.50000000E-01  8.50000000E-01  8.50000000E-01  8.00000000E-01  8.50000000E-01
  8.50000000E-01  8.50000000E-01  8.00000000E-01  8.50000000E-01  8.50000000E-01
  8.50000000E-01  8.00000000E-01  8.50000000E-01  8.50000000E-01  8.50000000E-01
  8.00000000E-01  8.50000000E-01  8.50000000E-01  8.50000000E-01  8.00000000E-01
  8.50000000E-01  8.50000000E-01  8.50000000E-01  8.00000000E-01  8.50000000E-01
  8.50000000E-01  8.50000000E-01  8.00000000E-01  8.50000000E-01  8.50000000E-01
  8.50000000E-01  8.00000000E-01  8.50000000E-01  8.50000000E-01  8.50000000E-01
  8.00000000E-01  8.50000000E-01  8.50000000E-01  8.50000000E-01  8.00000000E-01
  8.50000000E-01  8.50000000E-01  8.50000000E-01  8.00000000E-01  8.50000000E-01
  8.50000000E-01  8.50000000E-01  8.00000000E-01  8.50000000E-01  8.50000000E-01
  8.50000000E-01  8.00000000E-01  8.50000000E-01  8.50000000E-01  8.50000000E-01
  8.00000000E-01  8.50000000E-01  8.50000000E-01  8.50000000E-01  8.00000000E-01
  8.50000000E-01  8.50000000E-01  8.50000000E-01  8.00000000E-01  8.50000000E-01
  8.50000000E-01  8.50000000E-01  8.00000000E-01  8.50000000E-01  8.50000000E-01
  8.50000000E-01  8.00000000E-01  8.50000000E-01  8.50000000E-01  8.50000000E-01
  8.00000000E-01  8.50000000E-01  8.50000000E-01  8.50000000E-01  8.00000000E-01
  8.50000000E-01  8.50000000E-01  8.50000000E-01  8.00000000E-01  8.50000000E-01
  8.50000000E-01  8.50000000E-01  8.00000000E-01  8.50000000E-01  8.50000000E-01
  8.50000000E-01  8.00000000E-01  8.50000000E-01  8.50000000E-01  8.50000000E-01
  8.00000000E-01  8.50000000E-01  8.50000000E-01  8.50000000E-01  8.00000000E-01
  8.50000000E-01  8.50000000E-01  8.50000000E-01  8.00000000E-01  8.50000000E-01
  8.50000000E-01  8.50000000E-01  8.00000000E-01  8.50000000E-01  8.50000000E-01
  8.50000000E-01  8.00000000E-01  8.50000000E-01  8.50000000E-01  8.50000000E-01
  8.00000000E-01  8.50000000E-01  8.50000000E-01  8.50000000E-01  8.00000000E-01
  8.50000000E-01  8.50000000E-01  8.50000000E-01  8.00000000E-01  8.50000000E-01
  8.50000000E-01  8.50000000E-01  8.00000000E-01  8.50000000E-01  8.50000000E-01
  8.50000000E-01  8.00000000E-01  8.50000000E-01  8.50000000E-01  8.50000000E-01
  8.00000000E-01  8.50000000E-01  8.50000000E-01  8.50000000E-01  8.00000000E-01
  8.50000000E-01  8.50000000E-01  8.50000000E-01  8.00000000E-01  8.50000000E-01
  8.50000000E-01  8.50000000E-01  8.00000000E-01  8.50000000E-01  8.50000000E-01
  8.50000000E-01  8.00000000E-01  8.50000000E-01  8.50000000E-01  8.50000000E-01
  8.00000000E-01  8.50000000E-01  8.50000000E-01  8.50000000E-01  8.00000000E-01
  8.50000000E-01  8.50000000E-01  8.50000000E-01  8.00000000E-01  8.50000000E-01
  8.50000000E-01  8.50000000E-01  8.00000000E-01  8.50000000E-01  8.50000000E-01
  8.50000000E-01  8.00000000E-01  8.50000000E-01  8.50000000E-01  8.50000000E-01
  8.00000000E-01  8.50000000E-01  8.50000000E-01  8.50000000E-01  8.00000000E-01
  8.50000000E-01  8.50000000E-01  8.50000000E-01  8.00000000E-01  8.50000000E-01
  8.50000000E-01  8.50000000E-01  8.00000000E-01  8.50000000E-01  8.50000000E-01
  8.50000000E-01  8.00000000E-01  8.50000000E-01  8.50000000E-01  8.50000000E-01
  8.00000000E-01  8.50000000E-01  8.50000000E-01  8.50000000E-01  8.00000000E-01
  8.50000000E-01  8.50000000E-01  8.50000000E-01  8.00000000E-01  8.50000000E-01
  8.50000000E-01  8.50000000E-01  8.00000000E-01  8.50000000E-01  8.50000000E-01
  8.50000000E-01  8.00000000E-01  8.50000000E-01  8.50000000E-01  8.50000000E-01
  8.00000000E-01  8.50000000E-01  8.50000000E-01  8.50000000E-01  8.00000000E-01
  8.50000000E-01  8.50000000E-01  8.50000000E-01  8.00000000E-01  8.50000000E-01
  8.50000000E-01  8.50000000E-01  8.00000000E-01  8.50000000E-01  8.50000000E-01
  8.50000000E-01  8.00000000E-01  8.50000000E-01  8.50000000E-01  8.50000000E-01
  8.00000000E-01  8.50000000E-01  8.50000000E-01  8.50000000E-01  8.00000000E-01
  8.50000000E-01  8.50000000E-01  8.50000000E-01  8.00000000E-01  8.50000000E-01
  8.50000000E-01  8.50000000E-01  8.00000000E-01  8.50000000E-01  8.50000000E-01
  8.50000000E-01  8.00000000E-01  8.50000000E-01  8.50000000E-01  8.50000000E-01
  8.00000000E-01  8.50000000E-01  8.50000000E-01  8.50000000E-01  8.00000000E-01
  8.50000000E-01  8.50000000E-01  8.50000000E-01  8.00000000E-01  8.50000000E-01
  8.50000000E-01  8.50000000E-01  8.00000000E-01  8.50000000E-01  8.50000000E-01
  8.50000000E-01  8.00000000E-01  8.50000000E-01  8.50000000E-01  8.50000000E-01
  8.00000000E-01  8.50000000E-01  8.50000000E-01  8.50000000E-01  8.00000000E-01
  8.50000000E-01  8.50000000E-01  8.50000000E-01  8.00000000E-01  8.50000000E-01
  8.50000000E-01  8.50000000E-01  8.00000000E-01  8.50000000E-01  8.50000000E-01
  8.50000000E-01  8.00000000E-01  8.50000000E-01  8.50000000E-01  8.50000000E-01
  8.00000000E-01  8.50000000E-01  8.50000000E-01  8.50000000E-01  8.00000000E-01
  8.50000000E-01  8.50000000E-01  8.50000000E-01  8.00000000E-01  8.50000000E-01
  8.50000000E-01  8.50000000E-01  8.00000000E-01  8.50000000E-01  8.50000000E-01
  8.50000000E-01  8.00000000E-01  8.50000000E-01  8.50000000E-01  8.50000000E-01
  8.00000000E-01  8.50000000E-01  8.50000000E-01  8.50000000E-01  8.00000000E-01
  8.50000000E-01  8.50000000E-01  8.50000000E-01  8.00000000E-01  8.50000000E-01
  8.50000000E-01  8.50000000E-01  8.00000000E-01  8.50000000E-01  8.50000000E-01
  8.50000000E-01  8.00000000E-01  8.50000000E-01  8.50000000E-01  8.50000000E-01
  8.00000000E-01  8.50000000E-01  8.50000000E-01  8.50000000E-01  8.00000000E-01
  8.50000000E-01  8.50000000E-01  8.50000000E-01  8.00000000E-01  8.50000000E-01
  8.50000000E-01  8.50000000E-01  8.00000000E-01  8.50000000E-01  8.50000000E-01
  8.50000000E-01  8.00000000E-01  8.50000000E-01  8.50000000E-01  8.50000000E-01
  8.00000000E-01  8.50000000E-01  8.50000000E-01  8.50000000E-01  8.00000000E-01
  8.50000000E-01  8.50000000E-01  8.50000000E-01  8.00000000E-01  8.50000000E-01
  8.50000000E-01  8.50000000E-01  8.00000000E-01  8.50000000E-01  8.50000000E-01
  8.50000000E-01  8.00000000E-01  8.50000000E-01  8.50000000E-01  8.50000000E-01
  8.00000000E-01  8.50000000E-01  8.50000000E-01  8.50000000E-01  8.00000000E-01
  8.50000000E-01  8.50000000E-01  8.50000000E-01  8.00000000E-01  8.50000000E-01
  8.50000000E-01  8.50000000E-01  8.00000000E-01  8.50000000E-01  8.50000000E-01
  8.50000000E-01  8.00000000E-01  8.50000000E-01  8.50000000E-01  8.50000000E-01
  8.00000000E-01  8.50000000E-01  8.50000000E-01  8.50000000E-01  8.00000000E-01
  8.50000000E-01  8.50000000E-01  8.50000000E-01  8.00000000E-01  8.50000000E-01
  8.50000000E-01  8.50000000E-01  8.00000000E-01  8.50000000E-01  8.50000000E-01
  8.50000000E-01  8.00000000E-01  8.50000000E-01  8.50000000E-01  8.50000000E-01
  8.00000000E-01  8.50000000E-01  8.50000000E-01  8.50000000E-01  8.00000000E-01
  8.50000000E-01  8.50000000E-01  8.50000000E-01  8.00000000E-01  8.50000000E-01
  8.50000000E-01  8.50000000E-01  8.00000000E-01  8.50000000E-01  8.50000000E-01
  8.50000000E-01  8.00000000E-01  8.50000000E-01  8.50000000E-01  8.50000000E-01
  8.00000000E-01  8.50000000E-01  8.50000000E-01  8.50000000E-01  8.00000000E-01
  8.50000000E-01  8.50000000E-01  8.50000000E-01  8.00000000E-01  8.50000000E-01
  8.50000000E-01  8.50000000E-01  8.00000000E-01  8.50000000E-01  8.50000000E-01
  8.50000000E-01  8.00000000E-01  8.50000000E-01  8.50000000E-01  8.50000000E-01
  8.00000000E-01  8.50000000E-01  8.50000000E-01  8.50000000E-01  8.00000000E-01
  8.50000000E-01  8.50000000E-01  8.50000000E-01  8.00000000E-01  8.50000000E-01
  8.50000000E-01  8.50000000E-01  8.00000000E-01  8.50000000E-01  8.50000000E-01
  8.50000000E-01  8.00000000E-01  8.50000000E-01  8.50000000E-01  8.50000000E-01
  8.00000000E-01  8.50000000E-01  8.50000000E-01  8.50000000E-01  8.00000000E-01
  8.50000000E-01  8.50000000E-01  8.50000000E-01  8.00000000E-01  8.50000000E-01
  8.50000000E-01  8.50000000E-01  8.00000000E-01  8.50000000E-01  8.50000000E-01
  8.50000000E-01  8.00000000E-01  8.50000000E-01  8.50000000E-01  8.50000000E-01
  8.00000000E-01  8.50000000E-01  8.50000000E-01  8.50000000E-01  8.00000000E-01
  8.50000000E-01  8.50000000E-01  8.50000000E-01  8.00000000E-01  8.50000000E-01
  8.50000000E-01  8.50000000E-01  8.00000000E-01  8.50000000E-01  8.50000000E-01
  8.50000000E-01  8.00000000E-01  8.50000000E-01  8.50000000E-01  8.50000000E-01
  8.00000000E-01  8.50000000E-01  8.50000000E-01  8.50000000E-01  8.00000000E-01
  8.50000000E-01  8.50000000E-01  8.50000000E-01  8.00000000E-01  8.50000000E-01
  8.50000000E-01  8.50000000E-01  8.00000000E-01  8.50000000E-01  8.50000000E-01
  8.50000000E-01  8.00000000E-01  8.50000000E-01  8.50000000E-01  8.50000000E-01
  8.00000000E-01  8.50000000E-01  8.50000000E-01  8.50000000E-01  8.00000000E-01
  8.50000000E-01  8.50000000E-01  8.50000000E-01  8.00000000E-01  8.50000000E-01
  8.50000000E-01  8.50000000E-01  8.00000000E-01  8.50000000E-01  8.50000000E-01
  8.50000000E-01  8.00000000E-01  8.50000000E-01  8.50000000E-01  8.50000000E-01
  8.00000000E-01  8.50000000E-01  8.50000000E-01  8.50000000E-01  8.00000000E-01
  8.50000000E-01  8.50000000E-01  8.50000000E-01  8.00000000E-01  8.50000000E-01
  8.50000000E-01  8.50000000E-01  8.00000000E-01  8.50000000E-01  8.50000000E-01
  8.50000000E-01  8.00000000E-01  8.50000000E-01  8.50000000E-01  8.50000000E-01
  8.00000000E-01  8.50000000E-01  8.50000000E-01  8.50000000E-01  8.00000000E-01
  8.50000000E-01  8.50000000E-01  8.50000000E-01  8.00000000E-01  8.50000000E-01
  8.50000000E-01  8.50000000E-01  8.00000000E-01  8.50000000E-01  8.50000000E-01
  8.50000000E-01  8.00000000E-01  8.50000000E-01  8.50000000E-01  8.50000000E-01
  8.00000000E-01  8.50000000E-01  8.50000000E-01  8.50000000E-01  8.00000000E-01
  8.50000000E-01  8.50000000E-01  8.50000000E-01  8.00000000E-01  8.50000000E-01
  8.50000000E-01  8.50000000E-01  8.00000000E-01  8.50000000E-01  8.50000000E-01
  8.50000000E-01  8.00000000E-01  8.50000000E-01  8.50000000E-01  8.50000000E-01
  8.00000000E-01  8.50000000E-01  8.50000000E-01  8.50000000E-01  8.00000000E-01
  8.50000000E-01  8.50000000E-01  8.50000000E-01  8.00000000E-01  8.50000000E-01
  8.50000000E-01  8.50000000E-01  8.00000000E-01  8.50000000E-01  8.50000000E-01
  8.50000000E-01  8.00000000E-01  8.50000000E-01  8.50000000E-01  8.50000000E-01
  8.00000000E-01  8.50000000E-01  8.50000000E-01  8.50000000E-01  8.00000000E-01
  8.50000000E-01  8.50000000E-01  8.50000000E-01  8.00000000E-01  8.50000000E-01
  8.50000000E-01  8.50000000E-01  8.00000000E-01  8.50000000E-01  8.50000000E-01
  8.50000000E-01  8.00000000E-01  8.50000000E-01  8.50000000E-01  8.50000000E-01
  8.00000000E-01  8.50000000E-01  8.50000000E-01  8.50000000E-01  8.00000000E-01
  8.50000000E-01  8.50000000E-01  8.50000000E-01  8.00000000E-01  8.50000000E-01
  8.50000000E-01  8.50000000E-01  8.00000000E-01  8.50000000E-01  8.50000000E-01
  8.50000000E-01  8.00000000E-01  8.50000000E-01  8.50000000E-01  8.50000000E-01
  8.00000000E-01  8.50000000E-01  8.50000000E-01  8.50000000E-01  8.00000000E-01
  8.50000000E-01  8.50000000E-01  8.50000000E-01  8.00000000E-01  8.50000000E-01
  8.50000000E-01  8.50000000E-01  8.00000000E-01  8.50000000E-01  8.50000000E-01
  8.50000000E-01  8.00000000E-01  8.50000000E-01  8.50000000E-01  8.50000000E-01
  8.00000000E-01  8.50000000E-01  8.50000000E-01  8.50000000E-01  8.00000000E-01
  8.50000000E-01  8.50000000E-01  8.50000000E-01  8.00000000E-01  8.50000000E-01
  8.50000000E-01  8.50000000E-01  8.00000000E-01  8.50000000E-01  8.50000000E-01
  8.50000000E-01  8.00000000E-01  8.50000000E-01  8.50000000E-01  8.50000000E-01
  8.00000000E-01  8.50000000E-01  8.50000000E-01  8.50000000E-01  8.00000000E-01
  8.50000000E-01  8.50000000E-01  8.50000000E-01  8.00000000E-01  8.50000000E-01
  8.50000000E-01  8.50000000E-01  8.00000000E-01  8.50000000E-01  8.50000000E-01
  8.50000000E-01  8.00000000E-01  8.50000000E-01  8.50000000E-01  8.50000000E-01
  8.00000000E-01  8.50000000E-01  8.50000000E-01  8.50000000E-01  8.00000000E-01
  8.50000000E-01  8.50000000E-01  8.50000000E-01  8.00000000E-01  8.50000000E-01
  8.50000000E-01  8.50000000E-01  8.00000000E-01  8.50000000E-01  8.50000000E-01
  8.50000000E-01  8.00000000E-01  8.50000000E-01  8.50000000E-01  8.50000000E-01
  8.00000000E-01  8.50000000E-01  8.50000000E-01  8.50000000E-01  8.00000000E-01
  8.50000000E-01  8.50000000E-01  8.50000000E-01  8.00000000E-01  8.50000000E-01
  8.50000000E-01  8.50000000E-01  8.00000000E-01  8.50000000E-01  8.50000000E-01
  8.50000000E-01  8.00000000E-01  8.50000000E-01  8.50000000E-01  8.50000000E-01
  8.00000000E-01  8.50000000E-01  8.50000000E-01  8.50000000E-01  8.00000000E-01
  8.50000000E-01  8.50000000E-01  8.50000000E-01  8.00000000E-01  8.50000000E-01
  8.50000000E-01  8.50000000E-01  8.00000000E-01  8.50000000E-01  8.50000000E-01
  8.50000000E-01  8.00000000E-01  8.50000000E-01  8.50000000E-01  8.50000000E-01
  8.00000000E-01  8.50000000E-01  8.50000000E-01  8.50000000E-01  8.00000000E-01
  8.50000000E-01  8.50000000E-01  8.50000000E-01  8.00000000E-01  8.50000000E-01
  8.50000000E-01  8.50000000E-01  8.00000000E-01  8.50000000E-01  8.50000000E-01
  8.50000000E-01  8.00000000E-01  8.50000000E-01  8.50000000E-01  8.50000000E-01
  8.00000000E-01  8.50000000E-01  8.50000000E-01  8.50000000E-01  8.00000000E-01
  8.50000000E-01  8.50000000E-01  8.50000000E-01  8.00000000E-01  8.50000000E-01
  8.50000000E-01  8.50000000E-01  8.00000000E-01  8.50000000E-01  8.50000000E-01
  8.50000000E-01  8.00000000E-01  8.50000000E-01  8.50000000E-01  8.50000000E-01
  8.00000000E-01  8.50000000E-01  8.50000000E-01  8.50000000E-01  8.00000000E-01
  8.50000000E-01  8.50000000E-01  8.50000000E-01  8.00000000E-01  8.50000000E-01
  8.50000000E-01  8.50000000E-01  8.00000000E-01  8.50000000E-01  8.50000000E-01
  8.50000000E-01  8.00000000E-01  8.50000000E-01  8.50000000E-01  8.50000000E-01
  8.00000000E-01  8.50000000E-01  8.50000000E-01  8.50000000E-01  8.00000000E-01
  8.50000000E-01  8.50000000E-01  8.50000000E-01  8.00000000E-01  8.50000000E-01
  8.50000000E-01  8.50000000E-01  8.00000000E-01  8.50000000E-01  8.50000000E-01
  8.50000000E-01  8.00000000E-01  8.50000000E-01  8.50000000E-01  8.50000000E-01
  8.00000000E-01  8.50000000E-01  8.50000000E-01  8.50000000E-01  8.00000000E-01
  8.50000000E-01  8.50000000E-01  8.50000000E-01  8.00000000E-01  8.50000000E-01
  8.50000000E-01  8.50000000E-01  8.00000000E-01  8.50000000E-01  8.50000000E-01
  8.50000000E-01  8.00000000E-01  8.50000000E-01  8.50000000E-01  8.50000000E-01
  8.00000000E-01  8.50000000E-01  8.50000000E-01  8.50000000E-01  8.00000000E-01
  8.50000000E-01  8.50000000E-01  8.50000000E-01  8.00000000E-01  8.50000000E-01
  8.50000000E-01  8.50000000E-01  8.00000000E-01  8.50000000E-01  8.50000000E-01
  8.50000000E-01  8.00000000E-01  8.50000000E-01  8.50000000E-01  8.50000000E-01
  8.00000000E-01  8.50000000E-01  8.50000000E-01  8.50000000E-01  8.00000000E-01
  8.50000000E-01  8.50000000E-01  8.50000000E-01  8.00000000E-01  8.50000000E-01
  8.50000000E-01  8.50000000E-01  8.00000000E-01  8.50000000E-01  8.50000000E-01
  8.50000000E-01  8.00000000E-01  8.50000000E-01  8.50000000E-01  8.50000000E-01
  8.00000000E-01  8.50000000E-01  8.50000000E-01  8.50000000E-01  8.00000000E-01
  8.50000000E-01  8.50000000E-01  8.50000000E-01  8.00000000E-01  8.50000000E-01
  8.50000000E-01  8.50000000E-01  8.00000000E-01  8.50000000E-01  8.50000000E-01
  8.50000000E-01  8.00000000E-01  8.50000000E-01  8.50000000E-01  8.50000000E-01
  8.00000000E-01  8.50000000E-01  8.50000000E-01  8.50000000E-01  8.00000000E-01
  8.50000000E-01  8.50000000E-01  8.50000000E-01  8.00000000E-01  8.50000000E-01
  8.50000000E-01  8.50000000E-01  8.00000000E-01  8.50000000E-01  8.50000000E-01
  8.50000000E-01  8.00000000E-01  8.50000000E-01  8.50000000E-01  8.50000000E-01
  8.00000000E-01  8.50000000E-01  8.50000000E-01  8.50000000E-01  8.00000000E-01
  8.50000000E-01  8.50000000E-01  8.50000000E-01  8.00000000E-01  8.50000000E-01
  8.50000000E-01  8.50000000E-01  8.00000000E-01  8.50000000E-01  8.50000000E-01
  8.50000000E-01  8.00000000E-01  8.50000000E-01  8.50000000E-01  8.50000000E-01
  8.00000000E-01  8.50000000E-01  8.50000000E-01  8.50000000E-01  8.00000000E-01
  8.50000000E-01  8.50000000E-01  8.50000000E-01  8.00000000E-01  8.50000000E-01
  8.50000000E-01  8.50000000E-01  8.00000000E-01  8.50000000E-01  8.50000000E-01
  8.50000000E-01  8.00000000E-01  8.50000000E-01  8.50000000E-01  8.50000000E-01
  8.00000000E-01  8.50000000E-01  8.50000000E-01  8.50000000E-01  8.00000000E-01
  8.50000000E-01  8.50000000E-01  8.50000000E-01  8.00000000E-01  8.50000000E-01
  8.50000000E-01  8.50000000E-01  8.00000000E-01  8.50000000E-01  8.50000000E-01
  8.50000000E-01  8.00000000E-01  8.50000000E-01  8.50000000E-01  8.50000000E-01
  8.00000000E-01  8.50000000E-01  8.50000000E-01  8.50000000E-01  8.00000000E-01
  8.50000000E-01  8.50000000E-01  8.50000000E-01  8.00000000E-01  8.50000000E-01
  8.50000000E-01  8.50000000E-01  8.00000000E-01  8.50000000E-01  8.50000000E-01
  8.50000000E-01  8.00000000E-01  8.50000000E-01  8.50000000E-01  8.50000000E-01
  8.00000000E-01  8.50000000E-01  8.50000000E-01  8.50000000E-01  8.00000000E-01
  8.50000000E-01  8.50000000E-01  8.50000000E-01  8.00000000E-01  8.50000000E-01
  8.50000000E-01  8.50000000E-01  8.00000000E-01  8.50000000E-01  8.50000000E-01
  8.50000000E-01  8.00000000E-01  8.50000000E-01  8.50000000E-01  8.50000000E-01
  8.00000000E-01  8.50000000E-01  8.50000000E-01  8.50000000E-01  8.00000000E-01
  8.50000000E-01  8.50000000E-01  8.50000000E-01  8.00000000E-01  8.50000000E-01
  8.50000000E-01  8.50000000E-01  8.00000000E-01  8.50000000E-01  8.50000000E-01
  8.50000000E-01  8.00000000E-01  8.50000000E-01  8.50000000E-01  8.50000000E-01
  8.00000000E-01  8.50000000E-01  8.50000000E-01  8.50000000E-01  8.00000000E-01
  8.50000000E-01  8.50000000E-01  8.50000000E-01  8.00000000E-01  8.50000000E-01
  8.50000000E-01  8.50000000E-01  8.00000000E-01  8.50000000E-01  8.50000000E-01
  8.50000000E-01  8.00000000E-01  8.50000000E-01  8.50000000E-01  8.50000000E-01
  8.00000000E-01  8.50000000E-01  8.50000000E-01  8.50000000E-01  8.00000000E-01
  8.50000000E-01  8.50000000E-01  8.50000000E-01  8.00000000E-01  8.50000000E-01
  8.50000000E-01  8.50000000E-01  8.00000000E-01  8.50000000E-01  8.50000000E-01
  8.50000000E-01  8.00000000E-01  8.50000000E-01  8.50000000E-01  8.50000000E-01
  8.00000000E-01  8.50000000E-01  8.50000000E-01  8.50000000E-01  8.00000000E-01
  8.50000000E-01  8.50000000E-01  8.50000000E-01  8.00000000E-01  8.50000000E-01
  8.50000000E-01  8.50000000E-01  8.00000000E-01  8.50000000E-01  8.50000000E-01
  8.50000000E-01  8.00000000E-01  8.50000000E-01  8.50000000E-01  8.50000000E-01
  8.00000000E-01  8.50000000E-01  8.50000000E-01  8.50000000E-01  8.00000000E-01
  8.50000000E-01  8.50000000E-01  8.50000000E-01  8.00000000E-01  8.50000000E-01
  8.50000000E-01  8.50000000E-01  8.00000000E-01  8.50000000E-01  8.50000000E-01
  8.50000000E-01  8.00000000E-01  8.50000000E-01  8.50000000E-01  8.50000000E-01
  8.00000000E-01  8.50000000E-01  8.50000000E-01  8.50000000E-01  8.00000000E-01
  8.50000000E-01  8.50000000E-01  8.50000000E-01  8.00000000E-01  8.50000000E-01
  8.50000000E-01  8.50000000E-01  8.00000000E-01  8.50000000E-01  8.50000000E-01
  8.50000000E-01  8.00000000E-01  8.50000000E-01  8.50000000E-01  8.50000000E-01
  8.00000000E-01  8.50000000E-01  8.50000000E-01  8.50000000E-01  8.00000000E-01
  8.50000000E-01  8.50000000E-01  8.50000000E-01  8.00000000E-01  8.50000000E-01
  8.50000000E-01  8.50000000E-01  8.00000000E-01  8.50000000E-01  8.50000000E-01
  8.50000000E-01  8.00000000E-01  8.50000000E-01  8.50000000E-01  8.50000000E-01
  8.00000000E-01  8.50000000E-01  8.50000000E-01  8.50000000E-01  8.00000000E-01
  8.50000000E-01  8.50000000E-01  8.50000000E-01  8.00000000E-01  8.50000000E-01
  8.50000000E-01  8.50000000E-01  8.00000000E-01  8.50000000E-01  8.50000000E-01
  8.50000000E-01  8.00000000E-01  8.50000000E-01  8.50000000E-01  8.50000000E-01
  8.00000000E-01  8.50000000E-01  8.50000000E-01  8.50000000E-01  8.00000000E-01
  8.50000000E-01  8.50000000E-01  8.50000000E-01  8.00000000E-01  8.50000000E-01
  8.50000000E-01  8.50000000E-01  8.00000000E-01  8.50000000E-01  8.50000000E-01
  8.50000000E-01  8.00000000E-01  8.50000000E-01  8.50000000E-01  8.50000000E-01
  8.00000000E-01  8.50000000E-01  8.50000000E-01  8.50000000E-01  8.00000000E-01
  8.50000000E-01  8.50000000E-01  8.50000000E-01  8.00000000E-01  8.50000000E-01
  8.50000000E-01  8.50000000E-01  8.00000000E-01  8.50000000E-01  8.50000000E-01
  8.50000000E-01  8.00000000E-01  8.50000000E-01  8.50000000E-01  8.50000000E-01
  8.00000000E-01  8.50000000E-01  8.50000000E-01  8.50000000E-01  8.00000000E-01
  8.50000000E-01  8.50000000E-01  8.50000000E-01  8.00000000E-01  8.50000000E-01
  8.50000000E-01  8.50000000E-01  8.00000000E-01  8.50000000E-01  8.50000000E-01
  8.50000000E-01  8.00000000E-01  8.50000000E-01  8.50000000E-01  8.50000000E-01
  8.00000000E-01  8.50000000E-01  8.50000000E-01  8.50000000E-01  8.00000000E-01
  8.50000000E-01  8.50000000E-01  8.50000000E-01  8.00000000E-01  8.50000000E-01
  8.50000000E-01  8.50000000E-01  8.00000000E-01  8.50000000E-01  8.50000000E-01
  8.50000000E-01  8.00000000E-01  8.50000000E-01  8.50000000E-01  8.50000000E-01
  8.00000000E-01  8.50000000E-01  8.50000000E-01  8.50000000E-01  8.00000000E-01
  8.50000000E-01  8.50000000E-01  8.50000000E-01  8.00000000E-01  8.50000000E-01
  8.50000000E-01  8.50000000E-01  8.00000000E-01  8.50000000E-01  8.50000000E-01
  8.50000000E-01  8.00000000E-01  8.50000000E-01  8.50000000E-01  8.50000000E-01
  8.00000000E-01  8.50000000E-01  8.50000000E-01  8.50000000E-01  8.00000000E-01
  8.50000000E-01  8.50000000E-01  8.50000000E-01  8.00000000E-01  8.50000000E-01
  8.50000000E-01  8.50000000E-01  8.00000000E-01  8.50000000E-01  8.50000000E-01
  8.50000000E-01  8.00000000E-01  8.50000000E-01  8.50000000E-01  8.50000000E-01
  8.00000000E-01  8.50000000E-01  8.50000000E-01  8.50000000E-01  8.00000000E-01
  8.50000000E-01  8.50000000E-01  8.50000000E-01  8.00000000E-01  8.50000000E-01
  8.50000000E-01  8.50000000E-01  8.00000000E-01  8.50000000E-01  8.50000000E-01
  8.50000000E-01  8.00000000E-01  8.50000000E-01  8.50000000E-01  8.50000000E-01
  8.00000000E-01  8.50000000E-01  8.50000000E-01  8.50000000E-01  8.00000000E-01
  8.50000000E-01  8.50000000E-01  8.50000000E-01  8.00000000E-01  8.50000000E-01
  8.50000000E-01  8.50000000E-01  8.00000000E-01  8.50000000E-01  8.50000000E-01
  8.50000000E-01  8.00000000E-01  8.50000000E-01  8.50000000E-01  8.50000000E-01
  8.00000000E-01  8.50000000E-01  8.50000000E-01  8.50000000E-01  8.00000000E-01
  8.50000000E-01  8.50000000E-01  8.50000000E-01  8.00000000E-01  8.50000000E-01
  8.50000000E-01  8.50000000E-01  8.00000000E-01  8.50000000E-01  8.50000000E-01
  8.50000000E-01  8.00000000E-01  8.50000000E-01  8.50000000E-01  8.50000000E-01
  8.00000000E-01  8.50000000E-01  8.50000000E-01  8.50000000E-01  8.00000000E-01
  8.50000000E-01  8.50000000E-01  8.50000000E-01  8.00000000E-01  8.50000000E-01
  8.50000000E-01  8.50000000E-01  8.00000000E-01  8.50000000E-01  8.50000000E-01
  8.50000000E-01  8.00000000E-01  8.50000000E-01  8.50000000E-01  8.50000000E-01
  8.00000000E-01  8.50000000E-01  8.50000000E-01  8.50000000E-01  8.00000000E-01
  8.50000000E-01  8.50000000E-01  8.50000000E-01  8.00000000E-01  8.50000000E-01
  8.50000000E-01  8.50000000E-01  8.00000000E-01  8.50000000E-01  8.50000000E-01
  8.50000000E-01  8.00000000E-01  8.50000000E-01  8.50000000E-01  8.50000000E-01
  8.00000000E-01  8.50000000E-01  8.50000000E-01  8.50000000E-01  8.00000000E-01
  8.50000000E-01  8.50000000E-01  8.50000000E-01  8.00000000E-01  8.50000000E-01
  8.50000000E-01  8.50000000E-01  8.00000000E-01  8.50000000E-01  8.50000000E-01
  8.50000000E-01  8.00000000E-01  8.50000000E-01  8.50000000E-01  8.50000000E-01
  8.00000000E-01  8.50000000E-01  8.50000000E-01  8.50000000E-01  8.00000000E-01
  8.50000000E-01  8.50000000E-01  8.50000000E-01  8.00000000E-01  8.50000000E-01
  8.50000000E-01  8.50000000E-01  8.00000000E-01  8.50000000E-01  8.50000000E-01
  8.50000000E-01  8.00000000E-01  8.50000000E-01  8.50000000E-01  8.50000000E-01
  8.00000000E-01  8.50000000E-01  8.50000000E-01  8.50000000E-01  8.00000000E-01
  8.50000000E-01  8.50000000E-01  8.50000000E-01  8.00000000E-01  8.50000000E-01
  8.50000000E-01  8.50000000E-01  8.00000000E-01  8.50000000E-01  8.50000000E-01
  8.50000000E-01  8.00000000E-01  8.50000000E-01  8.50000000E-01  8.50000000E-01
  8.00000000E-01  8.50000000E-01  8.50000000E-01  8.50000000E-01  8.00000000E-01
  8.50000000E-01  8.50000000E-01  8.50000000E-01  8.00000000E-01  8.50000000E-01
  8.50000000E-01  8.50000000E-01  8.00000000E-01  8.50000000E-01  8.50000000E-01
  8.50000000E-01  8.00000000E-01  8.50000000E-01  8.50000000E-01  8.50000000E-01
  8.00000000E-01  8.50000000E-01  8.50000000E-01  8.50000000E-01  8.00000000E-01
  8.50000000E-01  8.50000000E-01  8.50000000E-01  8.00000000E-01  8.50000000E-01
  8.50000000E-01  8.50000000E-01  8.00000000E-01  8.50000000E-01  8.50000000E-01
  8.50000000E-01  8.00000000E-01  8.50000000E-01  8.50000000E-01  8.50000000E-01
  8.00000000E-01  8.50000000E-01  8.50000000E-01  8.50000000E-01  8.00000000E-01
  8.50000000E-01  8.50000000E-01  8.50000000E-01  8.00000000E-01  8.50000000E-01
  8.50000000E-01  8.50000000E-01  8.00000000E-01  8.50000000E-01  8.50000000E-01
  8.50000000E-01  8.00000000E-01  8.50000000E-01  8.50000000E-01  8.50000000E-01
  8.00000000E-01  8.50000000E-01  8.50000000E-01  8.50000000E-01  8.00000000E-01
  8.50000000E-01  8.50000000E-01  8.50000000E-01  8.00000000E-01  8.50000000E-01
  8.50000000E-01  8.50000000E-01  8.00000000E-01  8.50000000E-01  8.50000000E-01
  8.50000000E-01  8.00000000E-01  8.50000000E-01  8.50000000E-01  8.50000000E-01
  8.00000000E-01  8.50000000E-01  8.50000000E-01  8.50000000E-01  8.00000000E-01
  8.50000000E-01  8.50000000E-01  8.50000000E-01  8.00000000E-01  8.50000000E-01
  8.50000000E-01  8.50000000E-01  8.00000000E-01  8.50000000E-01  8.50000000E-01
  8.50000000E-01  8.00000000E-01  8.50000000E-01  8.50000000E-01  8.50000000E-01
  8.00000000E-01  8.50000000E-01  8.50000000E-01  8.50000000E-01  8.00000000E-01
  8.50000000E-01  8.50000000E-01  8.50000000E-01  8.00000000E-01  8.50000000E-01
  8.50000000E-01  8.50000000E-01  8.00000000E-01  8.50000000E-01  8.50000000E-01
  8.50000000E-01  8.00000000E-01  8.50000000E-01  8.50000000E-01  8.50000000E-01
  8.00000000E-01  8.50000000E-01  8.50000000E-01  8.50000000E-01  8.00000000E-01
  8.50000000E-01  8.50000000E-01  8.50000000E-01  8.00000000E-01  8.50000000E-01
  8.50000000E-01  8.50000000E-01  8.00000000E-01  8.50000000E-01  8.50000000E-01
  8.50000000E-01  8.00000000E-01  8.50000000E-01  8.50000000E-01  8.50000000E-01
  8.00000000E-01  8.50000000E-01  8.50000000E-01  8.50000000E-01  8.00000000E-01
  8.50000000E-01  8.50000000E-01  8.50000000E-01  8.00000000E-01  8.50000000E-01
  8.50000000E-01  8.50000000E-01  8.00000000E-01  8.50000000E-01  8.50000000E-01
  8.50000000E-01  8.00000000E-01  8.50000000E-01  8.50000000E-01  8.50000000E-01
  8.00000000E-01  8.50000000E-01  8.50000000E-01  8.50000000E-01  8.00000000E-01
  8.50000000E-01  8.50000000E-01  8.50000000E-01  8.00000000E-01  8.50000000E-01
  8.50000000E-01  8.50000000E-01  8.00000000E-01  8.50000000E-01  8.50000000E-01
  8.50000000E-01  8.00000000E-01  8.50000000E-01  8.50000000E-01  8.50000000E-01
  8.00000000E-01  8.50000000E-01  8.50000000E-01  8.50000000E-01  8.00000000E-01
  8.50000000E-01  8.50000000E-01  8.50000000E-01  8.00000000E-01  8.50000000E-01
  8.50000000E-01  8.50000000E-01  8.00000000E-01  8.50000000E-01  8.50000000E-01
  8.50000000E-01  8.00000000E-01  8.50000000E-01  8.50000000E-01  8.50000000E-01
  8.00000000E-01  8.50000000E-01  8.50000000E-01  8.50000000E-01  8.00000000E-01
  8.50000000E-01  8.50000000E-01  8.50000000E-01  8.00000000E-01  8.50000000E-01
  8.50000000E-01  8.50000000E-01  8.00000000E-01  8.50000000E-01  8.50000000E-01
  8.50000000E-01  8.00000000E-01  8.50000000E-01  8.50000000E-01  8.50000000E-01
  8.00000000E-01  8.50000000E-01  8.50000000E-01  8.50000000E-01  8.00000000E-01
  8.50000000E-01  8.50000000E-01  8.50000000E-01  8.00000000E-01  8.50000000E-01
  8.50000000E-01  8.50000000E-01  8.00000000E-01  8.50000000E-01  8.50000000E-01
  8.50000000E-01  8.00000000E-01  8.50000000E-01  8.50000000E-01  8.50000000E-01
  8.00000000E-01  8.50000000E-01  8.50000000E-01  8.50000000E-01  8.00000000E-01
  8.50000000E-01  8.50000000E-01  8.50000000E-01  8.00000000E-01  8.50000000E-01
  8.50000000E-01  8.50000000E-01  8.00000000E-01  8.50000000E-01  8.50000000E-01
  8.50000000E-01  8.00000000E-01  8.50000000E-01  8.50000000E-01  8.50000000E-01
  8.00000000E-01  8.50000000E-01  8.50000000E-01  8.50000000E-01  8.00000000E-01
  8.50000000E-01  8.50000000E-01  8.50000000E-01  8.00000000E-01  8.50000000E-01
  8.50000000E-01  8.50000000E-01  8.00000000E-01  8.50000000E-01  8.50000000E-01
  8.50000000E-01  8.00000000E-01  8.50000000E-01  8.50000000E-01  8.50000000E-01
  8.00000000E-01  8.50000000E-01  8.50000000E-01  8.50000000E-01  8.00000000E-01
  8.50000000E-01  8.50000000E-01  8.50000000E-01  8.00000000E-01  8.50000000E-01
  8.50000000E-01  8.50000000E-01  8.00000000E-01  8.50000000E-01  8.50000000E-01
  8.50000000E-01  8.00000000E-01  8.50000000E-01  8.50000000E-01  8.50000000E-01
  8.00000000E-01  8.50000000E-01  8.50000000E-01  8.50000000E-01  8.00000000E-01
  8.50000000E-01  8.50000000E-01  8.50000000E-01  8.00000000E-01  8.50000000E-01
  8.50000000E-01  8.50000000E-01  8.00000000E-01  8.50000000E-01  8.50000000E-01
  8.50000000E-01  8.00000000E-01  8.50000000E-01  8.50000000E-01  8.50000000E-01
  8.00000000E-01  8.50000000E-01  8.50000000E-01  8.50000000E-01  8.00000000E-01
  8.50000000E-01  8.50000000E-01  8.50000000E-01  8.00000000E-01  8.50000000E-01
  8.50000000E-01  8.50000000E-01  8.00000000E-01  8.50000000E-01  8.50000000E-01
  8.50000000E-01  8.00000000E-01  8.50000000E-01  8.50000000E-01  8.50000000E-01
  8.00000000E-01  8.50000000E-01  8.50000000E-01  8.50000000E-01  8.00000000E-01
  8.50000000E-01  8.50000000E-01  8.50000000E-01  8.00000000E-01  8.50000000E-01
  8.50000000E-01  8.50000000E-01  8.00000000E-01  8.50000000E-01  8.50000000E-01
  8.50000000E-01  8.00000000E-01  8.50000000E-01  8.50000000E-01  8.50000000E-01
  8.00000000E-01  8.50000000E-01  8.50000000E-01  8.50000000E-01  8.00000000E-01
  8.50000000E-01  8.50000000E-01  8.50000000E-01  8.00000000E-01  8.50000000E-01
  8.50000000E-01  8.50000000E-01  8.00000000E-01  8.50000000E-01  8.50000000E-01
  8.50000000E-01  8.00000000E-01  8.50000000E-01  8.50000000E-01  8.50000000E-01
  8.00000000E-01  8.50000000E-01  8.50000000E-01  8.50000000E-01  8.00000000E-01
  8.50000000E-01  8.50000000E-01  8.50000000E-01  8.00000000E-01  8.50000000E-01
  8.50000000E-01  8.50000000E-01  8.00000000E-01  8.50000000E-01  8.50000000E-01
  8.50000000E-01  8.00000000E-01  8.50000000E-01  8.50000000E-01  8.50000000E-01
  8.00000000E-01  8.50000000E-01  8.50000000E-01  8.50000000E-01  8.00000000E-01
  8.50000000E-01  8.50000000E-01  8.50000000E-01  8.00000000E-01  8.50000000E-01
  8.50000000E-01  8.50000000E-01  8.00000000E-01  8.50000000E-01  8.50000000E-01
  8.50000000E-01  8.00000000E-01  8.50000000E-01  8.50000000E-01  8.50000000E-01
  8.00000000E-01  8.50000000E-01  8.50000000E-01  8.50000000E-01  8.00000000E-01
  8.50000000E-01  8.50000000E-01  8.50000000E-01  8.00000000E-01  8.50000000E-01
  8.50000000E-01  8.50000000E-01  8.00000000E-01  8.50000000E-01  8.50000000E-01
  8.50000000E-01  8.00000000E-01  8.50000000E-01  8.50000000E-01  8.50000000E-01
  8.00000000E-01  8.50000000E-01  8.50000000E-01  8.50000000E-01  8.00000000E-01
  8.50000000E-01  8.50000000E-01  8.50000000E-01  8.00000000E-01  8.50000000E-01
  8.50000000E-01  8.50000000E-01  8.00000000E-01  8.50000000E-01  8.50000000E-01
  8.50000000E-01  8.00000000E-01  8.50000000E-01  8.50000000E-01  8.50000000E-01
  8.00000000E-01  8.50000000E-01  8.50000000E-01  8.50000000E-01  8.00000000E-01
  8.50000000E-01  8.50000000E-01  8.50000000E-01  8.00000000E-01  8.50000000E-01
  8.50000000E-01  8.50000000E-01  8.00000000E-01  8.50000000E-01  8.50000000E-01
  8.50000000E-01  8.00000000E-01  8.50000000E-01  8.50000000E-01  8.50000000E-01
  8.00000000E-01  8.50000000E-01  8.50000000E-01  8.50000000E-01  8.00000000E-01
  8.50000000E-01  8.50000000E-01  8.50000000E-01  8.00000000E-01  8.50000000E-01
  8.50000000E-01  8.50000000E-01  8.00000000E-01  8.50000000E-01  8.50000000E-01
  8.50000000E-01  8.00000000E-01  8.50000000E-01  8.50000000E-01  8.50000000E-01
  8.00000000E-01  8.50000000E-01  8.50000000E-01  8.50000000E-01  8.00000000E-01
  8.50000000E-01  8.50000000E-01  8.50000000E-01  8.00000000E-01  8.50000000E-01
  8.50000000E-01  8.50000000E-01  8.00000000E-01  8.50000000E-01  8.50000000E-01
  8.50000000E-01  8.00000000E-01  8.50000000E-01  8.50000000E-01  8.50000000E-01
  8.00000000E-01  8.50000000E-01  8.50000000E-01  8.50000000E-01  8.00000000E-01
  8.50000000E-01  8.50000000E-01  8.50000000E-01  8.00000000E-01  8.50000000E-01
  8.50000000E-01  8.50000000E-01  8.00000000E-01  8.50000000E-01  8.50000000E-01
  8.50000000E-01  8.00000000E-01  8.50000000E-01  8.50000000E-01  8.50000000E-01
  8.00000000E-01  8.50000000E-01  8.50000000E-01  8.50000000E-01  8.00000000E-01
  8.50000000E-01  8.50000000E-01  8.50000000E-01  8.00000000E-01  8.50000000E-01
  8.50000000E-01  8.50000000E-01  8.00000000E-01  8.50000000E-01  8.50000000E-01
  8.50000000E-01  8.00000000E-01  8.50000000E-01  8.50000000E-01  8.50000000E-01
  8.00000000E-01  8.50000000E-01  8.50000000E-01  8.50000000E-01  8.00000000E-01
  8.50000000E-01  8.50000000E-01  8.50000000E-01  8.00000000E-01  8.50000000E-01
  8.50000000E-01  8.50000000E-01  8.00000000E-01  8.50000000E-01  8.50000000E-01
  8.50000000E-01  8.00000000E-01  8.50000000E-01  8.50000000E-01  8.50000000E-01
  8.00000000E-01  8.50000000E-01  8.50000000E-01  8.50000000E-01  8.00000000E-01
  8.50000000E-01  8.50000000E-01  8.50000000E-01  8.00000000E-01  8.50000000E-01
  8.50000000E-01  8.50000000E-01  8.00000000E-01  8.50000000E-01  8.50000000E-01
  8.50000000E-01  8.00000000E-01  8.50000000E-01  8.50000000E-01  8.50000000E-01
  8.00000000E-01  8.50000000E-01  8.50000000E-01  8.50000000E-01  8.00000000E-01
  8.50000000E-01  8.50000000E-01  8.50000000E-01  8.00000000E-01  8.50000000E-01
  8.50000000E-01  8.50000000E-01  8.00000000E-01  8.50000000E-01  8.50000000E-01
  8.50000000E-01  8.00000000E-01  8.50000000E-01  8.50000000E-01  8.50000000E-01
  8.00000000E-01  8.50000000E-01  8.50000000E-01  8.50000000E-01  8.00000000E-01
  8.50000000E-01  8.50000000E-01  8.50000000E-01  8.00000000E-01  8.50000000E-01
  8.50000000E-01  8.50000000E-01  8.00000000E-01  8.50000000E-01  8.50000000E-01
  8.50000000E-01  8.00000000E-01  8.50000000E-01  8.50000000E-01  8.50000000E-01
  8.00000000E-01  8.50000000E-01  8.50000000E-01  8.50000000E-01  8.00000000E-01
  8.50000000E-01  8.50000000E-01  8.50000000E-01  8.00000000E-01  8.50000000E-01
  8.50000000E-01  8.50000000E-01  8.00000000E-01  8.50000000E-01  8.50000000E-01
  8.50000000E-01  8.00000000E-01  8.50000000E-01  8.50000000E-01  8.50000000E-01
  8.00000000E-01  8.50000000E-01  8.50000000E-01  8.50000000E-01  8.00000000E-01
  8.50000000E-01  8.50000000E-01  8.50000000E-01  8.00000000E-01  8.50000000E-01
  8.50000000E-01  8.50000000E-01  8.00000000E-01  8.50000000E-01  8.50000000E-01
  8.50000000E-01  8.00000000E-01  8.50000000E-01  8.50000000E-01  8.50000000E-01
  8.00000000E-01  8.50000000E-01  8.50000000E-01  8.50000000E-01  8.00000000E-01
  8.50000000E-01  8.50000000E-01  8.50000000E-01  8.00000000E-01  8.50000000E-01
  8.50000000E-01  8.50000000E-01  8.00000000E-01  8.50000000E-01  8.50000000E-01
  8.50000000E-01  8.00000000E-01  8.50000000E-01  8.50000000E-01  8.50000000E-01
  8.00000000E-01  8.50000000E-01  8.50000000E-01  8.50000000E-01  8.00000000E-01
  8.50000000E-01  8.50000000E-01  8.50000000E-01  8.00000000E-01  8.50000000E-01
  8.50000000E-01  8.50000000E-01  8.00000000E-01  8.50000000E-01  8.50000000E-01
  8.50000000E-01  8.00000000E-01  8.50000000E-01  8.50000000E-01  8.50000000E-01
  8.00000000E-01  8.50000000E-01  8.50000000E-01  8.50000000E-01  8.00000000E-01
  8.50000000E-01  8.50000000E-01  8.50000000E-01  8.00000000E-01  8.50000000E-01
  8.50000000E-01  8.50000000E-01  8.00000000E-01  8.50000000E-01  8.50000000E-01
  8.50000000E-01  8.00000000E-01  8.50000000E-01  8.50000000E-01  8.50000000E-01
  8.00000000E-01  8.50000000E-01  8.50000000E-01  8.50000000E-01  8.00000000E-01
  8.50000000E-01  8.50000000E-01  8.50000000E-01  8.00000000E-01  8.50000000E-01
  8.50000000E-01  8.50000000E-01  8.00000000E-01  8.50000000E-01  8.50000000E-01
  8.50000000E-01  8.00000000E-01  8.50000000E-01  8.50000000E-01  8.50000000E-01
  8.00000000E-01  8.50000000E-01  8.50000000E-01  8.50000000E-01  8.00000000E-01
  8.50000000E-01  8.50000000E-01  8.50000000E-01  8.00000000E-01  8.50000000E-01
  8.50000000E-01  8.50000000E-01  8.00000000E-01  8.50000000E-01  8.50000000E-01
  8.50000000E-01  8.00000000E-01  8.50000000E-01  8.50000000E-01  8.50000000E-01
  8.00000000E-01  8.50000000E-01  8.50000000E-01  8.50000000E-01  8.00000000E-01
  8.50000000E-01  8.50000000E-01  8.50000000E-01  8.00000000E-01  8.50000000E-01
  8.50000000E-01  8.50000000E-01  8.00000000E-01  8.50000000E-01  8.50000000E-01
  8.50000000E-01  8.00000000E-01  8.50000000E-01  8.50000000E-01  8.50000000E-01
  8.00000000E-01  8.50000000E-01  8.50000000E-01  8.50000000E-01  8.00000000E-01
  8.50000000E-01  8.50000000E-01  8.50000000E-01  8.00000000E-01  8.50000000E-01
  8.50000000E-01  8.50000000E-01  8.00000000E-01  8.50000000E-01  8.50000000E-01
  8.50000000E-01  8.00000000E-01  8.50000000E-01  8.50000000E-01  8.50000000E-01
  8.00000000E-01  8.50000000E-01  8.50000000E-01  8.50000000E-01  8.00000000E-01
  8.50000000E-01  8.50000000E-01  8.50000000E-01  8.00000000E-01  8.50000000E-01
  8.50000000E-01  8.50000000E-01  8.00000000E-01  8.50000000E-01  8.50000000E-01
  8.50000000E-01  8.00000000E-01  8.50000000E-01  8.50000000E-01  8.50000000E-01
  8.00000000E-01  8.50000000E-01  8.50000000E-01  8.50000000E-01  8.00000000E-01
  8.50000000E-01  8.50000000E-01  8.50000000E-01  8.00000000E-01  8.50000000E-01
  8.50000000E-01  8.50000000E-01  8.00000000E-01  8.50000000E-01  8.50000000E-01
  8.50000000E-01  8.00000000E-01  8.50000000E-01  8.50000000E-01  8.50000000E-01
  8.00000000E-01  8.50000000E-01  8.50000000E-01  8.50000000E-01  8.00000000E-01
  8.50000000E-01  8.50000000E-01  8.50000000E-01  8.00000000E-01  8.50000000E-01
  8.50000000E-01  8.50000000E-01  8.00000000E-01  8.50000000E-01  8.50000000E-01
  8.50000000E-01  8.00000000E-01  8.50000000E-01  8.50000000E-01  8.50000000E-01
  8.00000000E-01  8.50000000E-01  8.50000000E-01  8.50000000E-01  8.00000000E-01
  8.50000000E-01  8.50000000E-01  8.50000000E-01  8.00000000E-01  8.50000000E-01
  8.50000000E-01  8.50000000E-01  8.00000000E-01  8.50000000E-01  8.50000000E-01
  8.50000000E-01  8.00000000E-01  8.50000000E-01  8.50000000E-01  8.50000000E-01
  8.00000000E-01  8.50000000E-01  8.50000000E-01  8.50000000E-01  8.00000000E-01
  8.50000000E-01  8.50000000E-01  8.50000000E-01  8.00000000E-01  8.50000000E-01
  8.50000000E-01  8.50000000E-01  8.00000000E-01  8.50000000E-01  8.50000000E-01
  8.50000000E-01  8.00000000E-01  8.50000000E-01  8.50000000E-01  8.50000000E-01
  8.00000000E-01  8.50000000E-01  8.50000000E-01  8.50000000E-01  8.00000000E-01
  8.50000000E-01  8.50000000E-01  8.50000000E-01  8.00000000E-01  8.50000000E-01
  8.50000000E-01  8.50000000E-01  8.00000000E-01  8.50000000E-01  8.50000000E-01
  8.50000000E-01  8.00000000E-01  8.50000000E-01  8.50000000E-01  8.50000000E-01
  8.00000000E-01  8.50000000E-01  8.50000000E-01  8.50000000E-01  8.00000000E-01
  8.50000000E-01  8.50000000E-01  8.50000000E-01  8.00000000E-01  8.50000000E-01
  8.50000000E-01  8.50000000E-01  8.00000000E-01  8.50000000E-01  8.50000000E-01
  8.50000000E-01  8.00000000E-01  8.50000000E-01  8.50000000E-01  8.50000000E-01
  8.00000000E-01  8.50000000E-01  8.50000000E-01  8.50000000E-01  8.00000000E-01
  8.50000000E-01  8.50000000E-01  8.50000000E-01  8.00000000E-01  8.50000000E-01
  8.50000000E-01  8.50000000E-01  8.00000000E-01  8.50000000E-01  8.50000000E-01
  8.50000000E-01  8.00000000E-01  8.50000000E-01  8.50000000E-01  8.50000000E-01
  8.00000000E-01  8.50000000E-01  8.50000000E-01  8.50000000E-01  8.00000000E-01
  8.50000000E-01  8.50000000E-01  8.50000000E-01  8.00000000E-01  8.50000000E-01
  8.50000000E-01  8.50000000E-01  8.00000000E-01  8.50000000E-01  8.50000000E-01
  8.50000000E-01  8.00000000E-01  8.50000000E-01  8.50000000E-01  8.50000000E-01
  8.00000000E-01  8.50000000E-01  8.50000000E-01  8.50000000E-01  8.00000000E-01
  8.50000000E-01  8.50000000E-01  8.50000000E-01  8.00000000E-01  8.50000000E-01
  8.50000000E-01  8.50000000E-01  8.00000000E-01  8.50000000E-01  8.50000000E-01
  8.50000000E-01  8.00000000E-01  8.50000000E-01  8.50000000E-01  8.50000000E-01
  8.00000000E-01  8.50000000E-01  8.50000000E-01  8.50000000E-01  8.00000000E-01
  8.50000000E-01  8.50000000E-01  8.50000000E-01  8.00000000E-01  8.50000000E-01
  8.50000000E-01  8.50000000E-01  8.00000000E-01  8.50000000E-01  8.50000000E-01
  8.50000000E-01  8.00000000E-01  8.50000000E-01  8.50000000E-01  8.50000000E-01
  8.00000000E-01  8.50000000E-01  8.50000000E-01  8.50000000E-01  8.00000000E-01
  8.50000000E-01  8.50000000E-01  8.50000000E-01  8.00000000E-01  8.50000000E-01
  8.50000000E-01  8.50000000E-01  8.00000000E-01  8.50000000E-01  8.50000000E-01
  8.50000000E-01  8.00000000E-01  8.50000000E-01  8.50000000E-01  8.50000000E-01
  8.00000000E-01  8.50000000E-01  8.50000000E-01  8.50000000E-01  8.00000000E-01
  8.50000000E-01  8.50000000E-01  8.50000000E-01  8.00000000E-01  8.50000000E-01
  8.50000000E-01  8.50000000E-01  8.00000000E-01  8.50000000E-01  8.50000000E-01
  8.50000000E-01  8.00000000E-01  8.50000000E-01  8.50000000E-01  8.50000000E-01
  8.00000000E-01  8.50000000E-01  8.50000000E-01  8.50000000E-01  8.00000000E-01
  8.50000000E-01  8.50000000E-01  8.50000000E-01  8.00000000E-01  8.50000000E-01
  8.50000000E-01  8.50000000E-01  8.00000000E-01  8.50000000E-01  8.50000000E-01
  8.50000000E-01  8.00000000E-01  8.50000000E-01  8.50000000E-01  8.50000000E-01
  8.00000000E-01  8.50000000E-01  8.50000000E-01  8.50000000E-01  8.00000000E-01
  8.50000000E-01  8.50000000E-01  8.50000000E-01  8.00000000E-01  8.50000000E-01
  8.50000000E-01  8.50000000E-01  8.00000000E-01  8.50000000E-01  8.50000000E-01
  8.50000000E-01  8.00000000E-01  8.50000000E-01  8.50000000E-01  8.50000000E-01
  8.00000000E-01  8.50000000E-01  8.50000000E-01  8.50000000E-01  8.00000000E-01
  8.50000000E-01  8.50000000E-01  8.50000000E-01  8.00000000E-01  8.50000000E-01
  8.50000000E-01  8.50000000E-01  8.00000000E-01  8.50000000E-01  8.50000000E-01
  8.50000000E-01  8.00000000E-01  8.50000000E-01  8.50000000E-01  8.50000000E-01
  8.00000000E-01  8.50000000E-01  8.50000000E-01  8.50000000E-01  8.00000000E-01
  8.50000000E-01  8.50000000E-01  8.50000000E-01  8.00000000E-01  8.50000000E-01
  8.50000000E-01  8.50000000E-01  8.00000000E-01  8.50000000E-01  8.50000000E-01
  8.50000000E-01  8.00000000E-01  8.50000000E-01  8.50000000E-01  8.50000000E-01
  8.00000000E-01  8.50000000E-01  8.50000000E-01  8.50000000E-01  8.00000000E-01
  8.50000000E-01  8.50000000E-01  8.50000000E-01  8.00000000E-01  8.50000000E-01
  8.50000000E-01  8.50000000E-01  8.00000000E-01  8.50000000E-01  8.50000000E-01
  8.50000000E-01  8.00000000E-01  8.50000000E-01  8.50000000E-01  8.50000000E-01
  8.00000000E-01  8.50000000E-01  8.50000000E-01  8.50000000E-01  8.00000000E-01
  8.50000000E-01  8.50000000E-01  8.50000000E-01  8.00000000E-01  8.50000000E-01
  8.50000000E-01  8.50000000E-01  8.00000000E-01  8.50000000E-01  8.50000000E-01
  8.50000000E-01  8.00000000E-01  8.50000000E-01  8.50000000E-01  8.50000000E-01
  8.00000000E-01  8.50000000E-01  8.50000000E-01  8.50000000E-01  8.00000000E-01
  8.50000000E-01  8.50000000E-01  8.50000000E-01  8.00000000E-01  8.50000000E-01
  8.50000000E-01  8.50000000E-01  8.00000000E-01  8.50000000E-01  8.50000000E-01
  8.50000000E-01  8.00000000E-01  8.50000000E-01  8.50000000E-01  8.50000000E-01
  8.00000000E-01  8.50000000E-01  8.50000000E-01  8.50000000E-01  8.00000000E-01
  8.50000000E-01  8.50000000E-01  8.50000000E-01  8.00000000E-01  8.50000000E-01
  8.50000000E-01  8.50000000E-01  8.00000000E-01  8.50000000E-01  8.50000000E-01
  8.50000000E-01  8.00000000E-01  8.50000000E-01  8.50000000E-01  8.50000000E-01
  8.00000000E-01  8.50000000E-01  8.50000000E-01  8.50000000E-01  8.00000000E-01
  8.50000000E-01  8.50000000E-01  8.50000000E-01  8.00000000E-01  8.50000000E-01
  8.50000000E-01  8.50000000E-01  8.00000000E-01  8.50000000E-01  8.50000000E-01
  8.50000000E-01  8.00000000E-01  8.50000000E-01  8.50000000E-01  8.50000000E-01
  8.00000000E-01  8.50000000E-01  8.50000000E-01  8.50000000E-01  8.00000000E-01
  8.50000000E-01  8.50000000E-01  8.50000000E-01  8.00000000E-01  8.50000000E-01
  8.50000000E-01  8.50000000E-01  8.00000000E-01  8.50000000E-01  8.50000000E-01
  8.50000000E-01  8.00000000E-01  8.50000000E-01  8.50000000E-01  8.50000000E-01
  8.00000000E-01  8.50000000E-01  8.50000000E-01  8.50000000E-01  8.00000000E-01
  8.50000000E-01  8.50000000E-01  8.50000000E-01  8.00000000E-01  8.50000000E-01
  8.50000000E-01  8.50000000E-01  8.00000000E-01  8.50000000E-01  8.50000000E-01
  8.50000000E-01  8.00000000E-01  8.50000000E-01  8.50000000E-01  8.50000000E-01
  8.00000000E-01  8.50000000E-01  8.50000000E-01  8.50000000E-01  8.00000000E-01
  8.50000000E-01  8.50000000E-01  8.50000000E-01  8.00000000E-01  8.50000000E-01
  8.50000000E-01  8.50000000E-01  8.00000000E-01  8.50000000E-01  8.50000000E-01
  8.50000000E-01  8.00000000E-01  8.50000000E-01  8.50000000E-01  8.50000000E-01
  8.00000000E-01  8.50000000E-01  8.50000000E-01  8.50000000E-01  8.00000000E-01
  8.50000000E-01  8.50000000E-01  8.50000000E-01  8.00000000E-01  8.50000000E-01
  8.50000000E-01  8.50000000E-01  8.00000000E-01  8.50000000E-01  8.50000000E-01
  8.50000000E-01  8.00000000E-01  8.50000000E-01  8.50000000E-01  8.50000000E-01
  8.00000000E-01  8.50000000E-01  8.50000000E-01  8.50000000E-01  8.00000000E-01
  8.50000000E-01  8.50000000E-01  8.50000000E-01  8.00000000E-01  8.50000000E-01
  8.50000000E-01  8.50000000E-01  8.00000000E-01  8.50000000E-01  8.50000000E-01
  8.50000000E-01  8.00000000E-01  8.50000000E-01  8.50000000E-01  8.50000000E-01
  8.00000000E-01  8.50000000E-01  8.50000000E-01  8.50000000E-01  8.00000000E-01
  8.50000000E-01  8.50000000E-01  8.50000000E-01  8.00000000E-01  8.50000000E-01
  8.50000000E-01  8.50000000E-01  8.00000000E-01  8.50000000E-01  8.50000000E-01
  8.50000000E-01  8.00000000E-01  8.50000000E-01  8.50000000E-01  8.50000000E-01
  8.00000000E-01  8.50000000E-01  8.50000000E-01  8.50000000E-01  8.00000000E-01
  8.50000000E-01  8.50000000E-01  8.50000000E-01  8.00000000E-01  8.50000000E-01
  8.50000000E-01  8.50000000E-01  8.00000000E-01  8.50000000E-01  8.50000000E-01
  8.50000000E-01  8.00000000E-01  8.50000000E-01  8.50000000E-01  8.50000000E-01
  8.00000000E-01  8.50000000E-01  8.50000000E-01  8.50000000E-01  8.00000000E-01
  8.50000000E-01  8.50000000E-01  8.50000000E-01  8.00000000E-01  8.50000000E-01
  8.50000000E-01  8.50000000E-01  8.00000000E-01  8.50000000E-01  8.50000000E-01
  8.50000000E-01  8.00000000E-01  8.50000000E-01  8.50000000E-01  8.50000000E-01
  8.00000000E-01  8.50000000E-01  8.50000000E-01  8.50000000E-01  8.00000000E-01
  8.50000000E-01  8.50000000E-01  8.50000000E-01  8.00000000E-01  8.50000000E-01
  8.50000000E-01  8.50000000E-01  8.00000000E-01  8.50000000E-01  8.50000000E-01
  8.50000000E-01  8.00000000E-01  8.50000000E-01  8.50000000E-01  8.50000000E-01
  8.00000000E-01  8.50000000E-01  8.50000000E-01  8.50000000E-01  8.00000000E-01
  8.50000000E-01  8.50000000E-01  8.50000000E-01  8.00000000E-01  8.50000000E-01
  8.50000000E-01  8.50000000E-01  8.00000000E-01  8.50000000E-01  8.50000000E-01
  8.50000000E-01  8.00000000E-01  8.50000000E-01  8.50000000E-01  8.50000000E-01
  8.00000000E-01  8.50000000E-01  8.50000000E-01  8.50000000E-01  8.00000000E-01
  8.50000000E-01  8.50000000E-01  8.50000000E-01  8.00000000E-01  8.50000000E-01
  8.50000000E-01  8.50000000E-01  8.00000000E-01  8.50000000E-01  8.50000000E-01
  8.50000000E-01  8.00000000E-01  8.50000000E-01  8.50000000E-01  8.50000000E-01
  8.00000000E-01  8.50000000E-01  8.50000000E-01  8.50000000E-01  8.00000000E-01
  8.50000000E-01  8.50000000E-01  8.50000000E-01  8.00000000E-01  8.50000000E-01
  8.50000000E-01  8.50000000E-01  8.00000000E-01  8.50000000E-01  8.50000000E-01
  8.50000000E-01  8.00000000E-01  8.50000000E-01  8.50000000E-01  8.50000000E-01
  8.00000000E-01  8.50000000E-01  8.50000000E-01  8.50000000E-01  8.00000000E-01
  8.50000000E-01  8.50000000E-01  8.50000000E-01  8.00000000E-01  8.50000000E-01
  8.50000000E-01  8.50000000E-01  8.00000000E-01  8.50000000E-01  8.50000000E-01
  8.50000000E-01  8.00000000E-01  8.50000000E-01  8.50000000E-01  8.50000000E-01
  8.00000000E-01  8.50000000E-01  8.50000000E-01  8.50000000E-01  8.00000000E-01
  8.50000000E-01  8.50000000E-01  8.50000000E-01  8.00000000E-01  8.50000000E-01
  8.50000000E-01  8.50000000E-01  8.00000000E-01  8.50000000E-01  8.50000000E-01
  8.50000000E-01  8.00000000E-01  8.50000000E-01  8.50000000E-01  8.50000000E-01
  8.00000000E-01  8.50000000E-01  8.50000000E-01  8.50000000E-01  8.00000000E-01
  8.50000000E-01  8.50000000E-01  8.50000000E-01  8.00000000E-01  8.50000000E-01
  8.50000000E-01  8.50000000E-01  8.00000000E-01  8.50000000E-01  8.50000000E-01
  8.50000000E-01  8.00000000E-01  8.50000000E-01  8.50000000E-01  8.50000000E-01
  8.00000000E-01  8.50000000E-01  8.50000000E-01  8.50000000E-01  8.00000000E-01
  8.50000000E-01  8.50000000E-01  8.50000000E-01  8.00000000E-01  8.50000000E-01
  8.50000000E-01  8.50000000E-01  8.00000000E-01  8.50000000E-01  8.50000000E-01
  8.50000000E-01  8.00000000E-01  8.50000000E-01  8.50000000E-01  8.50000000E-01
  8.00000000E-01  8.50000000E-01  8.50000000E-01  8.50000000E-01  8.00000000E-01
  8.50000000E-01  8.50000000E-01  8.50000000E-01  8.00000000E-01  8.50000000E-01
  8.50000000E-01  8.50000000E-01  8.00000000E-01  8.50000000E-01  8.50000000E-01
  8.50000000E-01  8.00000000E-01  8.50000000E-01  8.50000000E-01  8.50000000E-01
  8.00000000E-01  8.50000000E-01  8.50000000E-01  8.50000000E-01  8.00000000E-01
  8.50000000E-01  8.50000000E-01  8.50000000E-01  8.00000000E-01  8.50000000E-01
  8.50000000E-01  8.50000000E-01  8.00000000E-01  8.50000000E-01  8.50000000E-01
  8.50000000E-01  8.00000000E-01  8.50000000E-01  8.50000000E-01  8.50000000E-01
  8.00000000E-01  8.50000000E-01  8.50000000E-01  8.50000000E-01  8.00000000E-01
  8.50000000E-01  8.50000000E-01  8.50000000E-01  8.00000000E-01  8.50000000E-01
  8.50000000E-01  8.50000000E-01  8.00000000E-01  8.50000000E-01  8.50000000E-01
  8.50000000E-01  8.00000000E-01  8.50000000E-01  8.50000000E-01  8.50000000E-01
  8.00000000E-01  8.50000000E-01  8.50000000E-01  8.50000000E-01  8.00000000E-01
  8.50000000E-01  8.50000000E-01  8.50000000E-01  8.00000000E-01  8.50000000E-01
  8.50000000E-01  8.50000000E-01  8.00000000E-01  8.50000000E-01  8.50000000E-01
  8.50000000E-01  8.00000000E-01  8.50000000E-01  8.50000000E-01  8.50000000E-01
  8.00000000E-01  8.50000000E-01  8.50000000E-01  8.50000000E-01  8.00000000E-01
  8.50000000E-01  8.50000000E-01  8.50000000E-01  8.00000000E-01  8.50000000E-01
  8.50000000E-01  8.50000000E-01  8.00000000E-01  8.50000000E-01  8.50000000E-01
  8.50000000E-01  8.00000000E-01  8.50000000E-01  8.50000000E-01  8.50000000E-01
  8.00000000E-01  8.50000000E-01  8.50000000E-01  8.50000000E-01  8.00000000E-01
  8.50000000E-01  8.50000000E-01  8.50000000E-01  8.00000000E-01  8.50000000E-01
  8.50000000E-01  8.50000000E-01  8.00000000E-01  8.50000000E-01  8.50000000E-01
  8.50000000E-01  8.00000000E-01  8.50000000E-01  8.50000000E-01  8.50000000E-01
  8.00000000E-01  8.50000000E-01  8.50000000E-01  8.50000000E-01  8.00000000E-01
  8.50000000E-01  8.50000000E-01  8.50000000E-01  8.00000000E-01
%FLAG IPOL                                                                      
%FORMAT(1I8)                                                                    
       0
%FLAG CMAP_COUNT                                                                
%FORMAT(2I8)                                                                    
       3       3                                                                
%FLAG CMAP_RESOLUTION                                                           
%FORMAT(20I4)                                                                   
  24  24  24
%FLAG CMAP_PARAMETER_01                                                         
%COMMENT  Ala CMAP                                                              
%FORMAT(8F9.5)                                                                  
 -0.40490 -0.91563 -0.66011 -0.12395  0.67400  1.66712  2.29819  2.59327
  2.26341  1.68604  1.08454  0.71831 -0.48870 -1.12865 -0.92439 -0.34344
  0.32979  0.59769  0.44008 -0.02411 -0.36985 -0.85317 -0.95648 -1.10907
 -0.57095 -0.51404 -0.20974  0.13143  0.76924  1.59233  2.29037  2.67125
  3.36182  2.18892  2.73567  0.45223 -0.65830 -0.99890 -0.71628  0.42576
  0.53333  0.77654  0.66928  0.32986  0.00178 -0.28339 -0.35321 -0.52818
 -0.04441  1.18495  0.28672  0.49834  1.04770  1.74318  2.42981  2.78424
  2.83854  2.61585  1.87191  0.41363 -0.42895 -0.65692  0.55228  0.27728
  0.92789  1.20682  1.03564  0.82326  0.50898  0.23806  0.20869  0.03162
  0.75270  0.92426  0.87815  1.07435  1.34904  1.95311  2.55584  3.01644
  2.98774  2.58246  1.60744  0.42752 -0.30354 -0.31446 -0.03375  0.52111
  1.16914  1.46572  1.98214  1.17058  0.95531  0.70808  0.78722  1.35766
  1.34685  2.28011  1.28633  1.21465  1.51939  2.05226  2.68560  3.11202
  2.91890  2.50948  1.45835  0.41028 -0.10582 -0.34705 -0.04464  0.55547
  1.11301  1.35870  1.48001  1.35541  1.12115  0.95721  1.12820  1.22585
  2.04850  1.37875  1.14784  1.59064  1.72039  1.78908  3.30313  3.04054
  2.98842  2.41992  1.44654  0.52504 -0.06270 -0.27801  0.87234  0.67598
  0.94307  1.15416  1.20141  1.24110  1.26105  1.20805  1.33113  1.49416
  1.04113  0.90852  0.69483  0.85361  1.26559  1.89687  2.63196  4.14974
  2.85712  2.19037  1.16979  0.05713 -0.34982 -0.13111  1.14408  0.72916
  0.83976  0.87834  2.10017  1.17948  1.17775  1.17175  1.28140  1.31313
  0.56020  0.54579  0.70265  1.11648  1.74498  2.34101  3.30438  2.91742
  2.51820  1.80071  0.63368 -0.12153  0.06806  0.72937  1.10420  1.35758
  1.49864  1.53737  1.46180  1.46294  1.03983  0.71730  0.57013  0.61315
  0.24962  0.58339  1.16380  1.97603  2.89121  3.52557  3.68570  3.11960
  2.13455  1.15056  0.41716  0.25190  0.90813  1.46041  1.72423  2.08326
  2.41176  2.51527  2.40584  2.10326  1.06657  0.24926  0.00000  0.09150
  0.69001  1.45869  2.56017  3.51462  4.36327  4.88489  4.44136  3.31773
  1.94048  1.18640  1.14388  1.38827  1.99448  1.97586  2.10793  2.62567
  3.22808  3.67878  3.65514  2.76833  1.09340 -0.02756 -0.20820  0.11394
  2.04863  3.24028  4.45604  5.33890  5.83417  5.62064  4.51400  3.15546
  2.11289  2.12474  2.51205  2.64497  2.21088  1.89502  2.06746  3.01892
  4.17428  5.04288  4.34485  2.58422  0.91721  0.02839  0.38724  1.08963
  3.86396  5.17448  4.99907  4.71176  4.69475  4.40584  3.94871  3.17716
  3.06333  3.67246  4.29338  2.44448  1.35877  2.75298  2.01318  3.50593
  5.09938  4.27559  3.31646  1.97909  0.94467  0.88095  1.62501  2.60184
  5.48793  4.77064  3.78644  3.36104  3.22046  3.45658  3.76845  4.19099
  4.55308  4.85880  2.97166  1.40450  1.55754  1.01694  2.55251  4.15890
  3.59316  2.89015  2.39954  2.03475  2.02513  2.33480  3.18431  4.21056
  4.70559  3.27912  2.28983  1.85924  2.16582  3.20992  4.49444  5.42412
  5.98035  4.20595  2.46249  1.80286  1.41486  2.22339  3.40125  3.01974
  2.06463  1.98502  2.41985  3.03336  3.42492  3.76647  4.58344  5.51267
  2.34028  1.47026  0.70060  0.67110  1.72673  3.69931  5.49162  6.13923
  5.15665  3.78295  2.61455  3.27648  2.23785  2.65327  2.09930  0.98357
  0.83115  1.73620  2.87719  3.88918  4.40086  4.76522  4.34641  3.40891
  0.89883  0.26728  0.50152  0.12164  1.64744  3.66760  4.84258  4.73428
  4.15359  3.27829  2.48102  2.07496  1.77587  1.23018  0.22862 -0.17811
  0.36837  1.62610  2.66752  3.41452  3.43224  3.08090  2.54957  1.61094
  0.32705 -0.14752 -0.38279 -0.00752  1.31062  2.89019  3.39946  3.48428
  3.29026  2.66680  1.96417  1.33230  0.70261 -0.31922 -0.88675 -0.59803
  0.32944  1.32712  1.88494  2.20282  2.13265  1.82079  1.35338  0.71220
 -0.03270 -0.18304 -0.26783  0.12774  0.88323  1.96743  2.18027  2.30248
  2.25909  1.78219  1.00274  0.24927 -0.80554 -1.41955 -1.17733 -0.22422
  1.19834  1.07092  1.05260  0.95885  0.87757  0.60790  0.30853  0.05046
  0.08873  0.15910  0.22294  0.37757  0.76603  1.36872  1.54866  1.47050
  1.32077  0.90501  0.18754 -0.81180 -1.70050 -1.70896 -0.87307 -0.00331
  0.74981  0.73853  0.55032  0.27050 -0.03313 -0.23059 -0.27425 -0.15004
  1.38786  0.31030  0.31376  0.30435  0.69516  1.26684  1.67665  1.73040
  1.48205  0.83164  0.78021 -1.27092 -1.69247 -1.59919 -0.87185  0.23049
  0.75546  0.68419  0.50548  0.18474 -0.18354 -0.22863 -0.03965  0.15614
  1.13038  0.28339  0.13603  0.26411  0.64582  1.31757  2.01140  2.13005
  1.85723  0.94711 -0.10199 -0.99228 -1.35141 -1.23057 -0.39240  0.63569
  1.03002  0.93699  1.12925  0.94167  0.14233  0.14305  0.34318  0.43742
 -0.18145 -0.18129 -0.36426 -0.02774  0.57160  1.29873  2.16831  2.37053
  1.81288  0.84225 -0.13994 -0.87562 -1.03375 -0.75156  0.33665  1.25211
  1.11963  1.00266  0.72525  0.87651  0.22308  0.12905  0.05647 -0.10214
 -1.05110 -0.75879 -0.79562 -0.36879  0.45648  1.36193  2.25739  2.41888
  1.79507  0.83030 -0.09049 -0.76021 -0.87672 -0.19067  0.64936  0.61856
  0.80179  0.82609  0.68948  0.43884 -0.07529 -0.55654 -0.80787 -1.00697
 -1.21902 -1.03039 -0.88255 -0.32105  0.49201  1.53828  2.43182  2.53201
  1.97701  1.22953  0.40353 -0.11048 -0.00493 -0.40512 -0.63562 -0.14764
  0.47545  0.72229  0.59153  0.14907 -0.47001 -0.96318 -1.22829 -1.35376
%FLAG CMAP_PARAMETER_02                                                         
%COMMENT  Glu CMAP                                                              
%FORMAT(8F9.5)                                                                  
  0.52228  1.03267  1.49446  1.71567  2.32213  3.14762  3.92563  4.20801
  3.98330  3.71530  3.57288  2.58309  0.80238  0.23594  0.58492  1.30557
  2.02633  2.29570  2.01109  1.51363  0.93886  0.42676  0.35104  0.37207
  0.46712  0.95659  1.27142  1.47987  1.87211  2.60216  3.48241  3.94659
  3.85343  3.66682  3.05663  1.29652  0.23104 -0.06391  0.28443  1.02181
  1.77300  2.04294  1.74637  1.33608  0.85021  0.51827  0.34853  0.38689
  0.71551  1.09158  1.24108  1.20382  1.48762  2.16505  2.99503  3.48416
  3.41748  3.19096  2.31352  0.83653  0.13782  0.01262  0.40937  1.09138
  1.81835  2.13665  1.89587  1.45341  0.93605  0.72196  0.63005  0.61667
  1.23633  1.05303  1.11366  0.99996  1.29649  1.93418  3.18467  3.25814
  3.22031  2.97228  2.05337  0.89582  0.32965  0.71724  0.60788  1.19799
  1.80689  2.12562  1.97969  1.63143  1.25425  1.01734  0.88363  0.83522
  1.30761  1.22768  1.13538  0.95957  1.32807  2.57102  2.89497  3.36108
  3.35684  3.05473  2.14630  1.19745  0.70441  0.58511  1.95205  1.52371
  2.01472  2.22245  2.23903  1.99722  1.68137  1.46224  1.34708  2.06156
  1.63671  1.46009  1.09844  1.02737  1.37694  2.19199  3.07254  3.58620
  3.60893  3.12444  2.30776  1.42648  0.85100  0.78797  1.22689  1.78722
  1.94542  2.08451  2.19484  2.14483  2.04645  1.82787  1.84204  1.79757
  1.12117  1.00459  0.90669  1.08242  1.47107  2.29074  3.15229  3.57314
  3.49268  3.01074  2.09739  1.12356  0.70488  0.98375  1.57771  1.72826
  2.12940  1.85888  2.57109  1.91976  1.72276  1.49132  1.51334  1.32669
  0.40904  0.49960  0.68994  1.12284  1.80289  2.48352  3.11479  3.31150
  3.03017  2.36837  1.42426  0.77455  0.87384  1.61817  2.00898  2.22704
  2.42461  2.30922  2.15056  1.99226  1.92450  0.97224  0.73574  0.48898
  0.08410  0.42215  1.02926  1.87467  2.69476  3.45376  3.67954  3.36972
  2.60475  1.82014  1.20426  1.10888  1.68685  2.34030  2.58542  2.84203
  3.12752  3.12065  2.96167  2.54976  1.40533  0.40382  0.00000 -0.04572
  0.36011  1.15921  2.15592  3.34657  4.26643  4.67710  4.47054  3.44682
  2.32569  1.70699  2.35063  2.04511  2.85433  2.90676  3.10746  3.48225
  3.97016  4.27312  4.16723  3.09772  1.42370  0.02179 -0.30678 -0.03255
  1.65294  2.88664  4.10567  5.16785  5.96730  5.95391  4.93741  3.51176
  2.68707  2.68290  3.24086  3.62179  3.37052  3.15678  3.36134  4.16275
  5.07925  5.82716  5.85962  3.19368  1.29808  0.25271  0.39594  1.05331
  3.81412  5.35486  5.13605  4.60260  4.59158  4.46463  4.15203  3.69566
  3.71043  4.45180  4.65562  5.07199  2.67441  2.96658  3.25503  4.85581
  5.99244  4.94014  3.81956  2.68765  1.60044  1.35847  1.88601  2.75772
  5.65413  4.51620  3.43021  3.07386  2.92666  3.32677  4.07558  4.54241
  5.30174  5.61506  3.86867  2.36536  2.13112  2.02534  3.47267  5.02105
  4.11316  3.37138  2.94913  2.70538  2.53778  2.86068  3.56974  4.58051
  4.77518  3.27951  2.16376  1.58266  1.88553  3.19050  4.62223  5.93455
  6.45147  4.76056  3.14418  2.16040  2.28057  3.08457  4.21043  3.66258
  2.75304  2.55511  2.93208  3.39129  3.79930  4.20397  5.39326  5.43581
  2.56508  1.67090  0.93736  0.58444  1.61800  3.62689  5.59409  6.59827
  5.74431  4.49610  3.35132  2.97981  3.21941  3.67374  3.27120  2.07994
  1.77993  2.39478  3.38696  4.25779  4.52985  4.93882  4.69111  3.61049
  1.26462  0.67708  0.26532  0.30132  2.25604  3.95083  5.47476  5.55371
  5.10155  4.30674  3.56997  3.25845  3.10422  2.55670  1.57151  0.96413
  1.40398  2.42204  3.52777  4.13497  4.07309  3.55975  2.87817  1.99484
  0.55176  0.19150 -0.16597  0.66095  1.62856  3.89802  4.16340  4.26209
  4.12179  3.65628  3.05515  2.49485  1.99083  0.97560  0.41587  0.60386
  1.44967  2.34875  2.94070  3.39727  3.25886  2.19662  1.58376  0.96441
  0.07145 -0.02229 -0.19366  0.09658  1.21303  2.23576  2.78266  2.90510
  2.93369  2.54580  1.95236  1.33023  0.40661 -0.27184 -0.14720  0.69359
  1.64189  1.97936  1.87903  1.97864  1.23292  1.13701  0.51871  0.18909
 -0.01947  0.16303  0.09064  0.20405  0.73128  1.39094  1.86213  1.76276
  1.72469  1.40183  0.86152  0.00437 -0.70891 -0.84671 -0.21411  0.78516
  1.48423  1.42008  0.97414  0.63572  0.21567 -0.09045 -0.23085 -0.26431
  0.23170  0.08163  0.01486  0.12279  0.73992  1.49053  1.97444  2.06779
  1.82022  1.33979  0.43753 -0.54445 -1.08230 -0.91410 -0.20721  0.88163
  1.56893  1.48896  1.00506  0.51282  0.15495  0.02267  0.02666  0.09482
  0.47215  0.31619  0.08314  0.12316  1.11375  1.54478  2.34630  3.47237
  2.30729  1.59681  0.67989 -0.18398 -0.68707 -0.72359  0.03778  1.10405
  1.73728  1.74294  1.46729  1.10511  0.73306  0.61181  0.71670  0.63161
  0.30966  0.18354  0.18180  0.27335  0.79409  1.71529  2.92627  3.19017
  2.77280  1.84258  1.67508  0.27817 -0.33374 -0.33856  0.53257  1.78583
  2.05954  2.09806  1.90196  1.58767  1.24982  1.00802  0.95508  1.73928
 -0.29951 -0.37951  0.07609  0.41404  0.99608  1.96236  3.00787  4.11080
  3.25032  2.20114  1.30186  1.64636  0.41136  0.73319  2.05546  2.04893
  2.01577  2.10384  2.12746  1.90819  1.43544  0.70519  0.34476  0.06379
 -0.95612 -1.18291  1.08842  1.13915  1.84130  2.84517  3.27537  3.80849
  3.39876  2.39368  1.50634  1.02603  1.00555  0.15970  1.20267  1.90054
  2.46726  2.63671  1.85362  1.43775  0.79424 -0.01112 -0.44922 -0.70653
%FLAG CMAP_PARAMETER_03                                                         
%COMMENT  Lys CMAP                                                              
%FORMAT(8F9.5)                                                                  
 -1.13164 -0.62346 -0.24209 -0.02973  0.48480  1.23694  2.04575  2.29166
  2.02876  1.62703  1.27127  0.35950 -1.42623 -2.05405 -1.64702 -0.75066
  0.09360  0.45285  0.21807 -0.18586 -0.73583 -1.13344 -1.19694 -1.19062
 -0.64060 -0.32893  0.02012  0.02118  0.47137  1.14861  1.91913  2.36069
  2.22229  1.95149  1.20614 -0.57017 -1.75076 -2.03501 -1.58763 -0.64877
  0.30096  0.62023  0.45342  0.04313 -0.46090 -0.79564 -0.82334 -0.74223
 -0.24137 -0.11209  0.08544  0.05425  0.40854  1.14888  2.02651  2.38762
  2.30421  2.65775  0.84980 -0.58949 -1.42718 -1.56969 -1.12474 -0.27600
  0.57048  0.92694  0.75506  0.36313  0.41248 -0.25267 -0.29508 -0.30702
  0.15784  0.16124  0.21528  0.19125  0.52652  1.17640  2.01822  2.39523
  2.25697  1.97743  0.85670 -0.29822 -0.64315 -0.71138 -0.30686  0.45873
  0.81134  1.29671  1.19500  0.84969  0.46708  0.29043  0.21746  0.16500
  0.89392  0.71753  0.57115  0.43890  0.76485  1.44400  2.31824  2.67943
  2.58376  2.16804  1.23014  0.82763 -0.51969 -0.73656 -0.32147  0.44935
  1.20995  1.60156  1.65872  1.41868  1.06413  0.88918  1.40765  0.89807
  1.39127  1.14527  0.83908  0.62088  1.03137  2.44461  3.61122  3.03639
  2.93037  2.34216  1.25412  0.23792 -0.42524 -0.47841  0.12423  0.77695
  1.18318  1.45904  1.64051  1.57482  1.43824  1.35338  1.42422  1.50599
  1.03940  0.78129  0.55141  0.59044  1.11541  1.93195  3.28135  3.10600
  2.87709  2.08673  0.97761 -0.07189 -0.55989 -0.15343  0.59138  0.86483
  1.13795  1.36979  1.55187  1.49198  1.31001  1.19377  1.27168  1.26717
  0.31570  0.32645  0.43538  0.89961  1.65773  2.35060  2.92667  3.00795
  2.52682  1.60328  0.45969  0.23113 -0.28882  1.23655  1.15894  1.54835
  1.88547  1.93525  1.86074  1.72151  1.65432  0.72519  0.57772  0.96376
  0.01270  0.24227  0.76959  1.64854  2.60813  3.46061  3.69061  3.18918
  2.22863  1.15788  0.39483  0.21073  0.68040  2.18832  1.80572  2.24818
  2.70988  2.86880  2.79105  2.41410  2.01156  0.35940  0.00000  0.00646
  0.35073  0.90201  2.00003  3.08122  4.18056  4.93815  4.63514  3.60238
  2.75114  1.43898  1.23584  1.46770  2.07827  2.18651  2.36403  2.96159
  3.67909  4.13912  4.10653  3.18582  1.51669  0.18861 -0.06191  0.04962
  1.53826  2.58483  4.03310  5.05092  6.11295  6.14815  5.20647  3.81976
  2.76531  2.50097  2.69420  2.97134  2.67683  2.45579  2.69794  3.72189
  4.88760  5.73443  5.25225  3.32794  1.50262  0.37839  0.90315  0.93349
  3.53826  4.97003  5.16584  4.77571  4.97699  4.94501  4.73810  4.10406
  3.72549  4.11352  4.26970  3.27545  2.15952  2.71722  2.87070  4.71124
  5.93638  5.07391  4.12244  2.88828  2.59390  1.43687  1.95877  2.78313
  5.77443  4.46997  3.56825  3.21013  3.29175  3.88737  4.64985  4.86020
  5.40449  5.58649  3.52430  1.95498  2.12058  1.64132  3.18061  4.76232
  4.12981  3.48929  3.28524  2.96613  2.82022  3.09461  3.81784  4.80706
  4.81125  3.11064  2.19879  1.79413  2.26340  3.62230  5.03506  6.19526
  6.42134  4.54813  2.74872  2.01212  1.67501  2.46391  3.72853  3.32011
  2.54393  2.64930  4.53517  3.65435  4.11000  4.43677  5.16380  5.36330
  2.40638  1.42733  0.83483  0.72279  1.83113  3.87438  5.88103  6.54537
  5.44021  4.07584  2.89687  2.46565  2.57255  2.85706  2.48850  1.54075
  1.55152  2.30832  3.47039  4.36402  4.62076  5.24285  4.48773  3.44960
  1.10697  0.48844  0.05413  0.22301  1.84021  4.72185  5.44366  5.35532
  4.78976  3.85091  3.07756  2.70321  2.41981  1.79438  0.82855  0.52195
  1.15697  2.28904  3.44297  4.00628  3.92284  3.44623  2.77364  1.79239
  0.57707  0.21457  0.12757  0.11426  1.68939  3.35709  3.67419  3.88209
  3.86371  3.22634  2.49647  1.84377  1.15687  0.09138 -0.36996 -0.04023
  1.02408  2.05775  2.68926  2.74955  2.42499  2.04678  1.55711  1.00697
  0.05163  0.00299 -0.17038  0.08753  1.18689  2.24636  2.73093  2.76323
  2.65887  2.14045  1.40562  0.50704 -0.61236 -1.29634 -1.05969 -0.13291
  0.96124  1.48528  1.46883  1.23917  0.87082  0.57255  0.35700  0.19011
 -0.10233  0.05477 -0.00840  0.09387  0.67551  1.37869  1.72925  1.53428
  1.31553  0.82680  0.14475 -0.97642 -1.85541 -1.92868 -1.09786  0.07237
  0.91454  0.97238  0.58573  0.26675 -0.11967 -0.34550 -0.35246 -0.32802
  0.52160  0.15688 -0.09909 -0.06538  0.41444  1.10954  1.57762  1.58789
  1.28279  0.65634 -0.44715 -1.51329 -2.08018 -1.90600 -1.01779  0.15231
  0.91178  1.43560  0.45842  0.08514 -0.30926 -0.44935 -0.25988 -0.05601
  0.17976  0.55827 -0.34578 -0.27097  0.25407  1.08656  1.80718  1.95109
  1.58890  0.72912 -0.40442 -1.34979 -1.91684 -1.87165 -0.98156  0.28439
  0.89099  0.90274  0.79523  0.40138  0.02081  0.00907  0.23280  0.31097
 -0.44608 -0.50159 -0.63851 -0.46568  0.06284  0.89854  2.27207  2.66185
  2.06789  0.75765 -0.37406 -1.13229 -1.70425 -1.63652 -0.60650  0.74288
  0.97450  0.83959  0.77625  0.54584  0.23025  0.14501  0.19838  0.06330
 -1.11297 -1.28309 -1.07056 -0.72163 -0.11182  1.28275  1.90578  2.41469
  1.97238  0.84092  0.11079 -0.94101 -1.15465 -0.94939  0.64316  0.56647
  0.70355  0.74958  1.63039  0.63838  0.25608  0.41040 -0.50836 -0.80252
 -1.72473 -1.92912 -1.10012 -1.05519 -0.10274  0.90677  2.05671  2.58075
  2.16667  1.05344  0.03573 -0.05773 -0.58287 -1.40318 -1.58072 -0.87231
  0.01980  0.51998  0.63491  0.37020 -0.25344 -0.90749 -1.16574 -1.34771
%FLAG CMAP_INDEX                                                                
%FORMAT(6I8)                                                                    
       5       7       9      27      29       3
      27      29      31      37      39       1
      37      39      41      52      54       2
