ACE
  6779
  24.7181929  18.6274451  14.4289822  24.0857094  19.4613405  14.7334211
  23.2566405  19.5637366  14.0332368  24.6722235  20.3800777  14.7381089
  23.5164563  19.2375401  16.1358349  23.7909685  18.2181755  16.7651034
  22.7229979  20.1963346  16.6189105  22.5264782  21.0166932  16.0634908
  22.1221546  20.1025983  17.9341303  21.4905547  19.2155980  17.9832334
  23.1890052  20.0018379  19.0191656  23.7972640  19.1133027  18.8499742
  23.8238628  20.8873432  18.9885657  22.5174363  19.9052122  20.3849192
  21.9093241  20.7936729  20.5550309  21.8827272  19.0196317  20.4164416
  23.5842864  19.8044537  21.4699554  24.1925469  18.9159199  21.3007639
  24.2191420  20.6899601  21.4393557  22.9127163  19.7078259  22.8357088
  22.3046032  20.5962857  23.0058210  22.2780107  18.8222445  22.8672303
  23.9410901  19.6107035  23.8816120  24.5290655  20.4314091  23.8528545
  23.4963133  19.5467061  24.7861439  24.5044219  18.7872692  23.7244105
  21.2673596  21.3255559  18.2344369  21.1582066  22.2285185  17.4078873
  20.6597817  21.3529873  19.4228483  20.7800012  20.5863395  20.0692985
  19.8189828  22.4615313  19.8275576  20.4054960  23.3802693  19.8322429
  18.6447555  22.6378750  18.8706264  18.0428120  21.7292007  18.8619603
  18.0308219  23.4766572  19.1986971  19.0201542  22.8339878  17.8662784
  19.2527079  22.2389021  21.2226393  19.5272231  21.2195382  21.8519078
  18.4592485  23.1976960  21.7057144  18.2627269  24.0180535  21.1502938
  17.8584065  23.1039605  23.0209348  17.2268080  22.2169592  23.0700397
  18.9252583  23.0032032  24.1059693  19.5335183  22.1146687  23.9367785
  19.5601144  23.8887094  24.0753677  18.2602959  22.9075281  25.4582901
  17.6521833  23.7959886  25.6284016  17.6255892  22.0219476  25.4898138
  19.3285462  22.8066414  26.5447480  19.7482084  23.8857250  27.0418027
  19.7147174  21.6514540  26.8672602  17.0036099  24.3269171  23.3212407
  16.8944547  25.2298785  22.4946899  16.3960330  24.3543491  24.5096526
  16.5162543  23.5877024  25.1561036  15.5552328  25.4628924  24.9143612
  15.5238029  26.2056640  24.1172395  14.5464633  25.1008733  25.1129234
  15.9620481  25.9172212  25.8177917  13.1307474  10.1434340  35.3509506
  13.8980459  10.2034465  34.9415358  12.6838783   9.5714782  34.8665825
  13.1780901  10.0670916  35.2187217  29.6592700  19.9885384  43.0195238
  29.6286704  20.8430020  43.1913507  30.2574049  19.6880676  43.5781381
  29.7429858  20.0701880  43.1270040  17.2433524  28.6123753  43.5385400
  16.4916424  28.2339291  43.3101445  17.6919536  28.6442186  42.7904210
  17.1983191  28.5609360  43.3942902  22.6958484  29.0349122  38.9670947
  22.3609853  29.7126044  38.5315169  23.2085355  28.6454433  38.3787818
  22.7224065  29.0773700  38.8157738  27.4809274  22.5637686  41.2913547
  27.3648800  23.3145372  41.7205686  28.2765161  22.3061639  41.5409634
  27.5813864  22.6372533  41.3917639  19.3639600  26.5531709  42.5782890
  19.6855441  27.0936916  41.9744198  20.0111696  25.9828480  42.7105180
  19.5065655  26.5490884  42.5089925  21.4141308  18.5547704  42.6617277
  22.1121473  18.7335831  43.1538740  21.7293641  18.0318043  42.0387666
  21.5636645  18.5041476  42.6419287  21.6029243  24.9418149  42.6497068
  22.0422879  24.3335249  43.0951841  21.4533906  24.5625522  41.8782533
  21.6450709  24.7956620  42.6016235  25.2038580  23.2945330  39.6027837
  25.1189875  24.1506297  39.7477406  25.6922963  23.0189654  40.2709996
  25.2627477  23.3802651  39.7229919  26.1357013  19.9130124  41.1025572
  25.6068485  20.1289758  41.7622879  26.6582033  20.6066263  41.0226542
  26.1345466  20.0473261  41.1881172  18.0256621  23.8093341  39.9033040
  17.4413836  24.3143372  40.3098904  17.6226716  23.5835728  39.1629632
  17.8795925  23.8501589  39.8538066  22.4833835  20.0558993  38.3801961
  22.7229839  20.2636977  37.5677304  22.8049676  19.2516502  38.4890906
  22.5670993  19.9673094  38.2762514  16.1481190  14.3922708  38.9239612
  15.9656764  14.6094589  38.0980605  17.0106803  14.5061720  38.9798226
  16.2485780  14.4412606  38.8094099  15.6943217  17.6696880  37.4362085
  14.9801394  17.3835060  37.8484517  16.1787186  18.0093506  38.0768472
  15.6602581  17.6778530  37.5917720  22.8690535  26.1726834  37.8123893
  23.2841684  25.8411858  37.1208389  22.0382465  25.9395737  37.6844030
  22.8078544  26.0898090  37.6914741  25.3100904  20.5788654  43.7648143
  25.4047758  21.3177948  44.2187768  24.6859748  20.1506129  44.1982707
  25.2309934  20.6249975  43.8956290  25.5623925  22.4237394  36.9985095
  25.4804088  22.4939581  37.8640082  26.2003646  22.9867138  36.8068835
  25.6443763  22.5176365  37.0975044  31.2048366  17.9734248  44.5864724
  30.9484931  17.1614190  44.3962607  32.0477680  17.9811815  44.3594911
  31.2914392  17.8546246  44.5249541  22.6664036  22.4457848  40.0093701
  23.4804674  22.7372741  39.8976472  22.6023177  21.7917710  39.4351994
  22.7766775  22.3923043  39.9082538  19.1774759  21.1381655  39.4740903
  19.5619912  20.9189362  40.2257448  18.9286379  21.9644601  39.6041979
  19.1976831  21.2279801  39.6041979  14.6799173  26.7409651  43.8454243
  13.8537290  26.9871388  43.7188522  14.7411164  26.6621732  44.7116301
  14.5673339  26.7654600  43.9543187  19.4598002  29.3586531  41.5473273
  19.7496300  28.9675512  40.8232499  20.1901482  29.5403236  41.9878548
  19.6104886  29.3280345  41.5056080  16.5153138  25.0622481  42.8031489
  17.2699106  25.4435520  43.0166952  15.9223750  25.5133625  43.2578186
  16.5389851  25.1851309  42.9014368  19.2617690  23.2635062  43.5753096
  19.0660473  23.8709796  42.9813399  19.4852035  22.5703006  43.0944770
  19.2652331  23.2512587  43.4169176  17.6596220  20.1489799  43.6933964
  18.3818872  20.3130958  43.2337770  17.1804213  20.8699464  43.5873304
  17.6959951  20.2788029  43.6099578  23.3673067  19.0132332  44.9817450
  23.1207782  18.9328083  45.8154239  23.6958190  18.2285800  44.7879978
  23.3794311  18.8858597  45.0764973  28.7574489  25.0793945  39.5320731
  28.3781298  24.2931083  39.5250020  28.0940734  25.6280802  39.3892375
  28.6032964  25.0438769  39.5101528  24.1040058  25.6619648  35.3509506
  24.8713043  25.7219773  34.9415358  23.6571367  25.0900089  34.8665825
  24.1513485  25.5856224  35.2187217  27.0034588  27.3239436  39.8672417
  27.0854425  28.1306422  39.5433867  27.4884330  27.3435395  40.5913190
  27.0871746  27.4460099  39.9259315  16.1013536  22.4976324  43.9670467
  16.2578155  22.4323126  44.8226459  16.4414129  23.2724876  43.7549147
  16.1746771  22.6025522  44.0625061  22.6392681  21.8734207  42.8363830
  23.1808226  21.3704588  43.3002451  22.9539240  21.8199402  42.0253315
  22.7657078  21.7913628  42.7847642  20.8079130  27.2651559  40.1203858
  20.8771951  26.4066097  40.2596859  21.5867586  27.4823440  39.7922883
  20.9331981  27.1704423  40.0921016  20.1514658  21.9338414  36.8146617
  20.4407183  22.7103297  37.0890191  20.2386457  21.4227146  37.5161116
  20.2068914  21.9730333  36.9589114  19.1861361  16.4853598  42.7289028
  19.4621095  15.7672510  42.3166595  19.7860030  17.0838518  42.5210134
  19.3154626  16.4673969  42.6369789  22.6871882  14.1567115  41.0035623
  23.1415628  14.3277676  41.7283468  23.1611927  13.5435226  40.6033399
  22.8240202  14.0918000  41.0509385  20.0284902  20.8609650  42.1080630
  20.7726947  21.2483926  42.3463580  20.1745598  20.0167075  42.2721118
  20.1595487  20.7940122  42.1674600  24.9446277  17.3271677  41.0700303
  24.4169296  17.4100421  40.3806012  25.4041985  18.0689549  41.0664948
  24.9348128  17.4492340  40.9674999  16.9379342  15.5974197  36.0941199
  16.5892147  16.2493922  36.5572748  16.4575788  15.5831310  35.3665070
  16.8149586  15.6917251  36.0552290  24.4983360  25.8975241  40.2009960
  25.2217559  26.3633354  40.0574534  24.0583951  25.9648851  39.4507557
  24.5399052  25.9759078  40.0694742  17.3103251  18.2232727  41.6067243
  17.4506212  18.7205192  42.3095884  17.8085784  17.5219022  41.7481457
  17.4044332  18.1934706  41.7318822  17.3403473  19.0899838  38.9359820
  17.9748553  19.6860264  38.8709282  17.4229084  18.7903296  39.7505690
  17.4460024  19.1340747  39.0462906  18.9182456  15.0213814  38.9105262
  19.2398297  14.5416896  38.2564524  19.1809400  15.8313460  38.7196074
  19.0048482  15.0703712  38.7860754  13.8456461  21.2867679  42.2049366
  14.3548691  21.8832187  42.5860671  14.3190734  21.0193653  41.5225786
  13.9899837  21.3353495  42.1603889  24.7587209  29.9595946  40.3608021
  24.0416519  29.7856808  39.8955259  25.4093947  29.7248518  39.8283507
  24.7489060  29.8991738  40.2137239  27.3435181  18.8360534  44.1049327
  26.6726370  19.3790237  43.9762392  28.0374931  19.3055390  43.8631021
  27.3464048  18.9858806  44.0504854  21.9793567  16.9621938  40.4095926
  21.3858407  17.2838934  39.8580493  22.0168845  16.1163033  40.2017032
  21.8967956  16.8846266  40.2978697  24.8551384  16.9201442  43.8397676
  24.6265077  16.9434144  42.9976034  25.1149460  16.0958909  43.9592687
  24.8597572  16.8017522  43.7322874  19.9522800  17.6019188  38.5025256
  20.3321764  17.6198817  37.7176370  19.2115396  18.0473177  38.3816103
  19.8991637  17.6700963  38.3688824  27.5808090  15.9101379  44.0900834
  27.5802317  15.7550036  44.9485111  27.3764270  16.7564367  44.0342220
  27.5507868  16.0122000  44.2088774  20.7507554  24.4396695  39.8934046
  19.9418876  24.1163368  39.8467355  21.2582463  23.7329917  39.8262294
  20.7057220  24.2878011  39.8764340  19.9441970  13.8280716  41.1852887
  20.7657665  13.9979029  40.9434582  19.4811621  13.9827977  40.4619185
  19.9973133  13.8762449  41.0424531  27.1213774  29.9108016  38.9239612
  26.9389347  30.1279896  38.0980605  27.9839387  30.0247028  38.9798226
  27.2218363  29.9597914  38.8094099  27.9111926  31.1159505  36.0941199
  27.5624730  31.7679230  36.5572748  27.4308372  31.1016618  35.3665070
  27.7882170  31.2102559  36.0552290  16.9384348   5.5501884  30.4725446
  16.1867248   5.1717422  30.2441491  17.3870360   5.5820317  29.7244257
  16.8934015   5.4987491  30.3282949  22.3909308   5.9727253  25.9010993
  22.0560677   6.6504175  25.4655216  22.9036179   5.5832564  25.3127865
  22.4174889   6.0151831  25.7497785  21.9313600   7.9241522  31.8422105
  22.3152979   8.4928421  31.3026880  21.8672741   7.1991032  31.3627921
  21.9787027   7.9016985  31.6915968  18.5169105   5.5620276  32.7388219
  18.6179468   4.7520630  33.0485347  17.9210850   5.4677222  32.1087897
  18.4441643   5.4285304  32.6914457  18.3569844  10.4797865  34.1403075
  19.0007300  10.9211029  34.5299233  18.6826100   9.6751291  34.0533334
  18.5001673  10.4263060  34.1848552  19.0590424   3.4909840  29.5122937
  19.3806265   4.0315047  28.9084245  19.7062520   2.9206611  29.6445226
  19.2016479   3.4869015  29.4429972  21.2980067   1.8796280  29.5837115
  21.7373703   1.2713380  30.0291888  21.1484730   1.5003653  28.8122580
  21.3401533   1.7334751  29.5356282  21.3037802   3.3195198  36.4362833
  21.5861045   2.5246603  36.2149589  22.0323962   3.7975785  36.4567894
  21.4527365   3.2729794  36.4065848  17.7207445   0.7471472  26.8373087
  17.1364660   1.2521503  27.2438951  17.3177540   0.5213859  26.0969679
  17.5746749   0.7879720  26.7878112  13.2751474   6.4626233  33.6396759
  12.7919052   7.1876723  33.6156342  14.0874792   6.7602363  33.7506916
  13.3242221   6.6128587  33.6524038  19.3465628   5.2558414  36.2446573
  18.8292569   4.8965829  35.6407881  20.0440019   4.7320588  36.2552639
  19.3731209   5.1256102  36.1576832  16.1295671   6.9782409  33.7917039
  16.8316250   6.4634398  33.8489795  16.0493154   7.3056560  34.5963914
  16.2219431   6.9496635  33.9189831  15.4546446   3.1688761  33.3002647
  16.2935346   3.4011694  33.3476408  15.4858215   2.2993073  33.2309682
  15.5828164   3.0745708  33.2967291  28.5420205   3.0953914  33.5463379
  28.1055437   3.0990657  34.3022351  28.2083121   3.7759413  33.1142957
  28.4282825   3.1966370  33.5944212  23.2719672   7.0472349  38.5172985
  22.4734918   6.8071849  38.7746854  23.7205684   7.0986742  39.2640033
  23.2194283   7.0194740  38.6657910  22.5641359   3.1104965  24.7463940
  22.9792508   2.7789989  24.0548436  21.7333289   2.8773868  24.6184077
  22.5029368   3.0276221  24.6254787  18.2322768   2.8557497  32.0706060
  18.8696715   2.6169244  32.6157853  18.6577839   3.0594656  31.3359221
  18.3898934   2.8508507  32.0423217  20.6144240   3.3329919  33.7499846
  20.6883248   3.1705091  34.6041696  21.4313746   3.5220109  33.5060328
  20.7460598   3.3366662  33.8397872  14.3749996   3.6787782  30.7794290
  13.5488114   3.9249519  30.6528568  14.4361988   3.5999863  31.6456348
  14.2624163   3.7032731  30.8883234  19.1548825   6.2964662  28.4813320
  19.4447124   5.9053644  27.7572546  19.8852306   6.4781367  28.9218595
  19.3055710   6.2658476  28.4396127  17.0954741   8.2732045  31.5473469
  16.8755036   7.9829399  32.3400136  16.8749263   7.6147000  31.0191382
  17.0302335   8.1331753  31.5862378  19.2622697   9.6461435  30.3304162
  19.9146755   9.1137877  30.5595188  18.5648305   9.2930087  30.7172036
  19.2553415   9.5150958  30.4216329  16.2103962   2.0000612  29.7371536
  16.9649930   2.3813651  29.9506999  15.6174574   2.4511756  30.1918233
  16.2340675   2.1229440  29.8354414  27.2562615   1.9665849  29.6735141
  27.8220648   2.6259059  29.5893684  26.6090519   2.3115547  30.1451543
  27.2441372   2.1147790  29.7307897  23.7269193   4.9104633  29.0972220
  23.4855869   4.1772494  28.6899285  23.9070526   5.4591490  28.4438554
  23.7176817   4.8827024  28.9402443  18.9568514   0.2013193  30.5093142
  18.7611296   0.8087927  29.9153445  19.1802859  -0.4918863  30.0284816
  18.9603155   0.1890718  30.3509223  26.9571940   2.6593823  35.7044278
  26.8186299   3.3574868  36.2093021  26.1771938   2.5042479  35.3480460
  26.8215167   2.7393989  35.7270552  21.2772221   5.5685595  30.3049604
  22.0422112   5.2995239  29.9832268  21.1750311   5.0835606  31.0219667
  21.3753717   5.4575160  30.3629431  23.7990882   2.5997779  22.2849553
  24.5663867   2.6597904  21.8755405  23.3522191   2.0278221  21.8005872
  23.8464309   2.5234355  22.1527263  24.6968677   1.4052435  34.5702285
  24.0213679   1.1737667  35.0715672  24.7061053   0.7973618  33.9444390
  24.5987182   1.2811360  34.5518438  26.6985412   4.2617567  26.8012463
  26.7805249   5.0684554  26.4773914  27.1835154   4.2813527  27.5253237
  26.7822570   4.3838230  26.8599362  20.0093609  10.4552916  37.9303999
  20.4989539   9.7563706  37.7479663  19.4377841  10.1576786  38.5180056
  19.9978138  10.3079140  37.9905039  15.7964360  -0.5645545  30.9010514
  15.9528979  -0.6298742  31.7566506  16.1364953   0.2103007  30.6889193
  15.8697595  -0.4596347  30.9965108  20.5029954   4.2029690  27.0543905
  20.5722775   3.3444228  27.1936905  21.2818410   4.4201571  26.7262930
  20.6282804   4.1082554  27.0261062  24.8937442   6.6267391  31.2680398
  24.5017234   6.3234106  30.5503265  25.0490514   7.4636481  31.0785352
  24.8591032   6.7051228  31.1336895  25.0577117   3.1917380  31.2086429
  24.6991771   3.3632023  31.9850461  24.5715828   3.6530586  30.6514427
  24.9335814   3.2856351  31.2411698  26.2736113   4.7741084  38.7958987
  27.0628491   4.4230149  38.9161068  26.4479711   5.5877473  38.5335620
  26.4156394   4.8426941  38.7746855  25.6627747   6.0302884  34.7010433
  25.4647436   6.5193698  34.0066644  25.0415458   6.2344125  35.2794566
  25.5415312   6.1319422  34.6833656  24.1934184   2.8353372  27.1350007
  24.9168382   3.3011485  26.9914580  23.7534775   2.9026982  26.3847604
  24.2349876   2.9137209  27.0034789  13.5407285  -1.7754190  29.1389413
  14.0499515  -1.1789682  29.5200718  14.0141557  -2.0428216  28.4565832
  13.6850661  -1.7268374  29.0943935  24.4538033   6.8974077  27.2948068
  23.7367343   6.7234939  26.8295306  25.1044771   6.6626649  26.7623554
  24.4439884   6.8369870  27.1477286  21.0872738   7.9135378  36.2701132
  20.8638393   7.1554207  36.6385158  20.5982582   7.9433399  35.5481571
  20.9816187   7.8057602  36.2177873  19.7351195   8.1335836  33.7238216
  19.3211594   7.4709966  33.3342058  20.4198569   8.2813695  33.2033910
  19.7749567   8.0576494  33.5894713  23.1016489   7.2925921  34.4761833
  22.7032773   7.4028191  33.7082653  22.4867709   7.5007987  35.0588393
  22.9515379   7.3399489  34.4493132  20.4458378   1.3774826  26.8274092
  19.6369700   1.0541499  26.7807402  20.9533287   0.6708048  26.7602341
  20.4008044   1.2256142  26.8104387  16.7005665   8.5744917  36.1251562
  17.0152224   9.3881306  36.1329344  17.1099078   8.1895136  36.7933721
  16.8073763   8.6373620  36.2255654  23.6530184   3.9914964  33.6955374
  24.1241363   4.7055227  33.8645359  23.9890363   3.3913714  34.2315244
  23.7725299   4.0086428  33.7987750  23.8562457   4.7883971  36.9892408
  24.6760831   4.6446937  37.2508703  23.5756535   5.4130170  37.5308846
  23.9359200   4.8594323  37.1080347  40.3276107  12.4448823  29.9535284
  40.2970112  13.2993459  30.1253554  40.9257456  12.1444115  30.5121428
  40.4113265  12.5265319  30.0610087  33.5275792  11.5324474  34.7088215
  32.6713688  11.6932972  34.7597332  33.5743446  10.6616538  34.7293276
  33.4074904  11.4275276  34.7194281  27.9116932  21.0687192  30.4725446
  27.1599832  20.6902730  30.2441491  28.3602944  21.1005625  29.7244257
  27.8666599  21.0172799  30.3282949  33.3641892  21.4912561  25.9010993
  33.0293260  22.1689483  25.4655216  33.8768762  21.1017872  25.3127865
  33.3907473  21.5337139  25.7497785  32.9046183  23.4426830  31.8422105
  33.2885562  24.0113728  31.3026880  32.8405324  22.7176340  31.3627921
  32.9519610  23.4202293  31.6915968  36.3727613  13.5916518  37.3519866
  36.9183573  14.2701604  37.4113836  36.3144490  13.4503979  36.4921448
  36.4443528  13.6708519  37.2331927  29.4901688  21.0805584  32.7388219
  29.5912051  20.2705938  33.0485347  28.8943433  20.9862530  32.1087897
  29.4174227  20.9470612  32.6914457  38.1492682  15.0201125  28.2253594
  38.0332208  15.7708811  28.6545732  38.9448569  14.7625078  28.4749681
  38.2497271  15.0935972  28.3257686  29.3302428  25.9983173  34.1403075
  29.9739883  26.4396337  34.5299233  29.6558683  25.1936599  34.0533334
  29.4734256  25.9448368  34.1848552  22.6866732  17.1025870  32.3640553
  22.4516917  16.2693523  32.2572821  22.8252373  17.3830536  31.5501754
  22.6722395  17.0209374  32.2282908  24.9856820   9.2711601  35.2624860
  24.3661852   8.6804248  35.0934875  24.8840683   9.8623036  34.6289183
  24.8794495   9.2715683  35.1429850  30.0323007  19.0095148  29.5122937
  30.3538849  19.5500355  28.9084245  30.6795104  18.4391919  29.6445226
  30.1749063  19.0054323  29.4429972  32.0824716  11.0111143  29.5957323
  32.7804880  11.1899270  30.0878787  32.3977048  10.4881482  28.9727713
  32.2320053  10.9604915  29.5759334  24.7125953  12.8163883  37.5068429
  24.5884650  13.4026328  38.1418248  25.3644237  12.3224078  37.8080704
  24.7899602  12.8302687  37.6454359  32.2712651  17.3981588  29.5837115
  32.7106286  16.7898688  30.0291888  32.1217314  17.0188961  28.8122580
  32.3134117  17.2520059  29.5356282  29.7384294  15.9925600  36.7855940
  30.3833296  15.4998043  36.4666889  29.9786071  16.1350386  37.6122019
  29.8694879  15.9403042  36.8605474  32.2770385  18.8380505  36.4362833
  32.5593628  18.0431911  36.2149589  33.0056546  19.3161093  36.4567894
  32.4259949  18.7915102  36.4065848  30.2551579   6.3803539  33.6778598
  29.9254909   6.8314683  33.0082297  29.5796581   6.3019703  34.2251604
  30.1062015   6.4354675  33.6601821  35.8721987  15.7508769  26.5367884
  35.7873283  16.6069736  26.6817453  36.3606371  15.4753093  27.2050043
  35.9310885  15.8366090  26.6569966  36.8040421  12.3693563  28.0365619
  36.2751892  12.5853197  28.6962925  37.3265441  13.0629702  27.9566589
  36.8028874  12.5036700  28.1221218  28.6940029  16.2656780  26.8373087
  28.1097244  16.7706811  27.2438951  28.2910124  16.0399167  26.0969679
  28.5479332  16.3065028  26.7878112  24.2484057  21.9811541  33.6396759
  23.7651635  22.7062031  33.6156342  25.0607375  22.2787671  33.7506916
  24.2974805  22.1313895  33.6524038  30.3198211  20.7743722  36.2446573
  29.8025153  20.4151137  35.6407881  31.0172602  20.2505896  36.2552639
  30.3463792  20.6441410  36.1576832  31.5432263  20.5069696  41.1880408
  30.9803098  20.0942306  41.7120070  32.3053286  20.4322602  41.6073552
  31.5726712  20.4347096  41.3273409  33.1517243  12.5122432  25.3142008
  33.3913247  12.7200416  24.5017351  33.4733084  11.7079941  25.4230952
  33.2354401  12.4236533  25.2102561  28.4607533   4.4415828  29.1601546
  29.2153501   4.8094145  28.9218596  28.2835068   4.8155382  29.9280725
  28.5462012   4.5514016  29.2386434  27.1028254  22.4967717  33.7917039
  27.8048834  21.9819706  33.8489795  27.0225737  22.8241868  34.5963914
  27.1952015  22.4681943  33.9189831  28.1507161  12.7343304  42.9197454
  28.3227665  12.6249199  43.7682735  28.6876518  13.3797709  42.6828646
  28.2552165  12.8135306  43.0102550  26.8164598   6.8486147  25.8579659
  26.6340171   7.0658028  25.0320651  27.6790211   6.9625160  25.9138273
  26.9169187   6.8976045  25.7434146  26.4279030  18.6874069  33.3002647
  27.2667929  18.9197002  33.3476408  26.4590799  17.8178380  33.2309682
  26.5560747  18.5931015  33.2967291  27.0531733  19.1074944  37.6015952
  27.5929958  18.9646075  38.2719324  26.3701679  19.5071695  37.9699978
  27.0323887  19.1454615  37.7550374  32.4964317   3.8512558  28.8928683
  33.2250477   3.6728512  28.4466839  32.5859210   4.6930637  29.1035861
  32.6170979   3.9496436  28.8582200  36.4772618  14.7865945  32.7960976
  37.2330133  15.2197459  32.8349885  36.5834942  14.1370715  33.3695613
  36.6042788  14.7543429  32.8859002  39.5152789  18.6139222  33.5463379
  39.0788021  18.6175965  34.3022351  39.1815704  19.2944721  33.1142957
  39.4015409  18.7151678  33.5944212  22.4568878  15.3275235  37.7550374
  22.1907293  14.5114352  37.9141364  22.4707442  15.3728391  36.8845889
  22.4193600  15.2132140  37.6503856  26.3626625  10.1260319  24.3702132
  25.6484802   9.8398499  24.7824564  26.8470594  10.4656945  25.0108519
  26.3285988  10.1341969  24.5257767  27.2067484   8.8653613  40.4017381
  26.5139281   8.3950593  40.6478113  27.8227812   8.6391918  40.9759089
  27.1952014   8.7620745  40.5226534  34.2452256  22.5657657  38.5172985
  33.4467502  22.3257157  38.7746854  34.6938267  22.6172050  39.2640033
  34.1926867  22.5380048  38.6657910  33.5373943  18.6290273  24.7463940
  33.9525091  18.2975297  24.0548436  32.7065872  18.3959176  24.6184077
  33.4761952  18.5461529  24.6254787  22.8662292  16.1134014  35.0362118
  22.6837865  16.0880900  34.1834410  23.6011960  16.5832952  35.0751027
  22.9476355  16.1795377  34.9160036  38.9361966  16.3485524  32.1795005
  39.1717555  16.4930723  31.3521856  39.0851529  17.1127932  32.5726519
  38.9927769  16.4824579  32.1158609  25.9308043  12.8319017  41.5444227
  26.6548016  12.8172048  42.0309121  26.0324180  13.5414373  41.0466195
  26.0526252  12.9343721  41.5423013  40.7652422  15.1887190  30.0164609
  41.0960640  15.7214830  29.4104704  41.3385511  15.2426078  30.6726560
  40.8986102  15.2756759  30.0242391  35.9784312  13.0352093  30.6988189
  36.0731166  13.7741387  31.1527815  35.3543155  12.6069569  31.1322754
  35.8993342  13.0813414  30.8296337  22.8333202  12.9927515  35.1861185
  23.4106705  12.8563966  35.8253430  22.1347264  12.5363299  35.4406769
  22.8154223  12.9049781  35.3183474  36.2307333  14.8800833  23.9325141
  36.1487495  14.9503020  24.7980128  36.8687053  15.4430577  23.7408882
  36.3127170  14.9739804  24.0315091  29.5900504  14.6461571  33.3999668
  29.3319748  13.8133306  33.3730967  29.6448987  14.8719184  32.5592168
  29.5600282  14.5559342  33.2719804  34.6701554   6.7490021  33.5003760
  33.9657881   6.2599207  33.6587680  34.7186529   6.7612496  32.6292205
  34.5731606   6.6779669  33.3943100  28.5635216  12.1999333  33.8864562
  27.9884807  12.3591502  34.5228523  28.1870893  11.5634742  33.4233013
  28.4238029  12.1297146  33.9119121  32.2308505  10.6722683  38.7456941
  31.8422938  10.2476900  38.0909132  31.5663203  10.9204832  39.2533968
  32.0755433  10.6461404  38.7244809  18.3092035  11.8439408  31.9009003
  18.3952287  11.4671276  32.6822533  18.9367833  11.4699854  31.4228961
  18.4148586  11.7324890  31.9454480  33.3347443  14.9021287  26.9433748
  34.1488082  15.1936180  26.8316519  33.2706584  14.2481149  26.3692041
  33.4450182  14.8486482  26.8422585  29.2055351  18.3742805  32.0706060
  29.8429298  18.1354552  32.6157853  29.6310423  18.5779963  31.3359221
  29.3631518  18.3693815  32.0423217  23.8967994  20.6131141  35.9540364
  23.9372139  20.8845992  35.1260143  24.4562518  21.1373049  36.3698152
  23.9851340  20.7306896  35.8932252  29.8458166  13.5945094  26.4080949
  30.2303319  13.3752801  27.1597494  29.5969787  14.4208040  26.5382026
  29.8660239  13.6843241  26.5382026  31.5876823  18.8515227  33.7499846
  31.6615832  18.6890399  34.6041696  32.4046330  19.0405417  33.5060328
  31.7193182  18.8551970  33.8397872  25.3482580  19.1973090  30.7794290
  24.5220698  19.4434827  30.6528568  25.4094571  19.1185171  31.6456348
  25.2356747  19.2218039  30.8883234  27.5658604   5.2642031  31.7389730
  26.6981029   5.3364631  31.8047339  27.8533808   6.0664110  31.9277705
  27.4798352   5.3936178  31.7764496  30.1281409  21.8149970  28.4813320
  30.4179707  21.4238952  27.7572546  30.8584890  21.9966675  28.9218595
  30.2788293  21.7843784  28.4396127  30.7176154  16.6167716  39.5666450
  30.2187848  17.3283484  39.6451339  31.5276379  16.9368383  39.5284612
  30.7632261  16.7694565  39.5723019  28.0687325  23.7917353  31.5473469
  27.8487620  23.5014707  32.3400136  27.8481847  23.1332308  31.0191382
  28.0034919  23.6517061  31.5862378  26.9804272  15.8790669  33.8129171
  26.6917520  15.2528140  34.3474898  27.8487620  15.8210957  33.8793851
  27.0664524  15.7778213  33.9020126  37.7682170  11.0225453  34.1311153
  37.4246935  10.3015788  34.4818403  37.8675212  10.8139304  33.2889511
  37.7324212  10.8849656  34.0582833  30.2355280  25.1646743  30.3304162
  30.8879338  24.6323185  30.5595188  29.5380889  24.8115395  30.7172036
  30.2285998  25.0336266  30.4216329  27.1836545  17.5185920  29.7371536
  27.9382513  17.8998959  29.9506999  26.5907158  17.9697064  30.1918233
  27.2073259  17.6414748  29.8354414  38.2295199  17.4851157  29.6735141
  38.7953231  18.1444367  29.5893684  37.5823102  17.8300855  30.1451543
  38.2173955  17.6333098  29.7307897  28.5034772  18.6894482  35.1111651
  27.9815525  18.8294773  35.7963516  28.8908792  17.9305146  35.3013769
  28.4838473  18.5980005  35.2412728  25.4925956   8.7400290  29.1806606
  25.2050752   8.3701561  28.4438553  26.1796424   9.2095146  28.9190311
  25.5514853   8.7547260  29.0321682  34.7001777  20.4289941  29.0972220
  34.4588453  19.6957802  28.6899285  34.8803110  20.9776798  28.4438554
  34.6909401  20.4012332  28.9402443  29.9301097  15.7198501  30.5093142
  29.7343880  16.3273235  29.9153445  30.1535443  15.0266445  30.0284816
  29.9335738  15.7076026  30.3509223  28.3279627  12.6053239  30.6274011
  29.0502279  12.7694397  30.1677817  27.8487620  13.3262903  30.5213351
  28.3643358  12.7351468  30.5439625  25.9787244  15.0111311  39.7328151
  26.4908341  15.2895564  39.0836910  25.6923587  15.7500605  40.0990964
  26.0122107  15.1613665  39.6918029  34.7342413   5.8402414  30.7398312
  35.4368766   5.6410163  30.2618270  34.4686602   5.0678357  31.0467155
  34.7989046   5.6965380  30.7143753  40.1630659  14.1485024  33.2931938
  40.0764633  14.3040450  34.1466716  39.7081139  14.7923100  32.9191343
  40.0833915  14.2660779  33.3639044  23.0654150   9.5181503  30.0291887
  23.1670287  10.3207664  30.3572863  23.8610037   9.3168839  29.7314968
  23.1982056   9.6067402  30.0327243  23.8817883   9.6328681  37.7713009
  23.7403374   8.7812622  37.8957517  24.1658446   9.6757342  36.9475215
  23.9025729   9.5128431  37.6680633  34.0356475  11.4695771  31.9157497
  33.7891189  11.3891522  32.7494286  34.3641598  10.6849239  31.7220025
  34.0477718  11.3422037  32.0105020  37.9304524  18.1779131  35.7044278
  37.7918883  18.8760176  36.2093021  37.1504522  18.0227787  35.3480460
  37.7947751  18.2579297  35.7270552  29.9953502  14.2052490  41.3280480
  30.1396878  14.7853698  40.6923590  30.3429151  14.5828787  42.0330335
  30.0680964  14.3473194  41.3379475  32.1673420  13.4042658  39.1105612
  31.4196734  13.5973673  38.7053890  32.3214945  12.5787878  38.8729733
  32.0795847  13.3107770  39.0151018  29.0681257  22.3955262  38.1941507
  29.2170821  21.8358177  37.5414911  29.8481259  22.4747263  38.5774026
  29.2055351  22.3240827  38.1538456  39.4257897  17.5357384  26.4660778
  39.0464705  16.7494522  26.4590067  38.7624142  18.0844241  26.3232422
  39.2716371  17.5002208  26.4441574  31.5934558  22.5669904  39.4725998
  31.5178229  21.8978715  40.0276786  31.5224417  23.2687693  39.9866664
  31.5715165  22.5714812  39.6302846  32.2504805  21.0870903  30.3049604
  33.0154696  20.8180547  29.9832268  32.1482895  20.6020914  31.0219667
  32.3486300  20.9760468  30.3629431  30.2857574   9.2895313  36.8442839
  29.4953649   9.1086773  37.1660175  30.6818197   8.5122265  36.8273134
  30.2274451   9.1482774  36.8895388  34.7723465  18.1183087  22.2849553
  35.5396450  18.1783212  21.8755405  34.3254774  17.5463529  21.8005872
  34.8196893  18.0419663  22.1527263  35.6701261  16.9237743  34.5702285
  34.9946263  16.6922975  35.0715672  35.6793637  16.3158926  33.9444390
  35.5719765  16.7996668  34.5518438  37.6717995  19.7802875  26.8012463
  37.7537833  20.5869862  26.4773914  38.1567738  19.7998835  27.5253237
  37.7555153  19.9023538  26.8599362  31.4814499  14.4587711  35.4682541
  31.0576748  14.6592210  34.7321560  31.3059354  13.6116559  35.5806841
  31.3925379  14.3636493  35.3756231  30.9826192  25.9738224  37.9303999
  31.4722122  25.2749013  37.7479663  30.4110424  25.6762094  38.5180056
  30.9710722  25.8264448  37.9905039  26.7696944  14.9539763  30.9010514
  26.9261563  14.8886566  31.7566506  27.1097537  15.7288315  30.6889193
  26.8430178  15.0588961  30.9965108  33.3076088  14.3297646  29.7703877
  33.8491634  13.8268027  30.2342498  33.6222647  14.2762841  28.9593362
  33.4340485  14.2477067  29.7187689  31.4762538  19.7214998  27.0543905
  31.5455358  18.8629536  27.1936905  32.2550993  19.9386879  26.7262930
  31.6015388  19.6267862  27.0261062  35.8670026  22.1452699  31.2680398
  35.4749817  21.8419414  30.5503265  36.0223098  22.9821789  31.0785352
  35.8323615  22.2236536  31.1336895  23.3431205  12.1374713  31.2171281
  23.7230170  12.5559258  30.5531548  22.7686570  12.7188169  31.5240124
  23.3142530  12.2852572  31.1648022  36.0309700  18.7102688  31.2086429
  35.6724355  18.8817331  31.9850461  35.5448411  19.1715894  30.6514427
  35.9068397  18.8041659  31.2411698  30.8198066  14.3901853  23.7486663
  31.1090591  15.1666736  24.0230238  30.9069865  13.8790585  24.4501163
  30.8752322  14.4293772  23.8929161  30.8729227   4.3440115  36.2686991
  30.3567715   3.6520306  36.3938570  30.3123156   5.0110892  36.2149589
  30.7135740   4.3403373  36.2793057  37.2468696  20.2926392  38.7958987
  38.0361074  19.9415457  38.9161068  37.4212294  21.1062781  38.5335620
  37.3888978  20.3612249  38.7746855  26.9862007  13.7035118  35.8486775
  26.1450013  13.6038992  36.0565669  27.1952015  14.4730598  36.2001096
  26.8926699  13.8027161  35.9314090  24.4637574  11.3254655  33.6771526
  24.0694271  11.3997667  32.9021636  23.9077690  11.7112601  34.2279888
  24.3240386  11.3936429  33.6439186  30.7978672  11.6316517  35.0984373
  30.4941809  11.0772505  35.6994781  30.0958092  11.8108727  34.6112407
  30.6494881  11.5761299  35.1154079  29.8544769   8.9417037  29.6629075
  30.1304503   8.2235949  29.2506642  30.4543438   9.5401957  29.4550181
  29.9838033   8.9237408  29.5709836  28.8597023  18.8466238  39.8056471
  28.7517377  18.8568300  40.6718529  29.0692804  19.6721018  39.6161424
  28.8747134  18.9707313  39.9060562  33.3555289   6.6130554  27.9375670
  33.8099036   6.7841115  28.6623514  33.8295335   5.9998665  27.5373445
  33.4923609   6.5481440  27.9849431  26.8770815  16.0978880  37.2678408
  26.2858748  16.7388378  37.2381423  27.6391838  16.5216497  37.2409708
  26.9019075  16.2554719  37.2593555  27.2731437   7.2580878  37.9346426
  27.7332919   7.3319807  38.6721550  27.3187544   8.0562132  37.5846247
  27.3481993   7.3875025  37.9919182  36.6360331  21.5488192  34.7010433
  36.4380019  22.0379006  34.0066644  36.0148042  21.7529433  35.2794566
  36.5147895  21.6504730  34.6833656  30.6968309  13.3173089  29.0420677
  31.4410354  13.7047365  29.2803627  30.8429005  12.4730514  29.2061165
  30.8278894  13.2503561  29.1014647  32.6147885   5.1123348  34.0752538
  31.7683930   5.2846155  33.9493888  32.6119017   4.3072691  34.4118367
  32.4895035   5.0184376  34.1063665  33.6846185   8.8898562  34.9414596
  33.2106139   8.3640324  35.4519907  34.0564321   8.3428035  34.3729458
  33.6696074   8.7314559  34.9329744  24.0619215  10.8870069  40.3098142
  24.9244828  10.7865778  40.2235472  23.7310998  10.3064778  39.7483714
  24.1404412  10.7861695  40.2143548  35.6129685   9.7835117  28.0040350
  35.0852703   9.8663861  27.3146059  36.0725393  10.5252988  28.0004995
  35.6031535   9.9055779  27.9015045  27.4221001   9.7112518  36.9708560
  26.7974071   9.7230910  36.3634513  27.0866596  10.1872693  37.6199801
  27.2806493   9.7831035  36.9765129  27.6062750   8.0537636  23.0281245
  27.2575554   8.7057361  23.4912795  27.1259196   8.0394749  22.3005117
  27.4832994   8.1480690  22.9892337  24.1346677  17.7712978  38.4112325
  23.6046601  17.0805417  38.4607299  24.4071770  17.7623163  37.5825033
  24.0971399  17.6680110  38.2959741  35.1666767  18.3538680  27.1350007
  35.8900966  18.8196793  26.9914580  34.7267358  18.4212290  26.3847604
  35.2082459  18.4322517  27.0034789  34.3352922  15.2136222  38.3850696
  33.7209915  14.6694273  38.6799331  34.8520207  14.7000459  37.9056512
  34.3208585  15.0572631  38.3574925  33.5749219  16.2840492  36.1194995
  33.1476827  15.6590211  35.6860430  33.5674164  16.0015414  36.9454002
  33.5108361  16.1493273  36.1774822  26.6911746  11.3205665  39.1883429
  26.8505233  10.5648990  39.5935151  26.5104640  11.8696605  39.8424166
  26.6877105  11.2899479  39.3446135  31.9034929   7.1609247  36.3337529
  31.9277416   6.6269359  35.6450309  32.1546403   6.6526556  36.9963119
  31.9444848   7.0070151  36.3302173  19.4142519  14.4440742  35.7680673
  19.3085968  14.3987586  34.9032757  18.6642739  14.7894522  36.0494958
  19.2878122  14.4881650  35.6818003  28.1836251   5.8880065  35.7143273
  28.2234623   6.3889272  36.4277981  27.3585916   5.9790459  35.4449196
  28.0675777   5.9761881  35.7793811  29.6050615  12.4040575  38.0117172
  28.7742544  12.5714393  37.8052420  29.5502132  12.0276526  38.7966057
  29.4740030  12.3730306  38.0965700  27.9786659  10.6796167  28.5407290
  28.1189620  11.1768631  29.2435931  28.4769191   9.9782461  28.6821504
  28.0727739  10.6498145  28.6658869  28.0086881  11.5463278  25.8699867
  28.6431960  12.1423703  25.8049328  28.0912492  11.2466735  26.6845737
  28.1143432  11.5904186  25.9802953  29.5865864   7.4777253  25.8445309
  29.9081705   6.9980335  25.1904571  29.8492807   8.2876899  25.6536120
  29.6731889   7.5267151  25.7200801  32.8162837  18.4996127  39.3644125
  32.3087928  19.0531974  39.8084755  32.5189483  18.5604417  38.5462899
  32.6967721  18.5902439  39.3092581  24.5139869  13.7431118  29.1389413
  25.0232098  14.3395626  29.5200718  24.9874141  13.4757092  28.4565832
  24.6583244  13.7916934  29.0943935  35.4270617  22.4159385  27.2948068
  34.7099927  22.2420247  26.8295306  36.0777354  22.1811957  26.7623554
  35.4172467  22.3555178  27.1477286  38.0118588  11.2923974  31.0389373
  37.3409778  11.8353676  30.9102439  38.7058338  11.7618829  30.7971068
  38.0147456  11.4422245  30.9844901  32.0605322  23.4320686  36.2701132
  31.8370976  22.6739515  36.6385158  31.5715165  23.4618707  35.5481571
  31.9548771  23.3242910  36.2177873  26.8730401  10.3787377  32.0062593
  26.1542390  10.7951509  32.2735457  27.2442763  10.9441616  31.4554231
  26.8222332  10.5236658  31.9645400  30.7083779  23.6521144  33.7238216
  30.2944177  22.9895274  33.3342058  31.3931153  23.7999002  33.2033910
  30.7482150  23.5761802  33.5894713  34.0749073  22.8111229  34.4761833
  33.6765356  22.9213499  33.7082653  33.4600292  23.0193295  35.0588393
  33.9247962  22.8584797  34.4493132  32.6476975   9.4185377  27.3435973
  32.0541814   9.7402373  26.7920540  32.6852253   8.5726472  27.1357079
  32.5651364   9.3409705  27.2318744  35.5234791   9.3764881  30.7737723
  35.2948484   9.3997583  29.9316081  35.7832868   8.5522348  30.8932733
  35.5280980   9.2580961  30.6662921  29.8054020  11.2299354  40.3762823
  29.2932923  10.6220537  40.7347854  29.6333516  11.9455947  40.8436799
  29.7043657  11.2462654  40.4979047  28.5779554   7.9141428  32.0691918
  29.0536920   8.2758507  31.4342100  28.0768154   8.5697895  32.3492061
  28.5744913   8.0635616  32.0168659  21.5521799  12.5783795  38.2853675
  21.0048519  11.9084441  38.4034543  22.3414177  12.2113643  38.3497142
  21.5873983  12.4248782  38.3122375  30.6206207  10.0582627  25.4365302
  31.0005172  10.0762257  24.6516417  29.8798803  10.5036616  25.3156150
  30.5675045  10.1264402  25.3028871  38.2491498   8.3664819  31.0240881
  38.2485724   8.2113475  31.8825157  38.0447678   9.2127806  30.9682267
  38.2191276   8.4685439  31.1428821  20.3108769  11.7904603  35.4399698
  20.1330530  11.3381212  36.1654613  20.0227791  12.5930764  35.6238175
  20.2421722  11.8427161  35.5743201  35.9732350  13.0462320  34.6777088
  36.4686015  12.3285315  34.6381108  35.1632125  12.7433118  34.5631575
  35.9276243  12.8959967  34.6550814  31.4190961  16.8960134  26.8274092
  30.6102284  16.5726807  26.7807402  31.9265870  16.1893356  26.7602341
  31.3740628  16.7441450  26.8104387  22.0481238  14.3232327  32.5521457
  21.1826758  14.3118017  32.4404228  22.1480054  14.1362550  33.3992596
  21.9355405  14.2938388  32.6610401  38.0384169  15.7966008  37.3654217
  38.4639240  15.2740430  36.8124642  37.6741088  16.3946845  36.8442840
  38.0470771  15.8076235  37.2063226  27.6738248  24.0930225  36.1251562
  27.9884807  24.9066614  36.1329344  28.0831662  23.7080444  36.7933721
  27.7806346  24.1558928  36.2255654  34.6262768  19.5100272  33.6955374
  35.0973946  20.2240535  33.8645359  34.9622947  18.9099022  34.2315244
  34.7457883  19.5271736  33.7987750  35.2636714  19.3018206  40.4583067
  34.7157660  18.6776090  40.1903132  35.7249743  19.4912478  39.7427146
  35.2503924  19.2377256  40.3133498  30.6125378   6.2844156  28.1192934
  31.4341072   6.4542468  27.8774629  30.1495029   6.4391417  27.3959232
  30.6656540   6.3325889  27.9764578  25.0151269  18.0403334  35.7730171
  25.6196126  17.9999168  35.1443991  24.8078581  18.8874486  35.8034226
  25.0740166  18.1591336  35.6846287  34.8295041  20.3069279  36.9892408
  35.6493414  20.1632245  37.2508703  34.5489118  20.9315478  37.5308846
  34.9091784  20.3779631  37.1080347  20.2502551  17.0237951  35.6429094
  20.1526829  16.2134223  35.9519150  21.0331420  17.0029745  35.2575362
  20.3518687  16.9005042  35.6315957  38.8849516  36.5872500  30.4725446
  38.1332415  36.2088038  30.2441491  39.3335527  36.6190933  29.7244257
  38.8399182  36.5358107  30.3282949  33.6599316  32.6211178  32.3640553
  33.4249500  31.7878831  32.2572821  33.7984957  32.9015844  31.5501754
  33.6454978  32.5394682  32.2282908  35.9589403  24.7896909  35.2624860
  35.3394435  24.1989556  35.0934875  35.8573267  25.3808344  34.6289183
  35.8527079  24.7900991  35.1429850  41.0055591  34.5280456  29.5122937
  41.3271432  35.0685663  28.9084245  41.6527688  33.9577227  29.6445226
  41.1481646  34.5239631  29.4429972  41.2284163  21.8988847  33.6778598
  40.8987493  22.3499991  33.0082297  40.5529165  21.8205011  34.2251604
  41.0794599  21.9539983  33.6601821  39.6672612  31.7842088  26.8373087
  39.0829827  32.2892119  27.2438951  39.2642707  31.5584475  26.0969679
  39.5211916  31.8250336  26.7878112  39.4340117  19.9601136  29.1601546
  40.1886085  20.3279453  28.9218596  39.2567651  20.3340690  29.9280725
  39.5194595  20.0699324  29.2386434  37.7897181  22.3671455  25.8579659
  37.6072755  22.5843336  25.0320651  38.6522794  22.4810467  25.9138273
  37.8901771  22.4161353  25.7434146  37.3359208  25.6445627  24.3702132
  36.6217386  25.3583807  24.7824564  37.8203177  25.9842253  25.0108519
  37.3018572  25.6527277  24.5257767  33.8394875  31.6319322  35.0362118
  33.6570448  31.6066208  34.1834410  34.5744544  32.1018260  35.0751027
  33.9208939  31.6980685  34.9160036  33.8065785  28.5112823  35.1861185
  34.3839288  28.3749274  35.8253430  33.1079847  28.0548607  35.4406769
  33.7886807  28.4235089  35.3183474  40.5633088  30.1646879  33.3999668
  40.3052332  29.3318614  33.3730967  40.6181570  30.3904492  32.5592168
  40.5332866  30.0744650  33.2719804  39.5367800  27.7184641  33.8864562
  38.9617391  27.8776810  34.5228523  39.1603476  27.0820050  33.4233013
  39.3970612  27.6482454  33.9119121  29.2824619  27.3624716  31.9009003
  29.3684871  26.9856584  32.6822533  29.9100416  26.9885162  31.4228961
  29.3881170  27.2510198  31.9454480  40.8190750  29.1130402  26.4080949
  41.2035903  28.8938109  27.1597494  40.5702370  29.9393348  26.5382026
  40.8392823  29.2028549  26.5382026  36.3215164  34.7158398  30.7794290
  35.4953281  34.9620135  30.6528568  36.3827155  34.6370479  31.6456348
  36.2089331  34.7403347  30.8883234  38.5391187  20.7827339  31.7389730
  37.6713613  20.8549938  31.8047339  38.8266392  21.5849418  31.9277705
  38.4530935  20.9121486  31.7764496  37.9536855  31.3975977  33.8129171
  37.6650104  30.7713448  34.3474898  38.8220203  31.3396265  33.8793851
  38.0397107  31.2963521  33.9020126  38.1569129  33.0371228  29.7371536
  38.9115097  33.4184267  29.9506999  37.5639741  33.4882372  30.1918233
  38.1805842  33.1600056  29.8354414  36.4658539  24.2585598  29.1806606
  36.1783335  23.8886869  28.4438553  37.1529008  24.7280454  28.9190311
  36.5247437  24.2732568  29.0321682  40.9033681  31.2383809  30.5093142
  40.7076464  31.8458543  29.9153445  41.1268027  30.5451753  30.0284816
  40.9068322  31.2261334  30.3509223  39.3012211  28.1238546  30.6274011
  40.0234863  28.2879705  30.1677817  38.8220204  28.8448211  30.5213351
  39.3375942  28.2536776  30.5439625  34.0386734  25.0366811  30.0291887
  34.1402870  25.8392972  30.3572863  34.8342621  24.8354147  29.7314968
  34.1714640  25.1252710  30.0327243  34.8550466  25.1513989  37.7713009
  34.7135958  24.2997930  37.8957517  35.1391030  25.1942650  36.9475215
  34.8758312  25.0313739  37.6680633  37.7429527  30.4725071  30.9010514
  37.8994146  30.4071873  31.7566506  38.0830120  31.2473623  30.6889193
  37.8162762  30.5774269  30.9965108  34.3163789  27.6560021  31.2171281
  34.6962754  28.0744566  30.5531548  33.7419154  28.2373477  31.5240124
  34.2875114  27.8037880  31.1648022  41.8461810  19.8625423  36.2686991
  41.3300299  19.1705614  36.3938570  41.2855739  20.5296200  36.2149589
  41.6868324  19.8588680  36.2793057  35.4370157  26.8439963  33.6771526
  35.0426855  26.9182975  32.9021636  34.8810274  27.2297909  34.2279888
  35.2972970  26.9121737  33.6439186  40.8277352  24.4602345  29.6629075
  41.1037087  23.7421257  29.2506642  41.4276022  25.0587265  29.4550181
  40.9570617  24.4422716  29.5709836  38.2464021  22.7766186  37.9346426
  38.7065502  22.8505115  38.6721550  38.2920128  23.5747440  37.5846247
  38.3214576  22.9060333  37.9919182  38.5795333  23.5722944  23.0281245
  38.2308138  24.2242669  23.4912795  38.0991779  23.5580057  22.3005117
  38.4565577  23.6665998  22.9892337  30.3875102  29.9626050  35.7680673
  30.2818552  29.9172894  34.9032757  29.6375322  30.3079830  36.0494958
  30.2610705  30.0066958  35.6818003  39.1568835  21.4065373  35.7143273
  39.1967206  21.9074580  36.4277981  38.3318500  21.4975767  35.4449196
  39.0408361  21.4947189  35.7793811  38.9519242  26.1981474  28.5407290
  39.0922203  26.6953939  29.2435931  39.4501775  25.4967769  28.6821504
  39.0460323  26.1683453  28.6658869  38.9819464  27.0648586  25.8699867
  39.6164544  27.6609011  25.8049328  39.0645075  26.7652043  26.6845737
  39.0876015  27.1089494  25.9802953  40.5598447  22.9962561  25.8445309
  40.8814288  22.5165643  25.1904571  40.8225391  23.8062207  25.6536120
  40.6464473  23.0452459  25.7200801  35.4872452  29.2616426  29.1389413
  35.9964682  29.8580934  29.5200718  35.9606725  28.9942400  28.4565832
  35.6315828  29.3102242  29.0943935  37.8462984  25.8972685  32.0062593
  37.1274973  26.3136817  32.2735457  38.2175346  26.4626924  31.4554231
  37.7954916  26.0421966  31.9645400  39.5512138  23.4326736  32.0691918
  40.0269504  23.7943815  31.4342100  39.0500737  24.0883203  32.3492061
  39.5477497  23.5820924  32.0168659  41.5938791  25.5767935  25.4365302
  41.9737756  25.5947564  24.6516417  40.8531387  26.0221924  25.3156150
  41.5407628  25.6449710  25.3028871  31.2841352  27.3089911  35.4399698
  31.1063113  26.8566520  36.1654613  30.9960374  28.1116072  35.6238175
  31.2154305  27.3612469  35.5743201  33.0213822  29.8417635  32.5521457
  32.1559342  29.8303325  32.4404228  33.1212638  29.6547858  33.3992596
  32.9087989  29.8123696  32.6610401  31.2235134  32.5423259  35.6429094
  31.1259412  31.7319531  35.9519150  32.0064004  32.5215053  35.2575362
  31.3251271  32.4190349  35.6315957  29.0253252   2.9361304  21.0743122
  29.6690707   3.3774468  21.4639280  29.3509507   2.1314730  20.9873381
  29.1685080   2.8826499  21.1188599  38.5800340  13.5250631  17.4065493
  37.8283239  13.1466169  17.1781538  39.0286351  13.5569064  16.6584304
  38.5350006  13.4736238  17.2622995  40.1585096  13.5369023  19.6728266
  40.2595459  12.7269377  19.9825393  39.5626841  13.4425969  19.0427944
  40.0857634  13.4034051  19.6254504  39.9985835  18.4546612  21.0743122
  40.6423291  18.8959776  21.4639280  40.3242091  17.6500038  20.9873381
  40.1417664  18.4011807  21.1188599  33.3550140   9.5589309  19.2980599
  33.1200324   8.7256962  19.1912868  33.4935781   9.8393975  18.4841800
  33.3405802   9.4772813  19.1622954  40.7006415  11.4658587  16.4462983
  41.0222256  12.0063794  15.8424292  41.3478512  10.8955358  16.5785273
  40.8432470  11.4617762  16.3770019  35.3809360   5.2727322  24.4408476
  35.2568057   5.8589767  25.0758295  36.0327645   4.7787517  24.7420751
  35.4583010   5.2866126  24.5794405  40.4067701   8.4489039  23.7195987
  41.0516704   7.9561482  23.4006936  40.6469478   8.5913825  24.5462065
  40.5378287   8.3966481  23.7945520  39.3623436   8.7220219  13.7713134
  38.7780651   9.2270251  14.1778998  38.9593531   8.4962606  13.0309726
  39.2162740   8.7628467  13.7218159  34.9167465  14.4374980  20.5736806
  34.4335043  15.1625470  20.5496389  35.7290783  14.7351110  20.6846963
  34.9658212  14.5877334  20.5864085  40.9881619  13.2307161  23.1786620
  40.4708560  12.8714576  22.5747928  41.6856010  12.7069335  23.1892686
  41.0147200  13.1004849  23.0916879  37.7711662  14.9531156  20.7257085
  38.4732241  14.4383145  20.7829842  37.6909145  15.2805308  21.5303961
  37.8635422  14.9245382  20.8529878  37.0962437  11.1437508  20.2342693
  37.9351337  11.3760441  20.2816455  37.1274206  10.2741820  20.1649729
  37.2244155  11.0494455  20.2307338  37.7215140  11.5638383  24.5355999
  38.2613365  11.4209514  25.2059371  37.0385087  11.9635134  24.9040025
  37.7007294  11.6018054  24.6890421  33.1252285   7.7838674  24.6890420
  32.8590701   6.9677791  24.8481411  33.1390850   7.8291830  23.8185936
  33.0877008   7.6695579  24.5843902  33.5345699   8.5697454  21.9702165
  33.3521272   8.5444340  21.1174457  34.2695368   9.0396391  22.0091074
  33.6159763   8.6358816  21.8500083  36.5991451   5.2882456  28.4784273
  37.3231423   5.2735487  28.9649168  36.7007587   5.9977812  27.9806242
  36.7209660   5.3907160  28.4763060  33.5016609   5.4490954  22.1201231
  34.0790112   5.3127405  22.7593477  32.8030671   4.9926738  22.3746816
  33.4837631   5.3613220  22.2523521  40.2583912   7.1025010  20.3339715
  40.0003156   6.2696745  20.3071014  40.3132394   7.3282623  19.4932215
  40.2283689   7.0122781  20.2059851  28.9775443   4.3002847  18.8349050
  29.0635694   3.9234715  19.6162580  29.6051240   3.9263293  18.3569008
  29.0831994   4.1888329  18.8794527  39.8738759  10.8306244  19.0046107
  40.5112706  10.5917991  19.5497900  40.2993830  11.0343403  18.2699267
  40.0314925  10.8257254  18.9763264  34.5651401  13.0694580  22.8880411
  34.6055547  13.3409431  22.0600190  35.1245925  13.5936488  23.3038198
  34.6534747  13.1870335  22.8272299  36.0165988  11.6536529  17.7134337
  35.1904105  11.8998266  17.5868615  36.0777979  11.5748610  18.5796395
  35.9040155  11.6781478  17.8223281  40.7964817  14.2713409  15.4153366
  41.0863115  13.8802391  14.6912593  41.5268297  14.4530114  15.8558642
  40.9471701  14.2407223  15.3736173  38.7370732  16.2480792  18.4813516
  38.5171028  15.9578146  19.2740183  38.5165254  15.5895747  17.9531429
  38.6718326  16.1080500  18.5202425  37.6487679   8.3354108  20.7469218
  37.3600928   7.7091580  21.2814945  38.5171027   8.2774396  20.8133898
  37.7347931   8.2341653  20.8360172  40.9038688  17.6210182  17.2644209
  41.5562746  17.0886624  17.4935235  40.2064297  17.2678834  17.6512083
  40.8969406  17.4899705  17.3556376  37.8519953   9.9749359  16.6711583
  38.6065921  10.3562398  16.8847045  37.2590565  10.4260503  17.1258279
  37.8756666  10.0978187  16.7694461  39.1718179  11.1457921  22.0451698
  38.6498933  11.2858212  22.7303563  39.5592200  10.3868585  22.2353816
  39.1521880  11.0543445  22.1752775  40.5984505   8.1761940  17.4433189
  40.4027288   8.7836674  16.8493492  40.8218851   7.4829884  16.9624863
  40.6019146   8.1639465  17.2849270  36.6470652   7.4674750  26.6668198
  37.1591749   7.7459003  26.0176957  36.3606994   8.2064044  27.0331011
  36.6805515   7.6177104  26.6258076  40.6636910   6.6615929  28.2620527
  40.8080285   7.2417137  27.6263637  41.0112558   7.0392226  28.9670382
  40.7364371   6.8036633  28.2719522  39.7364665  14.8518701  25.1281554
  39.8854228  14.2921617  24.4754958  40.5164667  14.9310702  25.5114073
  39.8738758  14.7804266  25.0878503  37.4380351   7.4103202  17.8350561
  37.5944970   7.3450005  18.6906553  37.7780944   8.1851754  17.6229240
  37.5113586   7.5152400  17.9305155  34.0114613   4.5938152  18.1511328
  34.3913577   5.0122697  17.4871595  33.4369977   5.1751608  18.4580171
  33.9825938   4.7416011  18.0988069  37.6545414   6.1598557  22.7826822
  36.8133421   6.0602431  22.9905716  37.8635422   6.9294037  23.1341143
  37.5610107   6.2590600  22.8654137  39.5280430  11.3029677  26.7396518
  39.4200785  11.3131739  27.6058576  39.7376212  12.1284457  26.5501471
  39.5430541  11.4270752  26.8400609  37.5454222   8.5542319  24.2018455
  36.9542155   9.1951818  24.1721470  38.3075246   8.9779937  24.1749755
  37.5702483   8.7118158  24.1933602  34.8030084  10.2276417  25.3452371
  34.2730009   9.5368856  25.3947346  35.0755178  10.2186602  24.5165080
  34.7654806  10.1243549  25.2299787  30.0825926   6.9004181  22.7020720
  29.9769375   6.8551025  21.8372804  29.3326146   7.2457962  22.9835005
  29.9561529   6.9445089  22.6158049  35.1823276   6.1994557  16.0729460
  35.6915506   6.7959065  16.4540765  35.6557549   5.9320531  15.3905879
  35.3266652   6.2480373  16.0283982  41.3767186  16.1084583  20.6578263
  40.9627585  15.4458713  20.2682105  42.0614560  16.2562442  20.1373957
  41.4165558  16.0325241  20.5234760  32.2205207   5.0347234  25.2193721
  31.6731926   4.3647880  25.3374590  33.0097585   4.6677082  25.2837189
  32.2557390   4.8812221  25.2462422  30.9792176   4.2468042  22.3739745
  30.8013937   3.7944651  23.0994660  30.6911198   5.0494204  22.5578222
  30.9105129   4.2990600  22.5083247  32.7164646   6.7795766  19.4861504
  31.8510165   6.7681456  19.3744275  32.8163462   6.5925989  20.3332643
  32.6038813   6.7501827  19.5950448  38.3421656  16.5493664  23.0591609
  38.6568215  17.3630053  23.0669391  38.7515069  16.1643883  23.7273768
  38.4489754  16.6122367  23.1595701  35.6834676  10.4966773  22.7070217
  36.2879533  10.4562607  22.0784038  35.4761989  11.3437925  22.7374273
  35.7423573  10.6154775  22.6186334  30.9185958   9.4801390  22.5769141
  30.8210236   8.6697662  22.8859197  31.7014828   9.4593184  22.1915409
  31.0202095   9.3568481  22.5656004  39.9508026  19.8188155  18.8349050
  40.0368278  19.4420023  19.6162580  40.5783824  19.4448601  18.3569008
  40.0564577  19.7073637  18.8794527  41.0558510  22.4189489  22.7020720
  40.9501959  22.3736333  21.8372804  40.3058730  22.7643269  22.9835005
  40.9294113  22.4630397  22.6158049  41.9524760  19.7653350  22.3739745
  41.7746521  19.3129959  23.0994660  41.6643782  20.5679511  22.5578222
  41.8837713  19.8175908  22.5083247   7.7943890  12.1715478  29.6800645
   7.7637894  13.0260115  29.8518914   8.3925239  11.8710771  30.2386788
   7.8781048  12.2531975  29.7875447   0.8309674  21.2179216  25.6276354
   0.4961043  21.8956138  25.1920576   1.3436545  20.8284528  25.0393226
   0.8575256  21.2603795  25.4763145   5.6160465  14.7467780  27.9518955
   5.4999990  15.4975466  28.3811093   6.4116351  14.4891733  28.2015042
   5.7165054  14.8202627  28.0523046   3.3389770  15.4775424  26.2633245
   3.2541065  16.3336391  26.4082813   3.8274153  15.2019748  26.9315404
   3.3978667  15.5632746  26.3835326   4.2708203  12.0960218  27.7630980
   3.7419675  12.3119852  28.4228286   4.7933223  12.7896357  27.6831949
   4.2696656  12.2303355  27.8486579   9.7256256  17.6706523  33.1364024
   8.8953959  17.8817167  33.2997441   9.6765508  16.8443577  32.8606308
   9.5962992  17.5796129  33.1201390   0.6185025  12.2389087  25.0407368
   0.8581029  12.4467071  24.2282711   0.9400866  11.4346596  25.1496313
   0.7022183  12.1503188  24.9367921   3.9440400  14.5132600  32.5226337
   4.6997915  14.9464114  32.5615246   4.0502725  13.8637370  33.0960973
   4.0710571  14.4810084  32.6124363   6.9820571  18.3405877  33.2728740
   6.5455803  18.3442620  34.0287711   6.6483487  19.0211376  32.8408317
   6.8683191  18.4418333  33.3209573  10.1164918  15.0586797  32.1648377
  10.7781352  14.4977466  32.0644286   9.4756330  14.5638828  32.4901068
  10.1193785  14.9023206  32.1980717   6.4029748  16.0752180  31.9060366
   6.6385337  16.2197379  31.0787217   6.5519312  16.8394588  32.2991880
   6.4595552  16.2091234  31.8423970   8.2320205  14.9153846  29.7429970
   8.5628422  15.4481486  29.1370065   8.8053293  14.9692733  30.3991921
   8.3653884  15.0023414  29.7507751   3.4452094  12.7618748  30.4253550
   3.5398949  13.5008042  30.8793175   2.8210938  12.3336224  30.8588114
   3.3661124  12.8080069  30.5561697   3.6975115  14.6067488  23.6590502
   3.6155278  14.6769675  24.5245489   4.3354836  15.1697232  23.4674243
   3.7794953  14.7006459  23.7580451   9.3399557  10.1564342  31.2470131
   9.0836121   9.3444284  31.0568014  10.1828871  10.1641910  31.0200319
   9.4265582  10.0376340  31.1854949   0.8015226  14.6287942  26.6699108
   1.6155864  14.9202835  26.5581880   0.7374367  13.9747805  26.0957401
   0.9117965  14.5753137  26.5687946   8.0461136  17.0958387  37.1456979
   7.7406954  17.8286444  37.5070294   7.3267352  16.6896317  36.8649765
   7.8948479  17.1440120  37.1570116  13.7462929  13.7351388  36.4725323
  13.6787429  13.7547347  35.6027909  13.7318591  14.5781715  36.6980993
  13.7341685  13.8625123  36.3777800  11.5321546  12.5095774  34.7471917
  12.0829467  11.8763843  34.9869009  11.5165661  13.0411167  35.4387421
  11.6106742  12.4944722  34.8850775   5.6962981  17.2117812  29.4000501
   6.2621014  17.8711022  29.3159044   5.0490885  17.5567510  29.8716904
   5.6841738  17.3599753  29.4573258   2.1669559  20.1556596  28.8237581
   1.9256235  19.4224457  28.4164646   2.3470892  20.7043453  28.1703914
   2.1577183  20.1278987  28.6667804   7.6298441  13.8751679  33.0197298
   7.5432416  14.0307105  33.8732077   7.1748921  14.5189755  32.6456703
   7.5501698  13.9927434  33.0904405   1.5024257  11.1962426  31.6422857
   1.2558972  11.1158177  32.4759646   1.8309381  10.4115894  31.4485385
   1.5145501  11.0688692  31.7370381   5.3972306  17.9045786  35.4309639
   5.2586666  18.6026832  35.9358381   4.6172304  17.7494442  35.0745821
   5.2615533  17.9845952  35.4535913   6.8925679  17.2624040  26.1926138
   6.5132488  16.4761177  26.1855427   6.2291925  17.8110897  26.0497782
   6.7384154  17.2268863  26.1706935   2.2391248  17.8449742  22.0114914
   3.0064233  17.9049867  21.6020765   1.7922557  17.2730184  21.5271232
   2.2864675  17.7686318  21.8792624   3.1369043  16.6504398  34.2967646
   2.4614045  16.4189630  34.7981033   3.1461419  16.0425581  33.6709751
   3.0387548  16.5263323  34.2783798   5.1385778  19.5069531  26.5277824
   5.2205615  20.3136517  26.2039275   5.6235520  19.5265490  27.2518597
   5.2222936  19.6290193  26.5864722   0.7743871  14.0564301  29.4969237
   1.3159416  13.5534683  29.9607858   1.0890430  14.0029496  28.6858723
   0.9008268  13.9743722  29.4453050   3.3337808  21.8719354  30.9945759
   2.9417600  21.5686069  30.2768625   3.4890880  22.7088444  30.8050713
   3.2991398  21.9503191  30.8602256   3.4977483  18.4369343  30.9351789
   3.1392138  18.6083986  31.7115822   3.0116194  18.8982549  30.3779788
   3.3736180  18.5308314  30.9677058   4.7136479  20.0193047  38.5224347
   5.5028857  19.6682112  38.6426429   4.8880077  20.8329436  38.2600981
   4.8556760  20.0878905  38.5012215  10.4629019  15.6551305  37.9921047
  10.5212142  16.1037954  38.7381024   9.8295486  16.0650118  37.5551127
  10.3780314  15.7825040  38.0373595   4.1028113  21.2754847  34.4275793
   3.9047802  21.7645661  33.7332005   3.4815824  21.4796089  35.0059927
   3.9815678  21.3771385  34.4099016   7.4150698  13.6767593  36.0786737
   7.1748921  12.8374008  36.0829164   7.8942705  13.7567760  36.8027511
   7.4502882  13.5648993  36.1861540   3.0797467   9.5101772  27.7305711
   2.5520486   9.5930516  27.0411419   3.5393175  10.2519643  27.7270355
   3.0699318   9.6322434  27.6280406   9.4155885  10.4569050  34.0315996
   9.1765655  10.4164884  33.1936781   9.5789786  11.3040202  34.1581718
   9.4046189  10.5761135  33.9269478   2.6334550  18.0805335  26.8615368
   3.3568749  18.5463448  26.7179941   2.1935141  18.1478945  26.1112965
   2.6750242  18.1589172  26.7300149   2.8938399  22.1426040  27.0213429
   2.1767709  21.9686902  26.5560666   3.5445137  21.9078613  26.4888915
   2.8840250  22.0821833  26.8742647   5.4786371  11.0190629  30.7654734
   4.8077560  11.5620331  30.6367799   6.1726121  11.4885484  30.5236429
   5.4815238  11.1688900  30.7110262   1.5416855  22.5377884  34.2027193
   1.1433139  22.6480154  33.4348014   0.9268075  22.7459950  34.7853753
   1.3915745  22.5851452  34.1758493   2.9902574   9.1031536  30.5003083
   2.7616267   9.1264238  29.6581441   3.2500650   8.2789003  30.6198094
   2.9948762   8.9847616  30.3928281   9.2758698  17.1129851  27.5870284
   9.6592304  17.8621207  27.8168381   8.4802811  17.3595671  27.3282273
   9.2152480  17.2599545  27.5827858   5.7159280   8.0931474  30.7506242
   5.7153507   7.9380130  31.6090518   5.5115460   8.9394461  30.6947627
   5.6859058   8.1952095  30.8694181   5.5051951  15.5232663  37.0919577
   5.9307023  15.0007085  36.5390002   5.1408871  16.1213500  36.5708200
   5.5138554  15.5342890  36.9328587   2.0930551  19.2366927  33.4220735
   2.5641729  19.9507190  33.5910720   2.4290729  18.6365677  33.9580604
   2.2125666  19.2538392  33.5253111   2.2962823  20.0335934  36.7157769
   3.1161197  19.8898900  36.9774064   2.0156901  20.6582133  37.2574206
   2.3759567  20.1046286  36.8345708  18.7676474  27.6900786  29.6800645
  18.7370478  28.5445423  29.8518914  19.3657822  27.3896078  30.2386788
  18.8513631  27.7717282  29.7875447  11.9676158  26.7776437  34.4353575
  11.1114054  26.9384935  34.4862692  12.0143812  25.9068501  34.4558636
  11.8475270  26.6727239  34.4459641   6.3517298  36.3139155  30.1990807
   5.6000198  35.9354693  29.9706852   6.8003310  36.3457588  29.4509617
   6.3066965  36.2624762  30.0548309  11.8042258  36.7364524  25.6276354
  11.4693626  37.4141446  25.1920576  12.3169128  36.3469836  25.0393226
  11.8307839  36.7789102  25.4763145  11.3446549  38.6878793  31.5687466
  11.7285929  39.2565692  31.0292241  11.2805691  37.9628303  31.0893282
  11.3919977  38.6654256  31.4181328  14.8127979  28.8368481  37.0785227
  15.3583939  29.5153567  37.1379197  14.7544856  28.6955942  36.2186808
  14.8843894  28.9160483  36.9597288   7.9302054  36.3257547  32.4653579
   8.0312417  35.5157901  32.7750707   7.3343800  36.2314493  31.8353258
   7.8574593  36.1922575  32.4179818  16.5893048  30.2653088  27.9518955
  16.4732574  31.0160774  28.3811093  17.3848935  30.0077041  28.2015042
  16.6897638  30.3387935  28.0523046   1.1267099  32.3477833  32.0905913
   0.8917283  31.5145486  31.9838182   1.2652739  32.6282499  31.2767114
   1.1122761  32.2661337  31.9548268   3.4257186  24.5163564  34.9890221
   2.8062218  23.9256211  34.8200236   3.3241050  25.1074999  34.3554544
   3.3194862  24.5167647  34.8695210   8.4723374  34.2547111  29.2388297
   8.7939215  34.7952318  28.6349605   9.1195470  33.6843882  29.3710587
   8.6149429  34.2506286  29.1695332  10.5225082  26.2563106  29.3222684
  11.2205246  26.4351233  29.8144147  10.8377414  25.7333445  28.6993073
  10.6720419  26.2056878  29.3024694  10.7113017  32.6433551  29.3102475
  11.1506653  32.0350651  29.7557248  10.5617680  32.2640924  28.5387940
  10.7534483  32.4972022  29.2621643   8.1784660  31.2377563  36.5121301
   8.8233663  30.7450006  36.1932249   8.4186437  31.3802349  37.3387379
   8.3095245  31.1855005  36.5870834  10.7170751  34.0832469  36.1628193
  10.9993994  33.2883874  35.9414949  11.4456912  34.5613056  36.1833254
  10.8660315  34.0367066  36.1331209   8.6951945  21.6255503  33.4043958
   8.3655275  22.0766646  32.7347657   8.0196947  21.5471666  33.9516965
   8.5462382  21.6806638  33.3867182  14.3122354  30.9960732  26.2633245
  14.2273649  31.8521699  26.4082813  14.8006737  30.7205056  26.9315404
  14.3711251  31.0818054  26.3835326  15.9028353  17.6141025  31.6493569
  15.5881794  18.3044504  32.0813991  15.3855295  17.5585808  30.9479070
  15.7792823  17.7075914  31.6090518  20.6988840  33.1891831  33.1364024
  19.8686543  33.4002474  33.2997441  20.6498092  32.3628885  32.8606308
  20.5695575  33.0981437  33.1201390   7.1340395  31.5108743  26.5638448
   6.5497610  32.0158775  26.9704312   6.7310490  31.2851130  25.8235040
   6.9879698  31.5516991  26.5143473   8.7598577  36.0195685  35.9711934
   8.2425519  35.6603100  35.3673242   9.4572969  35.4957859  35.9818000
   8.7864158  35.8893373  35.8842192  11.5917609  27.7574395  25.0407368
  11.8313613  27.9652379  24.2282711  11.9133450  26.9531904  25.1496313
  11.6754767  27.6688496  24.9367921   6.9007899  19.6867791  28.8866906
   7.6553867  20.0546108  28.6483956   6.7235434  20.0607345  29.6546086
   6.9862378  19.7965979  28.9651795  20.1942798  25.8362231  36.9314446
  19.3571219  25.9064419  37.1662040  20.1631029  25.8386726  36.0588748
  20.0661080  25.8472459  36.8373993   5.2564964  22.0938110  25.5845019
   5.0740537  22.3109991  24.7586012   6.1190577  22.2077123  25.6403634
   5.3569553  22.1428008  25.4699506   4.8679396  33.9326032  33.0268007
   5.7068295  34.1648965  33.0741769   4.8991165  33.0630344  32.9575042
   4.9961114  33.8382979  33.0232652  10.9364683  19.0964521  28.6194043
  11.6650844  18.9180476  28.1732199  11.0259576  19.9382600  28.8301221
  11.0571345  19.1948399  28.5847561  14.9172984  30.0317908  32.5226337
  15.6730499  30.4649422  32.5615246  15.0235308  29.3822678  33.0960973
  15.0443154  29.9995392  32.6124363  17.9553155  33.8591185  33.2728740
  17.5188387  33.8627928  34.0287711  17.6216070  34.5396684  32.8408317
  17.8415775  33.9603641  33.3209573  17.8750638  20.9005013  35.5158168
  18.5176546  20.9703118  36.1020083  18.1273659  20.2334236  35.0137710
  18.0072770  20.8131362  35.5285447   4.8026991  25.3712283  24.0967492
   4.0885168  25.0850462  24.5089925   5.2870960  25.7108908  24.7373880
   4.7686354  25.3793932  24.2523127   5.6467850  24.1105576  40.1282742
   4.9539647  23.6402556  40.3743473   6.2628178  23.8843881  40.7024449
   5.6352380  24.0072708  40.2491894  21.0897501  30.5772105  32.1648377
  21.7513935  30.0162774  32.0644286  20.4488913  30.0824136  32.4901068
  21.0926369  30.4208514  32.1980717  11.9774309  33.8742237  24.4729300
  12.3925457  33.5427260  23.7813796  11.1466239  33.6411139  24.3449437
  11.9162318  33.7913493  24.3520148  17.3762332  31.5937488  31.9060366
  17.6117921  31.7382686  31.0787217  17.5251896  32.3579896  32.2991880
  17.4328135  31.7276542  31.8423970  19.2052789  30.4339153  29.7429970
  19.5361006  30.9666794  29.1370065  19.7785877  30.4878041  30.3991921
  19.3386468  30.5208722  29.7507751  14.4184678  28.2804056  30.4253550
  14.5131532  29.0193350  30.8793175  13.7943521  27.8521532  30.8588114
  14.3393708  28.3265377  30.5561697  12.6737152  31.4590269  41.0743831
  13.2476013  30.8217513  41.2292395  12.5951955  31.4594351  40.2053488
  12.7470386  31.3655380  40.9690242  14.6707699  30.1252796  23.6590502
  14.5887862  30.1954983  24.5245489  15.3087420  30.6882540  23.4674243
  14.7527536  30.2191767  23.7580451   8.0300870  29.8913534  33.1265028
   7.7720114  29.0585269  33.0996328   8.0849353  30.1171147  32.2857529
   8.0000648  29.8011305  32.9985165  13.1101920  21.9941985  33.2269121
  12.4058247  21.5051170  33.3853040  13.1586895  22.0064459  32.3557565
  13.0131972  21.9231633  33.1208461   7.0035582  27.4451296  33.6129923
   6.4285174  27.6043465  34.2493884   6.6271259  26.8086705  33.1498374
   6.8638395  27.3749109  33.6384481  10.6708871  25.9174646  38.4722301
  10.2823304  25.4928863  37.8174493  10.0063569  26.1656795  38.9799328
  10.5155799  25.8913367  38.4510169  20.3132140  25.6749650  31.2470131
  20.0568705  24.8629592  31.0568014  21.1561454  25.6827218  31.0200319
  20.3998166  25.5561648  31.1854949  14.4935233  19.6149274  35.9846286
  14.8745744  18.9327446  36.3714160  13.6898517  19.3258877  35.8021950
  14.4311694  19.4716323  36.0150342  11.7747809  30.1473250  26.6699108
  12.5888448  30.4388143  26.5581880  11.7106951  29.4933113  26.0957401
  11.8850548  30.0938445  26.5687946   7.6455718  33.6194768  31.7971420
   8.2829664  33.3806515  32.3423214   8.0710789  33.8231927  31.0624581
   7.8031884  33.6145778  31.7688578   8.2858533  28.8397057  26.1346310
   8.6703685  28.6204764  26.8862855   8.0370153  29.6660003  26.2647386
   8.3060605  28.9295204  26.2647386  19.0193720  32.6143695  37.1456979
  18.7139537  33.3471752  37.5070294  18.2999936  32.2081625  36.8649765
  18.8681062  32.6625428  37.1570116  10.0277189  34.0967190  33.4765207
  10.1016198  33.9342362  34.3307057  10.8446696  34.2857380  33.2325688
  10.1593548  34.1003933  33.5663232  24.7195512  29.2536696  36.4725323
  24.6520012  29.2732655  35.6027909  24.7051175  30.0967023  36.6980993
  24.7074269  29.3810430  36.3777800   3.7882946  34.4425053  30.5059650
   2.9621064  34.6886790  30.3793929   3.8494937  34.3637134  31.3721708
   3.6757113  34.4670002  30.6148595   6.0058970  20.5093994  31.4655090
   5.1381395  20.5816594  31.5312700   6.2934174  21.3116073  31.6543065
   5.9198718  20.6388141  31.5029857  15.1291859  20.6571854  39.7966412
  15.8745451  20.4681664  39.3829838  14.7129163  21.1830091  39.2380269
  15.1776833  20.7073999  39.6530985   8.5681775  37.0601933  28.2078680
   8.8580074  36.6690915  27.4837907   9.2985256  37.2418638  28.6483955
   8.7188659  37.0295747  28.1661487  22.5054130  28.0281082  34.7471917
  23.0562051  27.3949151  34.9869009  22.4898245  28.5596475  35.4387421
  22.5839326  28.0130030  34.8850775   5.4204638  31.1242632  33.5394531
   5.1317887  30.4980104  34.0740259   6.2887986  31.0662920  33.6059212
   5.5064890  31.0230177  33.6285486  16.2082536  26.2677416  33.8576513
  15.8647302  25.5467751  34.2083763  16.3075578  26.0591267  33.0154872
  16.1724579  26.1301619  33.7848193   5.6236911  32.7637883  29.4636897
   6.3782879  33.1450922  29.6772359   5.0307524  33.2149027  29.9183593
   5.6473625  32.8866711  29.5619775  16.6695565  32.7303120  29.4000501
  17.2353597  33.3896330  29.3159044  16.0223468  33.0752818  29.8716904
  16.6574321  32.8785061  29.4573258   6.9435138  33.9346445  34.8377012
   6.4215891  34.0746736  35.5228877   7.3309158  33.1757109  35.0279129
   6.9238839  33.8431969  34.9678088   3.9326322  23.9852253  28.9071967
   3.6451118  23.6153524  28.1703914   4.6196790  24.4547109  28.6455672
   3.9915219  23.9999223  28.7587042  13.1402143  35.6741904  28.8237581
  12.8988819  34.9409765  28.4164646  13.3203476  36.2228761  28.1703914
  13.1309767  35.6464295  28.6667804   8.3701464  30.9650464  30.2358503
   8.1744246  31.5725198  29.6418806   8.5935809  30.2718408  29.7550177
   8.3736105  30.9527989  30.0774584   6.7679994  27.8505202  30.3539371
   7.4902645  28.0146360  29.8943177   6.2887986  28.5714866  30.2478711
   6.8043724  27.9803431  30.2704985  14.7273501  24.1869000  35.7336056
  13.8884602  24.2130279  35.4974320  14.7977868  24.8339736  36.3141403
  14.6141895  24.2865126  35.7845173  13.1742779  21.0854377  30.4663672
  13.8769132  20.8862126  29.9883630  12.9086968  20.3130320  30.7732516
  13.2389412  20.9417343  30.4409114  18.6031025  29.3936987  33.0197298
  18.5165000  29.5492413  33.8732077  18.1481505  30.0375063  32.6456703
  18.5234282  29.5112742  33.0904405   1.5054517  24.7633466  29.7557248
   1.6070653  25.5659627  30.0838223   2.3010403  24.5620802  29.4580328
   1.6382422  24.8519365  29.7592603   7.9371336  22.3489663  39.5194553
   7.7454533  22.3644797  40.3693976   8.7869932  22.5453337  39.4961208
   8.0347058  22.3804014  39.6417848   2.3218249  24.8780644  37.4978369
   2.1803740  24.0264585  37.6222877   2.6058812  24.9209305  36.6740575
   2.3426095  24.7580394  37.3945993  12.4756841  26.7147734  31.6422857
  12.2291555  26.6343485  32.4759646  12.8041964  25.9301202  31.4485385
  12.4878085  26.5874000  31.7370381  16.3704890  33.4231094  35.4309639
  16.2319249  34.1212139  35.9358381  15.5904888  33.2679750  35.0745821
  16.2348117  33.5031260  35.4535913  14.7082975  29.7227469  41.6832020
  14.7031013  28.8507286  41.6874447  15.4143969  29.9215638  41.2101476
  14.8127979  29.6231343  41.6139056  10.6073786  28.6494621  38.8370972
   9.8597100  28.8425636  38.4319250  10.7615311  27.8239841  38.5995093
  10.5196213  28.5559733  38.7416378  17.8658263  32.7809347  26.1926138
  17.4865071  31.9946485  26.1855427  17.2024508  33.3296204  26.0497782
  17.7116737  32.7454171  26.1706935  10.8475563  22.5445172  39.7266376
  11.3048177  23.2769146  39.8539168  10.9231891  22.1211637  40.4853632
  10.9266533  22.5902410  39.8567452  15.3202889  15.7235047  33.5960219
  15.4386457  16.1811511  32.8627522  15.1465064  14.9180308  33.3096436
  15.3122060  15.6728819  33.4461152  10.6905171  36.3322866  30.0314964
  11.4555062  36.0632510  29.7097628  10.5883261  35.8472877  30.7485027
  10.7886666  36.2212431  30.0894792   8.7257941  24.5347276  36.5708200
   7.9354015  24.3538736  36.8925536   9.1218563  23.7574228  36.5538494
   8.6674817  24.3934737  36.6160748  13.2123831  33.3635050  22.0114914
  13.9796817  33.4235175  21.6020765  12.7655140  32.7915492  21.5271232
  13.2597259  33.2871626  21.8792624  14.1101627  32.1689706  34.2967646
  13.4346629  31.9374938  34.7981033  14.1194003  31.5610889  33.6709751
  14.0120131  32.0448631  34.2783798  11.2395771  27.0107535  41.0531699
  11.1754912  27.8717491  40.9251836  11.3792959  26.6939528  40.2527250
  11.2511241  27.0907702  40.9159912  16.1118361  35.0254838  26.5277824
  16.1938199  35.8321825  26.2039275  16.5968104  35.0450798  27.2518597
  16.1955519  35.1475501  26.5864722   9.9214865  29.7039674  35.1947902
   9.4977114  29.9044173  34.4586920   9.7459720  28.8568522  35.3072202
   9.8325745  29.6088456  35.1021592   5.2097310  30.1991726  30.6275874
   5.3661929  30.1338529  31.4831866   5.5497903  30.9740278  30.4154554
   5.2830545  30.3040924  30.7230468  11.7476454  29.5749609  29.4969237
  12.2892000  29.0719991  29.9607858  12.0623013  29.5214804  28.6858723
  11.8740851  29.4929030  29.4453050   9.9162904  34.9666961  26.7809265
   9.9855724  34.1081499  26.9202266  10.6951359  35.1838842  26.4528290
  10.0415754  34.8719825  26.7526423  12.8965724  24.4685914  39.5491538
  13.1107693  23.8296828  38.9954892  12.2799623  24.9131738  39.1199400
  12.8371053  24.4396058  39.4041969  14.3070392  37.3904662  30.9945759
  13.9150183  37.0871377  30.2768625  14.4623464  38.2273752  30.8050713
  14.2723982  37.4688499  30.8602256   1.7831571  27.3826676  30.9436641
   2.1630536  27.8011221  30.2796909   1.2086936  27.9640132  31.2505485
   1.7542896  27.5304535  30.8913382  15.0604812  26.0774979  40.4874845
  14.2481493  25.7700869  40.5688018  15.5194746  25.5973979  41.0517557
  15.0085197  25.9611471  40.5829439  14.4710066  33.9554651  30.9351789
  14.1124721  34.1269294  31.7115822  13.9848777  34.4167857  30.3779788
  14.3468763  34.0493622  30.9677058  12.2880452  17.5785850  34.5378881
  11.4174010  17.5524571  34.4912190  12.5420794  17.4063042  33.7204726
  12.1974012  17.5495993  34.4099017   9.2598432  29.6353816  23.4752024
   9.5490957  30.4118699  23.7495598   9.3470231  29.1242548  24.1766523
   9.3152688  29.6745735  23.6194522   9.3129593  19.5892078  35.9952351
   8.7968081  18.8972269  36.1203930   8.7523522  20.2562855  35.9414950
   9.1536106  19.5855336  36.0058417  11.3821826  20.1285038  37.8245204
  10.9953579  20.1534070  38.6058734  10.8954764  19.5626717  37.3719720
  11.2534335  20.0480789  37.8733107  17.3571806  26.6947693  36.4484906
  16.9299414  26.6074042  35.6933005  16.7197859  26.8025469  37.0339750
  17.2001413  26.6980353  36.4230347  10.8492883  21.8023218  42.3881875
  11.6766312  21.5308367  42.4440490  10.8700729  22.5984060  42.7445693
  10.9745733  21.8802972  42.4497058  15.6869062  35.5378355  38.5224347
  16.4761441  35.1867420  38.6426429  15.8612660  36.3514744  38.2600981
  15.8289344  35.6064212  38.5012215   5.4262373  28.9487081  35.5752136
   4.5850379  28.8490955  35.7831030   5.6352381  29.7182561  35.9266457
   5.3327065  29.0479124  35.6579451   2.9037940  26.5706618  33.4036887
   2.5094637  26.6449630  32.6286996   2.3478057  26.9564564  33.9545248
   2.7640752  26.6388393  33.3704546  14.5402887  19.5487912  33.0840765
  14.7452480  19.4810220  33.9297763  14.2129311  20.3546733  33.0161943
  14.5218134  19.6573852  33.2000421   9.2379038  26.8768480  34.8249733
   8.9342175  26.3224469  35.4260141   8.5358458  27.0560690  34.3377768
   9.0895247  26.8213263  34.8419439   8.2945135  24.1869000  29.3894435
   8.5704869  23.4687913  28.9772003   8.8943804  24.7853920  29.1815541
   8.4238399  24.1689371  29.2975196  17.7936574  20.1019676  32.5643531
  17.1810888  20.5890078  32.9497263  17.8900749  19.4263167  33.1081182
  17.7174472  20.0737985  32.7022389  11.7955655  21.8582517  27.6641030
  12.2499402  22.0293078  28.3888875  12.2695701  21.2450628  27.2638806
  11.9323975  21.7933403  27.7114792   5.7131803  22.5032841  37.6611786
   6.1733285  22.5771771  38.3986910   5.7587910  23.3014095  37.3111608
   5.7882359  22.6326988  37.7184543  21.4361602  31.1736613  37.9921047
  21.4944726  31.6223262  38.7381024  20.8028070  31.5835426  37.5551127
  21.3512897  31.3010348  38.0373595  15.0760697  36.7940155  34.4275793
  14.8780386  37.2830969  33.7332005  14.4548408  36.9981396  35.0059927
  14.9548261  36.8956693  34.4099016   9.1368675  28.5625052  28.7686037
   9.8810720  28.9499328  29.0068987   9.2829371  27.7182477  28.9326525
   9.2679260  28.4955525  28.8280007  11.0548251  20.3575311  33.8017899
  10.2084296  20.5298118  33.6759249  11.0519383  19.5524654  34.1383727
  10.9295401  20.2636340  33.8329026  12.1246551  24.1350525  34.6679957
  11.6506505  23.6092287  35.1785268  12.4964687  23.5879998  34.0994818
  12.1096440  23.9766522  34.6595104  18.3883282  29.1952901  36.0786737
  18.1481505  28.3559316  36.0829164  18.8675289  29.2753067  36.8027511
  18.4235465  29.0834300  36.1861540  20.3888469  25.9754358  34.0315996
  20.1498239  25.9350192  33.1936781  20.5522370  26.8225510  34.1581718
  20.3778772  26.0946443  33.9269478  16.9934499  30.3604307  39.9621042
  17.7168698  29.9076834  39.7832061  16.7284461  30.6408973  39.1793369
  17.0615772  30.3355276  39.8199757   5.8621367  24.9564481  36.6973921
   5.2374437  24.9682873  36.0899873   5.5266962  25.4324656  37.3465161
   5.7206859  25.0282998  36.7030489   6.0463116  23.2989599  22.7546606
   5.6975920  23.9509324  23.2178155   5.5659562  23.2846712  22.0270477
   5.9233360  23.3932653  22.7157697  13.6067133  33.5990643  26.8615368
  14.3301332  34.0648756  26.7179941  13.1667724  33.6664253  26.1112965
  13.6482825  33.6774480  26.7300149  12.7753288  30.4588185  38.1116057
  12.1610281  29.9146236  38.4064692  13.2920573  29.9452422  37.6321873
  12.7608951  30.3024595  38.0840285  12.0149586  31.5292456  35.8460355
  11.5877194  30.9042174  35.4125791  12.0074530  31.2467377  36.6719362
  11.9508727  31.3945236  35.9040183  13.0732416  18.7318864  39.4699579
  12.5772977  18.9282538  38.7791145  13.8301478  19.1311532  39.2988380
  13.1119240  18.8196598  39.3419715  10.3435295  22.4061210  36.0602889
  10.3677782  21.8721322  35.3715669  10.5946769  21.8978519  36.7228480
  10.3845214  22.2522114  36.0567534   6.6236617  21.1332028  35.4408634
   6.6634989  21.6341235  36.1543341   5.7986282  21.2242422  35.1714557
   6.5076143  21.2213845  35.5059172   8.0450981  27.6492538  37.7382533
   7.2142910  27.8166356  37.5317781   7.9902498  27.2728489  38.5231418
   7.9140396  27.6182269  37.8231061   6.4187025  25.9248130  28.2672650
   6.5589986  26.4220594  28.9701292   6.9169557  25.2234424  28.4086864
   6.5128106  25.8950108  28.3924229   6.4487247  26.7915241  25.5965227
   7.0832326  27.3875666  25.5314689   6.5312858  26.4918698  26.4111097
   6.5543798  26.8356149  25.7068314  19.4269813  29.3230718  38.4651591
  20.0187653  29.9627969  38.4969789  19.8628807  28.6253755  38.7543658
  19.5788244  29.3149068  38.5132424   8.0266230  22.7229216  25.5710669
   8.3482071  22.2432299  24.9169931   8.2893174  23.5328862  25.3801481
   8.1132255  22.7719114  25.4466161  13.4225385  22.1101410  37.9334148
  13.8480456  21.6573936  37.3217675  12.8082378  21.5561481  38.2098936
  13.3954030  21.9615386  37.8839173   2.9540235  28.9883081  28.8654773
   3.4632464  29.5847589  29.2466079   3.4274507  28.7209055  28.1831193
   3.0983611  29.0368897  28.8209296  13.8670983  37.6611348  27.0213429
  13.1500293  37.4872210  26.5560666  14.5177721  37.4263920  26.4888915
  13.8572833  37.6007141  26.8742647  11.8619608  18.5816510  31.3424725
  11.2187926  18.4314156  31.9109864  11.5219015  18.3358855  30.5773830
  11.7164685  18.5228632  31.3127740  16.4518954  26.5375937  30.7654734
  15.7810144  27.0805639  30.6367799  17.1458704  27.0070792  30.5236429
  16.4547822  26.6874208  30.7110262  10.5005688  38.6772649  35.9966492
  10.2771342  37.9191478  36.3650518  10.0115531  38.7070670  35.2746932
  10.3949137  38.5694873  35.9443233  16.6147082  22.9931820  33.6745107
  16.9674692  22.5661543  34.3490906  15.7561883  22.9082664  33.8046183
  16.5396526  22.9176561  33.7940117   5.3130767  25.6239340  31.7327954
   4.5942756  26.0403473  32.0000817   5.6843129  26.1893579  31.1819592
   5.2622698  25.7688621  31.6910761  14.6130347  26.2567189  37.6229949
  14.5928275  26.0750484  38.4764728  14.6609548  27.1279207  37.5989533
  14.6164988  26.3583727  37.7453244   9.1484145  38.8973107  33.4503577
   8.7344543  38.2347237  33.0607418   9.8331519  39.0450966  32.9299271
   9.1882517  38.8213765  33.3160074  12.5149439  38.0563192  34.2027193
  12.1165722  38.1665462  33.4348014  11.9000659  38.2645258  34.7853753
  12.3648328  38.1036760  34.1758493  11.0877341  24.6637340  27.0701333
  10.4942180  24.9854336  26.5185900  11.1252619  23.8178435  26.8622439
  11.0051730  24.5861668  26.9584104  18.0471142  18.1150232  34.6029420
  17.5402006  17.4079372  34.5350597  18.8438575  17.7843421  34.7330496
  18.0898381  17.9623384  34.6128414  13.9635158  24.6216844  30.5003083
  13.7348851  24.6449546  29.6581441  14.2233234  23.7974311  30.6198094
  13.9681346  24.5032924  30.3928281   8.2454386  26.4751317  40.1028183
   7.7333289  25.8672500  40.4613215   8.0733882  27.1907910  40.5702159
   8.1444023  26.4914617  40.2244407   7.0179920  23.1593391  31.7957279
   7.4937286  23.5210471  31.1607460   6.5168520  23.8149858  32.0757422
   7.0145279  23.3087579  31.7434020  20.2491282  32.6315159  27.5870284
  20.6324887  33.3806515  27.8168381  19.4535395  32.8780978  27.3282273
  20.1885064  32.7784853  27.5827858  12.1223456  24.3975562  42.5430439
  12.6794887  24.1689372  41.9108904  11.7984521  25.1581228  42.2665651
  12.1569867  24.4759399  42.4086936   9.0606573  25.3034590  25.1630663
   9.4405538  25.3214220  24.3781778   8.3199169  25.7488579  25.0421510
   9.0075411  25.3716365  25.0294231  16.6891864  23.6116782  30.7506242
  16.6886090  23.4565438  31.6090518  16.4848044  24.4579769  30.6947627
  16.6591642  23.7137402  30.8694181  14.4132716  28.2914283  34.4042448
  14.9086381  27.5737279  34.3646469  13.6032492  27.9885081  34.2896935
  14.3676609  28.1411930  34.3816174   9.8591327  32.1412097  26.5539453
   9.0502650  31.8178770  26.5072762  10.3666236  31.4345319  26.4867702
   9.8140994  31.9893413  26.5369747  16.4784535  31.0417971  37.0919577
  16.9039606  30.5192393  36.5390002  16.1141455  31.6398808  36.5708200
  16.4871137  31.0528198  36.9328587  13.0663134  34.7552235  33.4220735
  13.5374312  35.4692498  33.5910720  13.4023313  34.1550985  33.9580604
  13.1858249  34.7723700  33.5253111   9.9832629  19.5279706  40.3778829
  10.1160535  18.7310699  40.7059805  10.3677782  20.0546109  40.9577105
  10.0588958  19.4879623  40.5122332  13.7037080  34.5470169  40.1848427
  13.1558026  33.9228053  39.9168493  14.1650109  34.7364441  39.4692507
  13.6904290  34.4829220  40.0398858  13.0564984  16.4510032  36.9759923
  12.2510948  16.3407762  37.2927761  12.9271720  16.5522488  36.1189789
  12.9185117  16.4493702  36.8967963  16.5130945  22.6155524  37.5699620
  15.9293934  23.1164730  37.1577187  16.8335239  22.1085080  36.9363943
  16.4744120  22.6147359  37.4158127   9.0525744  21.5296119  27.8458294
   9.8741438  21.6994432  27.6039989   8.5895395  21.6843380  27.1224592
   9.1056906  21.5777852  27.7029939   7.6421076  19.5238881  38.6256723
   8.1865489  19.1830008  39.2161065   7.6958012  20.3824342  38.7678008
   7.7310195  19.5994140  38.7338597  13.2695407  35.5521242  36.7157769
  14.0893781  35.4084208  36.9774064  12.9889484  36.1767441  37.2574206
  13.3492150  35.6231594  36.8345708  29.7409057  43.2086094  29.6800645
  29.7103061  44.0630731  29.8518914  30.3390406  42.9081386  30.2386788
  29.8246215  43.2902590  29.7875447  14.3989770  40.0348872  34.9890221
  13.7794801  39.4441519  34.8200236  14.2973633  40.6260307  34.3554544
  14.2927445  40.0352955  34.8695210  21.4957665  41.7748414  29.3222684
  22.1937830  41.9536541  29.8144147  21.8109998  41.2518753  28.6993073
  21.6453002  41.7242186  29.3024694  19.6684529  37.1440810  33.4043958
  19.3387859  37.5951954  32.7347657  18.9929531  37.0656974  33.9516965
  19.5194965  37.1991946  33.3867182  26.8760937  33.1326333  31.6493569
  26.5614378  33.8229812  32.0813991  26.3587878  33.0771116  30.9479070
  26.7525407  33.2261222  31.6090518  26.2173370  43.1330834  27.7630980
  25.6884842  43.3490468  28.4228286  26.7398390  43.8266973  27.6831949
  26.2161823  43.2673971  27.8486579  22.5650193  43.2759703  25.0407368
  22.8046196  43.4837687  24.2282711  22.8866034  42.4717212  25.1496313
  22.6487351  43.1873804  24.9367921  17.8740483  35.2053099  28.8866906
  18.6286451  35.5731416  28.6483956  17.6968018  35.5792653  29.6546086
  17.9594961  35.3151287  28.9651795  16.2297548  37.6123418  25.5845019
  16.0473121  37.8295299  24.7586012  17.0923161  37.7262431  25.6403634
  16.3302137  37.6613316  25.4699506  21.9097267  34.6149829  28.6194043
  22.6383427  34.4365784  28.1732199  21.9992160  35.4567908  28.8301221
  22.0303929  34.7133707  28.5847561  15.7759575  40.8897591  24.0967492
  15.0617752  40.6035770  24.5089925  16.2603543  41.2294216  24.7373880
  15.7418938  40.8979240  24.2523127  25.3917261  43.7989364  30.4253550
  25.4864116  44.5378658  30.8793175  24.7676105  43.3706840  30.8588114
  25.3126291  43.8450685  30.5561697  24.0834504  37.5127293  33.2269121
  23.3790831  37.0236478  33.3853040  24.1319478  37.5249767  32.3557565
  23.9864555  37.4416941  33.1208461  25.4667816  35.1334582  35.9846286
  25.8478328  34.4512753  36.3714160  24.6631100  34.8444184  35.8021950
  25.4044278  34.9901631  36.0150342  16.9791553  36.0279302  31.4655090
  16.1113979  36.1001902  31.5312700  17.2666758  36.8301381  31.6543065
  16.8931302  36.1573449  31.5029857  14.9058906  39.5037561  28.9071967
  14.6183701  39.1338832  28.1703914  15.5929374  39.9732417  28.6455672
  14.9647803  39.5184531  28.7587042  24.1475363  36.6039685  30.4663672
  24.8501716  36.4047434  29.9883630  23.8819552  35.8315628  30.7732516
  24.2121995  36.4602651  30.4409114  13.2950832  40.3965952  37.4978369
  13.1536324  39.5449893  37.6222877  13.5791396  40.4394613  36.6740575
  13.3158678  40.2765702  37.3945993  23.4489425  42.2333042  31.6422857
  23.2024139  42.1528793  32.4759646  23.7774548  41.4486510  31.4485385
  23.4610668  42.1059308  31.7370381  26.2935472  31.2420355  33.5960219
  26.4119040  31.6996818  32.8627522  26.1197648  30.4365616  33.3096436
  26.2854643  31.1914127  33.4461152  19.6990524  40.0532584  36.5708200
  18.9086599  39.8724044  36.8925536  20.0951147  39.2759536  36.5538494
  19.6407400  39.9120045  36.6160748  23.2613036  33.0971158  34.5378881
  22.3906594  33.0709879  34.4912190  23.5153377  32.9248350  33.7204726
  23.1706596  33.0681301  34.4099017  20.2862176  35.1077386  35.9952351
  19.7700665  34.4157577  36.1203930  19.7256105  35.7748163  35.9414950
  20.1268690  35.1040644  36.0058417  25.5135470  35.0673220  33.0840765
  25.7185063  34.9995528  33.9297763  25.1861894  35.8732041  33.0161943
  25.4950718  35.1759160  33.2000421  20.2111621  42.3953788  34.8249733
  19.9074759  41.8409776  35.4260141  19.5091042  42.5745998  34.3377768
  20.0627831  42.3398571  34.8419439  19.2677718  39.7054308  29.3894435
  19.5437453  38.9873220  28.9772003  19.8676388  40.3039228  29.1815541
  19.3970983  39.6874679  29.2975196  28.7669158  35.6204984  32.5643531
  28.1543471  36.1075386  32.9497263  28.8633333  34.9448475  33.1081182
  28.6907055  35.5923293  32.7022389  22.7688239  37.3767825  27.6641030
  23.2231985  37.5478386  28.3888875  23.2428285  36.7635936  27.2638806
  22.9056559  37.3118711  27.7114792  16.6864387  38.0218149  37.6611786
  17.1465869  38.0957078  38.3986910  16.7320494  38.8199403  37.3111608
  16.7614942  38.1512296  37.7184543  22.0280834  35.8760619  33.8017899
  21.1816879  36.0483426  33.6759249  22.0251967  35.0709962  34.1383727
  21.9027984  35.7821648  33.8329026  23.0979135  39.6535833  34.6679957
  22.6239089  39.1277595  35.1785268  23.4697270  39.1065306  34.0994818
  23.0829024  39.4951830  34.6595104  25.0262634  40.5472388  27.7305711
  24.4985653  40.6301132  27.0411419  25.4858342  41.2890259  27.7270355
  25.0164485  40.6693050  27.6280406  16.8353951  40.4749789  36.6973921
  16.2107021  40.4868181  36.0899873  16.4999546  40.9509964  37.3465161
  16.6939443  40.5468306  36.7030489  17.0195699  38.8174907  22.7546606
  16.6708504  39.4694632  23.2178155  16.5392145  38.8032020  22.0270477
  16.8965943  38.9117961  22.7157697  21.3167879  37.9246518  36.0602889
  21.3410366  37.3906630  35.3715669  21.5679352  37.4163827  36.7228480
  21.3577797  37.7707422  36.0567534  17.5969201  36.6517336  35.4408634
  17.6367573  37.1526543  36.1543341  16.7718866  36.7427730  35.1714557
  17.4808727  36.7399153  35.5059172  17.3919608  41.4433438  28.2672650
  17.5322569  41.9405902  28.9701292  17.8902141  40.7419732  28.4086864
  17.4860689  41.4135416  28.3924229  18.9998813  38.2414524  25.5710669
  19.3214655  37.7617607  24.9169931  19.2625757  39.0514170  25.3801481
  19.0864839  38.2904422  25.4466161  22.8352191  34.1001818  31.3424725
  22.1920509  33.9499464  31.9109864  22.4951598  33.8544163  30.5773830
  22.6897269  34.0413940  31.3127740  27.4251538  42.0561245  30.7654734
  26.7542728  42.5990947  30.6367799  28.1191288  42.5256100  30.5236429
  27.4280405  42.2059516  30.7110262  27.5879665  38.5117128  33.6745107
  27.9407275  38.0846851  34.3490906  26.7294467  38.4267972  33.8046183
  27.5129110  38.4361869  33.7940117  22.0609925  40.1822648  27.0701333
  21.4674764  40.5039644  26.5185900  22.0985202  39.3363743  26.8622439
  21.9784314  40.1046976  26.9584104  29.0203725  33.6335540  34.6029420
  28.5134590  32.9264680  34.5350597  29.8171159  33.3028729  34.7330496
  29.0630965  33.4808691  34.6128414  24.9367741  40.1402152  30.5003083
  24.7081434  40.1634854  29.6581441  25.1965817  39.3159619  30.6198094
  24.9413929  40.0218232  30.3928281  17.9912504  38.6778699  31.7957279
  18.4669870  39.0395778  31.1607460  17.4901103  39.3335166  32.0757422
  17.9877863  38.8272887  31.7434020  20.0339157  40.8219898  25.1630663
  20.4138122  40.8399528  24.3781778  19.2931753  41.2673887  25.0421510
  19.9807995  40.8901673  25.0294231  27.6624447  39.1302090  30.7506242
  27.6618674  38.9750746  31.6090518  27.4580627  39.9765077  30.6947627
  27.6324225  39.2322710  30.8694181  24.0297568  31.9695340  36.9759923
  23.2243532  31.8593070  37.2927761  23.9004303  32.0707796  36.1189789
  23.8917701  31.9679010  36.8967963  20.0258328  37.0481427  27.8458294
  20.8474022  37.2179739  27.6039989  19.5627978  37.2028688  27.1224592
  20.0789490  37.0963160  27.7029939  18.6153659  35.0424189  38.6256723
  19.1598072  34.7015316  39.2161065  18.6690595  35.9009650  38.7678008
  18.7042779  35.1179448  38.7338597  18.4627298   4.6278917  16.6140692
  18.4321302   5.4823554  16.7858961  19.0608646   4.3274210  17.1726835
  18.5464455   4.7095414  16.7215494  11.6626982   3.7154568  21.3693622
  10.8064878   3.8763066  21.4202739  11.7094636   2.8446632  21.3898683
  11.5426094   3.6105370  21.3799688   6.0468122  13.2517286  17.1330854
   5.2951022  12.8732824  16.9046899   6.4954134  13.2835720  16.3849664
   6.0017789  13.2002893  16.9888356  14.9720699   9.9841094  30.9754078
  15.6787466   9.4893124  31.1041013  15.1608634  10.4250175  30.2456736
  15.1048605   9.9759444  30.8863124  11.4993082  13.6742655  12.5616401
  11.1644450  14.3519577  12.1260623  12.0119952  13.2847967  11.9733272
  11.5258663  13.7167234  12.4103192  11.0397373  15.6256924  18.5027512
  11.4236753  16.1943823  17.9632288  10.9756514  14.9006434  18.0233328
  11.0870800  15.6032388  18.3521375  14.5078803   5.7746612  24.0125274
  15.0534763   6.4531699  24.0719243  14.4495680   5.6334073  23.1526855
  14.5794718   5.8538614  23.8937334   7.6252878  13.2635678  19.3993626
   7.7263241  12.4536032  19.7090754   7.0294624  13.1692625  18.7693305
   7.5525417  13.1300706  19.3519865  16.2843872   7.2031219  14.8859002
  16.1683398   7.9538905  15.3151140  17.0799759   6.9455172  15.1355089
  16.3848461   7.2766066  14.9863093   7.4653618  18.1813267  20.8008482
   8.1091073  18.6226431  21.1904641   7.7909873  17.3766693  20.7138741
   7.6085447  18.1278462  20.8453960   0.8217923   9.2855965  19.0245960
   0.5868107   8.4523617  18.9178229   0.9603563   9.5660630  18.2107161
   0.8073585   9.2039468  18.8888315   8.1674198  11.1925242  16.1728344
   8.4890039  11.7330449  15.5689652   8.8146294  10.6222013  16.3050634
   8.3100253  11.1884417  16.1035379  10.2175906   3.1941237  16.2562731
  10.9156070   3.3729365  16.7484194  10.5328238   2.6711576  15.6333120
  10.3671243   3.1435009  16.2364741   2.8477143   4.9993977  24.1673837
   2.7235840   5.5856422  24.8023655   3.4995428   4.5054173  24.4686112
   2.9250792   5.0132781  24.3059766  10.4063841   9.5811682  16.2442522
  10.8457476   8.9728783  16.6897295  10.2568504   9.2019055  15.4727987
  10.4485307   9.4350153  16.1961690   7.8735484   8.1755694  23.4461348
   8.5184487   7.6828137  23.1272296   8.1137261   8.3180481  24.2727426
   8.0046069   8.1233136  23.5210881  10.4121575  11.0210600  23.0968240
  10.6944818  10.2262006  22.8754996  11.1407736  11.4991187  23.1173301
  10.5611139  10.9745197  23.0671255  14.0073178   7.9338863  13.1973291
  13.9224473   8.7899830  13.3422860  14.4957561   7.6583187  13.8655450
  14.0662075   8.0196185  13.3175373  14.9391611   4.5523658  14.6971026
  14.4103082   4.7683291  15.3568333  15.4616631   5.2459796  14.6171996
  14.9380064   4.6866794  14.7826626  20.3939664  10.1269962  20.0704071
  19.5637367  10.3380606  20.2337488  20.3448916   9.3007017  19.7946355
  20.2646399  10.0359568  20.0541436   6.8291219   8.4486874  13.4978494
   6.2448434   8.9536906  13.9044358   6.4261314   8.2229261  12.7575086
   6.6830522   8.4895123  13.4483520   2.3835247  14.1641635  20.3002166
   1.9002825  14.8892125  20.2761750   3.1958565  14.4617765  20.4112324
   2.4325995  14.3143989  20.3129445   8.4549401  12.9573816  22.9051980
   7.9376343  12.5981231  22.3013289   9.1523793  12.4335991  22.9158047
   8.4814982  12.8271504  22.8182239  12.1112993  13.4068630  28.8668154
  12.1996339  13.2194771  29.7146364  12.5402706  12.7606060  28.4673000
  12.1875096  13.2831638  28.9339905   9.6783453  12.6899790  27.8485816
   9.1154288  12.2772400  28.3725477  10.4404477  12.6152696  28.2678959
   9.7077902  12.6177191  27.9878816  11.2868433   4.6952526  11.9747415
  11.5264437   4.9030510  11.1622758  11.6084274   3.8910035  12.0836360
  11.3705591   4.6066628  11.8707968   5.2379444  14.6797811  20.4522446
   5.9400024  14.1649800  20.5095202   5.1576928  15.0071963  21.2569321
   5.3303205  14.6512038  20.5795238  19.8893622   2.7740363  23.8654492
  19.0522043   2.8442550  24.1002087  19.8581853   2.7764857  22.9928795
  19.7611904   2.7850590  23.7714040   6.2858351   4.9173398  29.5802861
   6.4578855   4.8079293  30.4288142   6.8227709   5.5627804  29.3434053
   6.3903355   4.9965400  29.6707958   4.5630220  10.8704163  19.9608054
   5.4019119  11.1027096  20.0081815   4.5941989  10.0008475  19.8915089
   4.6911937  10.7761110  19.9572699   5.1882923  11.2905039  24.2621359
   5.7281148  11.1476170  24.9324732   4.5052869  11.6901789  24.6305386
   5.1675077  11.3284709  24.4155781  14.6123808   6.9696039  19.4566384
  15.3681323   7.4027554  19.4955293  14.7186132   6.3200809  20.0301020
  14.7393978   6.9373523  19.5464409  17.6503979  10.7969316  20.2068787
  17.2139211  10.8006059  20.9627758  17.3166894  11.4774815  19.7748364
  17.5366599  10.8981772  20.2549619  12.2233053  12.8377649  31.5311937
  13.0073469  12.9508497  31.8967679  12.0229647  12.0118786  31.7270623
  12.3099078  12.7324369  31.6146323  12.3803446  14.7487751  25.1778393
  11.5818692  14.5087251  25.4352261  12.8289457  14.8002144  25.9245440
  12.3278057  14.7210142  25.3263317  20.7848325   7.5150236  19.0988424
  21.4464759   6.9540905  18.9984332  20.1439737   7.0202267  19.4241115
  20.7877193   7.3586645  19.1320764  11.6725133  10.8120368  11.4069347
  12.0876281  10.4805392  10.7153843  10.8417062  10.5789270  11.2789484
  11.6113142  10.7291624  11.2860195   1.0013482   8.2964109  21.6967525
   0.8189055   8.2710995  20.8439817   1.7363151   8.7663047  21.7356434
   1.0827546   8.3625471  21.5765444  17.0713156   8.5315619  18.8400413
  17.3068745   8.6760818  18.0127263  17.2202719   9.2958027  19.2331926
  17.1278959   8.6654673  18.7764017   4.0659233   5.0149112  28.2049634
   4.7899206   5.0002142  28.6914529   4.1675370   5.7244467  27.7071602
   4.1877442   5.1173815  28.2028421  18.9003613   7.3717285  16.6770017
  19.2311830   7.9044925  16.0710111  19.4736701   7.4256172  17.3331968
  19.0337292   7.4586853  16.6847798  11.4404183   8.4948196  33.0698581
  10.6477164   8.8091708  33.2551201  11.5553110   8.7099665  32.2319365
  11.3399593   8.5732033  32.9736916  14.1135502   5.2182187  17.3593597
  14.2082356   5.9571481  17.8133222  13.4894345   4.7899663  17.7928161
  14.0344532   5.2643508  17.4901744  12.3687976   8.3968400  28.0083878
  12.9426837   7.7595644  28.1632442  12.2902779   8.3972482  27.1393535
  12.4421210   8.3033511  27.9030288  14.3658523   7.0630927  10.5930549
  14.2838686   7.1333114  11.4585536  15.0038243   7.6260671  10.4014289
  14.4478360   7.1569898  10.6920498   7.7251694   6.8291665  20.0605075
   7.4670938   5.9963400  20.0336374   7.7800177   7.0549278  19.2197575
   7.6951472   6.7389436  19.9325212  12.8052744  -1.0679884  20.1609168
  12.1009071  -1.5570699  20.3193087  12.8537719  -1.0557410  19.2897612
  12.7082796  -1.1390236  20.0548507   6.6986406   4.3829428  20.5469970
   6.1235998   4.5421596  21.1833931   6.3222083   3.7464837  20.0838420
   6.5589219   4.3127240  20.5724528  10.3659695   2.8552777  25.4062348
   9.9774128   2.4306995  24.7514539   9.7014393   3.1034926  25.9139375
  10.2106623   2.8291498  25.3850216  20.0082964   2.6127782  18.1810178
  19.7519529   1.8007723  17.9908061  20.8512278   2.6205349  17.9540366
  20.0948989   2.4939779  18.1194995  11.4698633   7.0851381  13.6039155
  12.2839272   7.3766274  13.4921927  11.4057774   6.4311244  13.0297448
  11.5801372   7.0316576  13.5027992  17.6908123   9.7677378  28.0168731
  17.4546761   8.9365442  27.8980791  18.3351352   9.7162985  28.6023575
  17.7502794   9.6375066  28.0854624   7.3406541  10.5572899  18.7311467
   7.9780488  10.3184646  19.2763261   7.7661613  10.7610058  17.9964628
   7.4982708  10.5523909  18.7028625   2.0319184  12.7961235  22.6145771
   2.0723329  13.0676086  21.7865551   2.5913708  13.3203143  23.0303559
   2.1202530  12.9136990  22.5537659   7.9809356   5.7775189  13.0686357
   8.3654509   5.5582895  13.8202902   7.7320977   6.6038134  13.1987433
   8.0011429   5.8673335  13.1987433  18.7144544   9.5521826  24.0797025
  18.4090361  10.2849883  24.4410341  17.9950760   9.1459756  23.7989811
  18.5631886   9.6003559  24.0910162   9.7228013  11.0345322  20.4105253
   9.7967022  10.8720493  21.2647103  10.5397520  11.2235511  20.1665735
   9.8544372  11.0382064  20.5003279  24.4146336   6.1914827  23.4065370
  24.3470836   6.2110786  22.5367956  24.4001999   7.0345154  23.6321040
  24.4025093   6.3188562  23.3117846   3.4833770  11.3803184  17.4399697
   2.6571888  11.6264922  17.3133976   3.5445761  11.3015265  18.3061755
   3.3707937  11.4048133  17.5488641  14.8242683  -2.4050015  26.7306459
  15.5696275  -2.5940205  26.3169884  14.4079987  -1.8791777  26.1720315
  14.8727657  -2.3547870  26.5871032   8.2632599  13.9980065  15.1418727
   8.5530898  13.6069046  14.4177953   8.9936080  14.1796769  15.5824002
   8.4139483  13.9673878  15.1001534  22.2004953   4.9659213  21.6811964
  22.7512875   4.3327282  21.9209056  22.1849069   5.4974606  22.3727468
  22.2790150   4.9508161  21.8190822   8.8527344   8.7997810  26.2271857
   8.3539038   9.5113578  26.3056746   9.6627569   9.1198477  26.1890020
   8.8983451   8.9524659  26.2328426   6.2038515  15.9747447  18.2078877
   5.9838810  15.6844802  19.0005544   5.9833037  15.3162402  17.6796789
   6.1386109  15.8347155  18.2467785   5.1155462   8.0620763  20.4734578
   4.8268711   7.4358235  21.0080306   5.9838810   8.0041051  20.5399259
   5.2015714   7.9608308  20.5625533  15.9033360   3.2055547  20.7916560
  15.5598126   2.4845882  21.1423810  16.0026402   2.9969398  19.9494918
  15.8675403   3.0679750  20.7188240   8.3706470  17.3476837  16.9909569
   9.0230528  16.8153279  17.2200595   7.6732079  16.9945489  17.3777443
   8.3637188  17.2166360  17.0821737   5.3187735   9.7016015  16.3976943
   6.0733703  10.0829054  16.6112406   4.7258348  10.1527158  16.8523640
   5.3424449   9.8244842  16.4959822  16.3646389   9.6681251  16.3340548
  16.9304421  10.3274461  16.2499091  15.7174292  10.0130949  16.8056950
  16.3525145   9.8163192  16.3913305   6.6385962  10.8724576  21.7717059
   6.1166715  11.0124868  22.4568923   7.0259982  10.1135240  21.9619176
   6.6189663  10.7810100  21.9018135  12.8352967  12.6120035  15.7577627
  12.5939643  11.8787896  15.3504692  13.0154300  13.1606892  15.1043961
  12.8260591  12.5842426  15.6007850   8.0652287   7.9028595  17.1698550
   7.8695070   8.5103329  16.5758853   8.2886633   7.2096539  16.6890224
   8.0686929   7.8906120  17.0114631   6.4630818   4.7883333  17.2879418
   7.1853469   4.9524491  16.8283224   5.9838810   5.5092998  17.1818758
   6.4994548   4.9181562  17.2045032  14.4224325   1.1247132  22.6676103
  13.5835426   1.1508411  22.4314366  14.4928692   1.7717867  23.2481450
  14.3092719   1.2243257  22.7185220   4.1138434   7.1941405  26.3933558
   4.6259531   7.4725659  25.7442318   3.8274777   7.9330699  26.7596371
   4.1473297   7.3443759  26.3523436  18.2981849   6.3315118  19.9537345
  18.2115823   6.4870544  20.8072124  17.8432329   6.9753194  19.5796750
  18.2185106   6.4490873  20.0244452  12.1707665   3.6525866  18.5762904
  11.9242379   3.5721616  19.4099693  12.4992788   2.8679333  18.3825432
  12.1828909   3.5252131  18.6710427  16.0655714  10.3609225  22.3649686
  15.9270073  11.0590271  22.8698428  15.2855712  10.2057881  22.0085867
  15.9298941  10.4409391  22.3875960  14.4033799   6.6605600  28.6172067
  14.3981837   5.7885417  28.6214494  15.1094793   6.8593769  28.1441523
  14.5078803   6.5609474  28.5479103   8.1304692   6.3882584  27.9885887
   8.2748068   6.9683792  27.3528997   8.4780341   6.7658881  28.6935742
   8.2032154   6.5303288  27.9984882  10.3024610   5.5872752  25.7711019
   9.5547924   5.7803767  25.3659297  10.4566135   4.7617972  25.5335140
  10.2147037   5.4937864  25.6756425   7.2032447  14.5785356  24.8546914
   7.3522011  14.0188272  24.2020319   7.9832449  14.6577358  25.2379433
   7.3406541  14.5070921  24.8143863  17.5609087   9.7187479  13.1266185
  17.1815895   8.9324617  13.1195474  16.8975332  10.2674336  12.9837829
  17.4067561   9.6832303  13.1046982   9.7285748  14.7499999  26.1331405
   9.6529419  14.0808809  26.6882193   9.6575607  15.4517787  26.6472071
   9.7066355  14.7544906  26.2908253  10.3855995  13.2700998  16.9655011
  11.1505886  13.0010641  16.6437675  10.2834085  12.7851008  17.6825074
  10.4837490  13.1590562  17.0234839  12.9074655  10.3013181   8.9454960
  13.6747640  10.3613306   8.5360812  12.4605964   9.7293623   8.4611279
  12.9548083  10.2249757   8.8132671  13.8052451   9.1067837  21.2307693
  13.1297453   8.8753070  21.7321080  13.8144827   8.4989020  20.6049798
  13.7070955   8.9826762  21.2123845  10.9346595   3.9485666  27.9871746
  10.8705736   4.8095623  27.8591882  11.0743783   3.6317659  27.1867297
  10.9462065   4.0285833  27.8499959  15.8069185  11.9632970  13.4617871
  15.8889023  12.7699956  13.1379322  16.2918928  11.9828929  14.1858644
  15.8906343  12.0853632  13.5204769   9.6165689   6.6417806  22.1287949
   9.1927938   6.8422305  21.3926967   9.4410544   5.7946654  22.2412248
   9.5276569   6.5466587  22.0361639   9.1177382  18.1568319  24.5909406
   9.6073312  17.4579108  24.4085070   8.5461614  17.8592189  25.1785463
   9.1061912  18.0094542  24.6510447   4.9048134   7.1369857  17.5615921
   5.0612753   7.0716660  18.4171913   5.2448727   7.9118410  17.3494601
   4.9781369   7.2419055  17.6570515  11.4427278   6.5127741  16.4309284
  11.9842824   6.0098122  16.8947905  11.7573837   6.4592935  15.6198770
  11.5691675   6.4307162  16.3793096  15.3144386  10.7230388  33.5436197
  16.1279251  10.4515537  33.7041329  15.1539352  10.4237928  32.7396392
  15.4114334  10.6385314  33.4481602   9.6113728  11.9045092  13.7149312
   9.6806548  11.0459631  13.8542313  10.3902183  12.1216973  13.3868337
   9.7366578  11.8097956  13.6866470  12.5916548   1.4064045  26.4831585
  12.8058517   0.7674959  25.9294939  11.9750447   1.8509869  26.0539447
  12.5321877   1.3774189  26.3382016  14.0021216  14.3282793  17.9285806
  13.6101007  14.0249509  17.2108672  14.1574288  15.1651883  17.7390759
  13.9674805  14.4066630  17.7942303  14.7555636   3.0153110  27.4214892
  13.9432317   2.7079001  27.5028065  15.2145570   2.5352110  27.9857604
  14.7036020   2.8989603  27.5169486  14.1660890  10.8932782  17.8691836
  13.8075545  11.0647425  18.6455869  13.6799601  11.3545988  17.3119835
  14.0419587  10.9871753  17.9017105   8.9549256   6.5731948  10.4092071
   9.2441781   7.3496830  10.6835645   9.0421055   6.0620679  11.1106570
   9.0103512   6.6123866  10.5534568  11.8509143   4.4213182  32.2043594
  12.3208774   5.0455298  32.5911468  11.8971023   3.7530157  32.7636809
  11.9277019   4.4147862  32.3443666  15.3265630  11.7836678  28.8159037
  15.9645350  11.2896874  28.4821493  14.6839721  11.7114079  28.2311264
  15.3259856  11.6995687  28.6801392  17.0522630   3.6325824  23.3824953
  16.6250238   3.5452173  22.6273052  16.4148683   3.7403600  23.9679797
  16.8952237   3.6358484  23.3570394  15.3819886  12.4756486  25.4564394
  16.1712264  12.1245551  25.5766475  15.5563484  13.2892875  25.1941028
  15.5240168  12.5442344  25.4352262   5.1213197   5.8865212  22.5092183
   4.2801203   5.7869086  22.7171077   5.3303205   6.6560693  22.8606503
   5.0277889   5.9857256  22.5919498   8.9329862   3.8146611  21.7589780
   8.6292999   3.2602600  22.3600188   8.2309282   3.9938821  21.2717814
   8.7846071   3.7591394  21.7759486   6.9948213  11.0296332  26.4661878
   6.8868568  11.0398394  27.3323936   7.2043994  11.8551113  26.2766832
   7.0098324  11.1537407  26.5665970   5.0122005   8.2808975  23.9283816
   4.4209938   8.9218473  23.8986831   5.7743028   8.7046592  23.9015115
   5.0370265   8.4384813  23.9198963  21.1312426   8.1114744  24.9261094
  21.1895550   8.5601393  25.6721070  20.4978894   8.5213557  24.4891174
  21.0463721   8.2388479  24.9713642  14.7711521  13.7318286  21.3615840
  14.5731209  14.2209101  20.6672051  14.1499232  13.9359528  21.9399973
  14.6499085  13.8334824  21.3439063   8.8319499   5.5003183  15.7026084
   9.5761544   5.8877459  15.9409034   8.9780195   4.6560608  15.8666572
   8.9630084   5.4333656  15.7620054  11.8197375   1.0728656  21.6020004
  11.3457329   0.5470418  22.1125315  12.1915511   0.5258129  21.0334865
  11.8047264   0.9144653  21.5935151  18.0834106   6.1331032  23.0126784
  17.8432329   5.2937447  23.0169211  18.5626113   6.2131199  23.7367558
  18.1186289   6.0212432  23.1201586  13.7480875   1.9665211  14.6645757
  13.2203893   2.0493955  13.9751466  14.2076583   2.7083082  14.6610402
  13.7382725   2.0885873  14.5620453  20.0839293   2.9132489  20.9656043
  19.8449063   2.8728323  20.1276828  20.2473194   3.7603641  21.0921764
  20.0729596   3.0324574  20.8609525  16.6885323   7.2982438  26.8961088
  17.4119522   6.8454965  26.7172108  16.4235285   7.5787104  26.1133416
  16.7566596   7.2733407  26.7539804   2.2697867   9.9543072  25.0717732
   1.7397791   9.2635511  25.1212707   2.5422960   9.9453257  24.2430440
   2.2322589   9.8510204  24.9565148  13.3017957  10.5368774  13.7955414
  14.0252156  11.0026887  13.6519988  12.8618548  10.6042384  13.0453011
  13.3433649  10.6152611  13.6640196  12.4704112   7.3966317  25.0456103
  11.8561105   6.8524367  25.3404739  12.9871397   6.8830553  24.5661920
  12.4559775   7.2402726  25.0180332  11.7100409   8.4670587  22.7800402
  11.2828017   7.8420305  22.3465838  11.7025354   8.1845509  23.6059409
  11.6459551   8.3323367  22.8380230   8.5017054   7.6370899  30.4768975
   7.6512685   7.7742614  30.6126620   8.6645182   6.9034678  30.9216677
   8.4000918   7.5485001  30.5624574   7.7401805   4.5870669  24.6722579
   6.9093734   4.7544487  24.4657828   7.6853322   4.2106620  25.4571465
   7.6091220   4.5560401  24.7571108   6.1137849   2.8626261  15.2012697
   6.2540810   3.3598725  15.9041339   6.6120381   2.1612555  15.3426911
   6.2078930   2.8328240  15.3264276   6.1438071   3.7293372  12.5305274
   6.7783150   4.3253797  12.4654736   6.2263682   3.4296829  13.3451144
   6.2494622   3.7734280  12.6408361  19.1220637   6.2608849  25.3991638
  19.7138477   6.9006100  25.4309836  19.5579631   5.5631886  25.6883705
  19.2739068   6.2527200  25.4472471  10.9514027  10.6826222  26.0249532
  10.4439118  11.2362068  26.4690163  10.6540673  10.7434512  25.2068307
  10.8318912  10.7732533  25.9697989  13.1176209  -0.9520459  24.8674195
  13.5431280  -1.4047932  24.2557721  12.5033202  -1.5060388  25.1438983
  13.0904854  -1.1006483  24.8179220   2.6491059   5.9261213  15.7994820
   3.1583288   6.5225720  16.1806126   3.1225331   5.6587186  15.1171240
   2.7934435   5.9747028  15.7549343  13.5621807  14.5989479  13.9553476
  12.8451117  14.4250342  13.4900713  14.2128545  14.3642052  13.4228962
  13.5523657  14.5385272  13.8082693  16.1469778   3.4754068  17.6994781
  15.4760968   4.0183770  17.5707846  16.8409528   3.9448923  17.4576475
  16.1498646   3.6252339  17.6450308  10.1956512  15.6150780  22.9306539
   9.9722166  14.8569609  23.2990565   9.7066355  15.6448801  22.2086979
  10.0899961  15.5073004  22.8783280  16.3097906  -0.0690049  20.6085154
  16.6625516  -0.4960326  21.2830953  15.4512707  -0.1539205  20.7386230
  16.2347350  -0.1445308  20.7280164  14.3081171   3.1945320  24.5569996
  14.2879099   3.0128615  25.4104775  14.3560372   4.0657339  24.5329580
  14.3115812   3.2961858  24.6793291  12.2527501   9.7832512  30.4818473
  12.2123356   9.1382189  29.8963629  13.0650820   9.7269129  30.7943885
  12.3670655   9.6791479  30.4415422   8.8434969  15.8351238  20.3843624
   8.4295367  15.1725368  19.9947465   9.5282343  15.9829097  19.8639318
   8.8833341  15.7591896  20.2500121  12.2100263  14.9941323  21.1367240
  11.8116546  15.1043594  20.3688060  11.5951483  15.2023390  21.7193800
  12.0599152  15.0414891  21.1098540  10.7828165   1.6015471  14.0041380
  10.1893004   1.9232468  13.4525947  10.8203443   0.7556566  13.7962486
  10.7002554   1.5239799  13.8924151  13.6585982   1.5594976  17.4343130
  13.4299675   1.5827677  16.5921488  13.9184058   0.7352443  17.5538141
  13.6632170   1.4411056  17.3268328   7.9405210   3.4129449  27.0368230
   7.4284113   2.8050632  27.3953262   7.7684706   4.1286041  27.5042206
   7.8394847   3.4292748  27.1584454  19.9442106   9.5693290  14.5210331
  20.3275711  10.3184646  14.7508428  19.1486219   9.8159110  14.2622320
  19.8835888   9.7162984  14.5167904  11.8174280   1.3353693  29.4770486
  12.3745710   1.1067503  28.8448951  11.4935345   2.0959359  29.2005698
  11.8520690   1.4137530  29.3426983   9.5357398   4.4221347  30.4422493
  10.2868725   4.7373023  30.7562047   9.7279974   4.2200517  29.6156415
   9.6748812   4.4388728  30.3665889  16.3842688   0.5494913  17.6846288
  16.3836914   0.3943569  18.5430565  16.1798868   1.3957900  17.6287674
  16.3542466   0.6515534  17.8034228  14.1083540   5.2292415  21.3382495
  14.6037205   4.5115410  21.2986516  13.2983316   4.9263212  21.2236982
  14.0627433   5.0790061  21.3156221   9.5542151   9.0790228  13.4879500
   8.7453474   8.7556901  13.4412809  10.0617060   8.3723450  13.4207748
   9.5091818   8.9271544  13.4709794  16.1735359   7.9796102  24.0259624
  16.5990430   7.4570524  23.4730049  15.8092278   8.5776940  23.5048247
  16.1821961   7.9906329  23.8668634   5.8089438  16.2760320  22.7856970
   6.1235997  17.0896708  22.7934751   6.2182852  15.8910538  23.4539129
   5.9157536  16.3389022  22.8861061  12.7613958  11.6930366  20.3560782
  13.2325136  12.4070629  20.5250767  13.0974137  11.0929117  20.8920651
  12.8809073  11.7101831  20.4593157  14.8490943  13.3031680  32.5352854
  14.9587908  12.5140240  32.8909601  15.1781839  13.2137616  31.7327192
  14.9143348  13.1737533  32.4695244  13.3987904  11.4848301  27.1188474
  12.8508850  10.8606184  26.8508539  13.8600933  11.6742573  26.4032554
  13.3855114  11.4207351  26.9738905  16.2081769  -0.4466345  24.5039666
  15.6244758   0.0542862  24.0917234  16.5286063  -0.9536789  23.8703990
  16.1694944  -0.4474510  24.3498174   3.1502459  10.2233428  22.4335578
   3.7547316  10.1829262  21.8049399   2.9429771  11.0704580  22.4639634
   3.2091356  10.3421431  22.3451694  12.9646231  12.4899373  23.6497815
  13.7844605  12.3462339  23.9114111  12.6840308  13.1145572  24.1914253
  13.0442974  12.5609725  23.7685755  29.4359881  20.1464225  16.6140692
  29.4053885  21.0008862  16.7858961  30.0341230  19.8459518  17.1726835
  29.5197039  20.2280722  16.7215494  17.0200706  28.7702594  17.1330854
  16.2683605  28.3918132  16.9046899  17.4686717  28.8021027  16.3849664
  16.9750372  28.7188201  16.9888356  25.9453282  25.5026402  30.9754078
  26.6520050  25.0078432  31.1041013  26.1341218  25.9435483  30.2456736
  26.0781188  25.4944752  30.8863124  22.4725666  29.1927963  12.5616401
  22.1377034  29.8704885  12.1260623  22.9852536  28.8033275  11.9733272
  22.4991247  29.2352542  12.4103192  22.0129957  31.1442232  18.5027512
  22.3969336  31.7129131  17.9632288  21.9489098  30.4191742  18.0233328
  22.0603384  31.1217695  18.3521375  18.5985462  28.7820986  19.3993626
  18.6995825  27.9721340  19.7090754  18.0027207  28.6877932  18.7693305
  18.5258000  28.6486014  19.3519865  27.2576456  22.7216527  14.8859002
  27.1415982  23.4724213  15.3151140  28.0532342  22.4640480  15.1355089
  27.3581045  22.7951374  14.9863093  18.4386201  33.6998575  20.8008482
  19.0823657  34.1411739  21.1904641  18.7642457  32.8952001  20.7138741
  18.5818030  33.6463770  20.8453960  11.7950506  24.8041273  19.0245960
  11.5600691  23.9708925  18.9178229  11.9336147  25.0845938  18.2107161
  11.7806169  24.7224776  18.8888315  14.0940594  16.9727003  21.9230268
  13.4745625  16.3819650  21.7540282  13.9924457  17.5638438  21.2894591
  13.9878269  16.9731086  21.8035257  19.1406781  26.7110550  16.1728344
  19.4622622  27.2515757  15.5689652  19.7878878  26.1407321  16.3050634
  19.2832836  26.7069725  16.1035379  13.8209727  20.5179285  24.1673837
  13.6968423  21.1041730  24.8023655  14.4728011  20.0239481  24.4686112
  13.8983376  20.5318089  24.3059766  21.3854159  26.5395908  23.0968240
  21.6677402  25.7447313  22.8754996  22.1140319  27.0176495  23.1173301
  21.5343723  26.4930505  23.0671255  19.3635353  14.0818942  20.3384005
  19.0338683  14.5330085  19.6687704  18.6880355  14.0035105  20.8857012
  19.2145789  14.1370077  20.3207229  24.9805761  23.4524171  13.1973291
  24.8957056  24.3085138  13.3422860  25.4690144  23.1768495  13.8655450
  25.0394658  23.5381493  13.3175373  26.5711761  10.0704465  18.5833616
  26.2565202  10.7607943  19.0154038  26.0538702  10.0149247  17.8819117
  26.4476231  10.1639353  18.5430565  31.3672247  25.6455270  20.0704071
  30.5369950  25.8565914  20.2337488  31.3181500  24.8192324  19.7946355
  31.2378983  25.5544876  20.0541436  17.8023802  23.9672182  13.4978494
  17.2181017  24.4722214  13.9044358  17.3993897  23.7414569  12.7575086
  17.6563106  24.0080431  13.4483520  13.3567831  29.6826943  20.3002166
  12.8735409  30.4077433  20.2761750  14.1691149  29.9803073  20.4112324
  13.4058579  29.8329297  20.3129445  19.4281985  28.4759124  22.9051980
  18.9108926  28.1166539  22.3013289  20.1256376  27.9521299  22.9158047
  19.4547566  28.3456812  22.8182239  23.0845577  28.9253938  28.8668154
  23.1728923  28.7380079  29.7146364  23.5135289  28.2791368  28.4673000
  23.1607679  28.8016946  28.9339905  20.6516037  28.2085098  27.8485816
  20.0886871  27.7957708  28.3725477  21.4137060  28.1338004  28.2678959
  20.6810485  28.1362499  27.9878816  17.5691307  12.1431230  15.8206953
  18.3237275  12.5109547  15.5824003  17.3918841  12.5170784  16.5886133
  17.6545785  12.2529418  15.8991842  16.2112028  30.1983119  20.4522446
  16.9132607  29.6835108  20.5095202  16.1309511  30.5257271  21.2569321
  16.3035788  30.1697345  20.5795238  30.8626206  18.2925671  23.8654492
  30.0254627  18.3627858  24.1002087  30.8314436  18.2950165  22.9928795
  30.7344488  18.3035898  23.7714040  17.2590935  20.4358706  29.5802861
  17.4311438  20.3264601  30.4288142  17.7960292  21.0813112  29.3434053
  17.3635939  20.5150708  29.6707958  15.9248371  14.5501549  12.5185066
  15.7423945  14.7673430  11.6926059  16.7873985  14.6640562  12.5743680
  16.0252961  14.5991447  12.4039553  21.6048091  11.5527960  15.5534090
  22.3334251  11.3743915  15.1072246  21.6942984  12.3946040  15.7641268
  21.7254753  11.6511838  15.5187607  28.6236562  26.3154624  20.2068787
  28.1871794  26.3191367  20.9627758  28.2899478  26.9960123  19.7748364
  28.5099182  26.4167080  20.2549619  23.1965636  28.3562957  31.5311937
  23.9806053  28.4693805  31.8967679  22.9962231  27.5304094  31.7270623
  23.2831661  28.2509677  31.6146323  11.5652652  23.0290637  24.4155781
  11.2991067  22.2129754  24.5746771  11.5791216  23.0743793  23.5451296
  11.5277374  22.9147542  24.3109263  28.5434045  13.3568452  22.4498215
  29.1859954  13.4266557  23.0360130  28.7957066  12.6897675  21.9477757
  28.6756177  13.2694801  22.4625494  15.4710399  17.8275722  11.0307539
  14.7568576  17.5413901  11.4429972  15.9554367  18.1672348  11.6713927
  15.4369762  17.8357371  11.1863174  16.3151258  16.5669016  27.0622789
  15.6223055  16.0965995  27.3083520  16.9311585  16.3407320  27.6364496
  16.3035788  16.4636147  27.1831941  23.3536029  30.2673059  25.1778393
  22.5551275  30.0272559  25.4352261  23.8022041  30.3187452  25.9245440
  23.3010641  30.2395450  25.3263317  31.7580909  23.0335544  19.0988424
  32.4197343  22.4726213  18.9984332  31.1172321  22.5387575  19.4241115
  31.7609776  22.8771953  19.1320764  22.6457716  26.3305676  11.4069347
  23.0608865  25.9990699  10.7153843  21.8149646  26.0974578  11.2789484
  22.5845725  26.2476932  11.2860195  11.9746065  23.8149417  21.6967525
  11.7921638  23.7896303  20.8439817  12.7095734  24.2848355  21.7356434
  12.0560129  23.8810779  21.5765444  28.0445739  24.0500927  18.8400413
  28.2801329  24.1946126  18.0127263  28.1935303  24.8143335  19.2331926
  28.1011543  24.1839981  18.7764017  15.0391817  20.5334420  28.2049634
  15.7631789  20.5187450  28.6914529  15.1407953  21.2429775  27.7071602
  15.1610026  20.6359123  28.2028421  29.8736196  22.8902593  16.6770017
  30.2044413  23.4230233  16.0710111  30.4469284  22.9441480  17.3331968
  30.0069875  22.9772161  16.6847798  22.4136766  24.0133504  33.0698581
  21.6209747  24.3277016  33.2551201  22.5285693  24.2284973  32.2319365
  22.3132177  24.0917341  32.9736916  23.3420559  23.9153708  28.0083878
  23.9159421  23.2780952  28.1632442  23.2635363  23.9157790  27.1393535
  23.4153794  23.8218819  27.9030288  11.9416976  20.6942917  21.8466592
  12.5190478  20.5579368  22.4858837  11.2431037  20.2378701  22.1012176
  11.9237997  20.6065184  21.9788881  25.3391107  22.5816235  10.5930549
  25.2571269  22.6518422  11.4585536  25.9770827  23.1445979  10.4014289
  25.4210944  22.6755206  10.6920498  23.7785328  14.4505424  20.1609168
  23.0741655  13.9614609  20.3193087  23.8270302  14.4627898  19.2897612
  23.6815379  14.3795072  20.0548507  30.9815548  18.1313089  18.1810178
  30.7252112  17.3193031  17.9908061  31.8244862  18.1390657  17.9540366
  31.0681573  18.0125087  18.1194995   7.4175809  19.5454810  18.5614410
   7.5036061  19.1686679  19.3427940   8.0451606  19.1715256  18.0834369
   7.5232360  19.4340292  18.6059888  25.1618640  12.0712714  22.9186332
  25.5429152  11.3890885  23.3054207  24.3581924  11.7822316  22.7361997
  25.0995102  11.9279762  22.9490388  28.6640707  25.2862685  28.0168731
  28.4279344  24.4550750  27.8980791  29.3083936  25.2348293  28.6023575
  28.7235378  25.1560373  28.0854624  13.0051767  28.3146543  22.6145771
  13.0455913  28.5861394  21.7865551  13.5646291  28.8388451  23.0303559
  13.0935113  28.4322298  22.5537659  18.9541940  21.2960497  13.0686357
  19.3387093  21.0768203  13.8202902  18.7053560  22.1223442  13.1987433
  18.9744013  21.3858643  13.1987433  19.1210480  14.5766912  32.7848941
  18.8063922  15.3466475  32.5218504  18.8000413  14.0137168  32.2001168
  19.0269400  14.6077180  32.6590291  29.6877128  25.0707134  24.0797025
  29.3822945  25.8035191  24.4410341  28.9683343  24.6645064  23.7989811
  29.5364470  25.1188867  24.0910162  20.6960597  26.5530629  20.4105253
  20.7699605  26.3905801  21.2647103  21.5130103  26.7420819  20.1665735
  20.8276956  26.5567372  20.5003279  35.3878920  21.7100135  23.4065370
  35.3203420  21.7296094  22.5367956  35.3734582  22.5530462  23.6321040
  35.3757676  21.8373870  23.3117846  14.4566354  26.8988492  17.4399697
  13.6304471  27.1450229  17.3133976  14.5178345  26.8200573  18.3061755
  14.3440521  26.9233441  17.5488641  16.6742377  12.9657433  18.3995137
  15.8064803  13.0380033  18.4652746  16.9617582  13.7679512  18.5883112
  16.5882126  13.0951580  18.4369904  25.7975266  13.1135293  26.7306459
  26.5428858  12.9245103  26.3169884  25.3812571  13.6393531  26.1720315
  25.8460240  13.1637438  26.5871032  19.2365183  29.5165372  15.1418727
  19.5263481  29.1254354  14.4177953  19.9668664  29.6982077  15.5824002
  19.3872067  29.4859186  15.1001534  33.1737537  20.4844521  21.6811964
  33.7245459  19.8512590  21.9209056  33.1581652  21.0159914  22.3727468
  33.2522733  20.4693469  21.8190822  17.1771098  31.4932755  18.2078877
  16.9571394  31.2030110  19.0005544  16.9565620  30.8347710  17.6796789
  17.1118692  31.3532463  18.2467785  19.3439054  32.8662145  16.9909569
  19.9963112  32.3338587  17.2200595  18.6464663  32.5130797  17.3777443
  19.3369772  32.7351668  17.0821737  16.2920319  25.2201322  16.3976943
  17.0466287  25.6014362  16.6112406  15.6990932  25.6712466  16.8523640
  16.3157032  25.3430150  16.4959822  27.3378972  25.1866559  16.3340548
  27.9037005  25.8459769  16.2499091  26.6906876  25.5316257  16.8056950
  27.3257729  25.3348500  16.3913305  18.7526986  17.1764163  31.5234156
  17.9426762  17.4821943  31.4123998  19.2301673  17.8969745  31.6386740
  18.7030465  17.3278764  31.5241227  14.6009729  16.4415693  15.8412013
  14.3134525  16.0716963  15.1043961  15.2880198  16.9110548  15.5795718
  14.6598627  16.4562662  15.6927089  23.8085550  28.1305343  15.7577627
  23.5672226  27.3973204  15.3504692  23.9886883  28.6792200  15.1043961
  23.7993174  28.1027734  15.6007850  23.8426187  13.5417817  17.4003719
  24.5452540  13.3425565  16.9223677  23.5770376  12.7693759  17.7072562
  23.9072819  13.3980783  17.3749161  29.2714433  21.8500426  19.9537345
  29.1848407  22.0055852  20.8072124  28.8164912  22.4938502  19.5796750
  29.1917689  21.9676181  20.0244452  12.1737924  17.2196905  16.6897294
  12.2754061  18.0223066  17.0178270  12.9693811  17.0184241  16.3920375
  12.3065830  17.3082804  16.6932650  18.6054743  14.8053102  26.4534600
  18.4137940  14.8208236  27.3034023  19.4553339  15.0016776  26.4301254
  18.7030465  14.8367453  26.5757894  12.9901656  17.3344083  24.4318416
  12.8487148  16.4828024  24.5562924  13.2742220  17.3772744  23.6080622
  13.0109502  17.2143833  24.3286040  27.0388297  25.8794533  22.3649686
  26.9002657  26.5775579  22.8698428  26.2588295  25.7243189  22.0085867
  26.9031524  25.9594699  22.3875960  25.3766383  22.1790908  28.6172067
  25.3714421  21.3070725  28.6214494  26.0827376  22.3779077  28.1441523
  25.4811387  22.0794782  28.5479103  18.1765031  30.0970664  24.8546914
  18.3254595  29.5373580  24.2020319  18.9565033  30.1762666  25.2379433
  18.3139124  30.0256229  24.8143863  28.5341670  25.2372787  13.1266185
  28.1548479  24.4509924  13.1195474  27.8707916  25.7859644  12.9837829
  28.3800145  25.2017611  13.1046982  20.7018331  30.2685307  26.1331405
  20.6262003  29.5994117  26.6882193  20.6308191  30.9703095  26.6472071
  20.6798938  30.2730214  26.2908253  21.5158970  15.0008611  26.6606423
  21.9731584  15.7332585  26.7879215  21.5915299  14.5775076  27.4193679
  21.5949940  15.0465849  26.7907499  13.7591961  15.2474431  27.7495866
  13.2234151  14.6354789  28.0656634  13.8209726  15.8222567  28.4029533
  13.6887594  15.2421359  27.8931293  25.9886296   8.1798486  20.5300266
  26.1069864   8.6374950  19.7967568  25.8148472   7.3743748  20.2436483
  25.9805467   8.1292258  20.3801199  21.3588578  28.7886306  16.9655011
  22.1238469  28.5195949  16.6437675  21.2566668  28.3036316  17.6825074
  21.4570074  28.6775870  17.0234839  19.3941348  16.9910715  23.5048247
  18.6037423  16.8102175  23.8265583  19.7901971  16.2137668  23.4878541
  19.3358224  16.8498176  23.5500795  23.8807239  25.8198489   8.9454960
  24.6480224  25.8798614   8.5360812  23.4338548  25.2478931   8.4611279
  23.9280666  25.7435065   8.8132671  24.7785034  24.6253145  21.2307693
  24.1030036  24.3938377  21.7321080  24.7877411  24.0174328  20.6049798
  24.6803539  24.5012070  21.2123845  26.7801769  27.4818278  13.4617871
  26.8621606  28.2885264  13.1379322  27.2651511  27.5014237  14.1858644
  26.8638927  27.6038940  13.5204769  20.0909966  33.6753626  24.5909406
  20.5805896  32.9764416  24.4085070  19.5194198  33.3777496  25.1785463
  20.0794496  33.5279850  24.6510447  26.2876969  26.2415696  33.5436197
  27.1011835  25.9700845  33.7041329  26.1271936  25.9423236  32.7396392
  26.3846918  26.1570622  33.4481602  20.5846312  27.4230400  13.7149312
  20.6539132  26.5644939  13.8542313  21.3634767  27.6402281  13.3868337
  20.7099162  27.3283264  13.6866470  23.5649131  16.9249353  26.4831585
  23.7791101  16.2860267  25.9294939  22.9483030  17.3695177  26.0539447
  23.5054461  16.8959497  26.3382016  24.9753799  29.8468101  17.9285806
  24.5833591  29.5434816  17.2108672  25.1306871  30.6837191  17.7390759
  24.9407389  29.9251938  17.7942303  12.4514979  19.8390115  17.8776688
  12.8313944  20.2574660  17.2136956  11.8770344  20.4203571  18.1845532
  12.4226304  19.9867974  17.8253429  25.7288219  18.5338418  27.4214892
  24.9164901  18.2264309  27.5028065  26.1878154  18.0537418  27.9857604
  25.6768604  18.4174911  27.5169486  25.1393474  26.4118090  17.8691836
  24.7808129  26.5832733  18.6455869  24.6532185  26.8731296  17.3119835
  25.0152171  26.5057061  17.9017105  22.9563860  10.0349289  21.4718928
  22.0857418  10.0088010  21.4252237  23.2104201   9.8626481  20.6544773
  22.8657420  10.0059432  21.3439064  19.9281839  22.0917256  10.4092071
  20.2174364  22.8682138  10.6835645  20.0153638  21.5805987  11.1106570
  19.9836096  22.1309174  10.5534568  22.8241727  19.9398490  32.2043594
  23.2941358  20.5640606  32.5911468  22.8703607  19.2715465  32.7636809
  22.9009603  19.9333170  32.3443666  19.9813000  12.0455517  22.9292398
  19.4651489  11.3535709  23.0543977  19.4206929  12.7126294  22.8754997
  19.8219514  12.0418775  22.9398464  22.0505234  12.5848477  24.7585251
  21.6636987  12.6097509  25.5398780  21.5638171  12.0190156  24.3059767
  21.9217743  12.5044228  24.8073154  26.2998213  27.3021986  28.8159037
  26.9377934  26.8082182  28.4821493  25.6572305  27.2299387  28.2311264
  26.2992440  27.2180995  28.6801392  28.0255213  19.1511132  23.3824953
  27.5982821  19.0637481  22.6273052  27.3881266  19.2588908  23.9679797
  27.8684821  19.1543792  23.3570394  21.7162376   9.4715463  27.0495510
  22.3455494  10.0075763  26.7716581  21.8848238   9.3792822  27.9009076
  21.8340170   9.5376825  27.1344039  21.5176290  14.2586657  29.3221922
  22.3449720  13.9871806  29.3780536  21.5384137  15.0547499  29.6785740
  21.6429141  14.3366412  29.3837105  26.3552470  27.9941794  25.4564394
  27.1444848  27.6430859  25.5766475  26.5296068  28.8078183  25.1941028
  26.4972752  28.0627652  25.4352262  13.5721347  19.0270057  20.3376933
  13.1778045  19.1013069  19.5627043  13.0161464  19.4128003  20.8885295
  13.4324160  19.0951832  20.3044593  25.2086294  12.0051351  20.0180812
  25.4135887  11.9373659  20.8637809  24.8812718  12.8110172  19.9501990
  25.1901542  12.1137292  20.1340467  18.9628542  16.6432439  16.3234482
  19.2388277  15.9251352  15.9112050  19.5627212  17.2417359  16.1155588
  19.0921807  16.6252810  16.2315243  28.4619982  12.5583115  19.4983578
  27.8494295  13.0453518  19.8837310  28.5584157  11.8826606  20.0421229
  28.3857879  12.5301424  19.6362436  22.4639063  14.3145957  14.5981077
  22.9182809  14.4856517  15.3228922  22.9379109  13.7014067  14.1978853
  22.6007383  14.2496842  14.6454839  16.3815211  14.9596280  24.5951833
  16.8416693  15.0335210  25.3326957  16.4271318  15.7577534  24.2451655
  16.4565766  15.0890427  24.6524590  18.0298561  15.6262975  29.1623860
  17.6384126  14.9796322  29.5979638  18.1984423  16.2174410  29.7818116
  17.9969471  15.6177243  29.3186566  32.1045010  23.6300052  24.9261094
  32.1628133  24.0786701  25.6721070  31.4711477  24.0398865  24.4891174
  32.0196305  23.7573787  24.9713642  25.7444104  29.2503594  21.3615840
  25.5463793  29.7394409  20.6672051  25.1231815  29.4544836  21.9399973
  25.6231669  29.3520132  21.3439063  21.7231658  12.8138750  20.7357946
  20.8767703  12.9861558  20.6099296  21.7202791  12.0088094  21.0723774
  21.5978808  12.7199779  20.7669073  13.1702989  18.5885471  26.9703549
  14.0328602  18.4881180  26.8840879  12.8394772  18.0080180  26.4089122
  13.2488185  18.4877098  26.8748955  29.0566689  21.6516340  23.0126784
  28.8164912  20.8122755  23.0169211  29.5358696  21.7316507  23.7367558
  29.0918873  21.5397740  23.1201586  31.0571876  18.4317797  20.9656043
  30.8181646  18.3913631  20.1276828  31.2205777  19.2788949  21.0921764
  31.0462180  18.5509882  20.8609525  27.6617906  22.8167746  26.8961088
  28.3852105  22.3640273  26.7172108  27.3967869  23.0972412  26.1133416
  27.7299180  22.7918715  26.7539804  16.5304775  17.4127920  23.6313968
  15.9057845  17.4246312  23.0239920  16.1950370  17.8888095  24.2805208
  16.3890267  17.4846437  23.6370536  16.7146523  15.7553038   9.6886653
  16.3659328  16.4072764  10.1518202  16.2342969  15.7410151   8.9610524
  16.5916767  15.8496092   9.6497744  24.2750541  26.0554082  13.7955414
  24.9984740  26.5212195  13.6519988  23.8351132  26.1227692  13.0453011
  24.3166233  26.1337919  13.6640196  22.6832993  23.9855895  22.7800402
  22.2560601  23.3605613  22.3465838  22.6757937  23.7030816  23.6059409
  22.6192134  23.8508675  22.8380230  15.7995520  19.0221068  25.8488836
  15.9589007  18.2664392  26.2540558  15.6188414  19.5712007  26.5029574
  15.7960879  18.9914881  26.0051542  23.7415823  11.1882303  26.4039626
  23.2456384  11.3845977  25.7131192  24.4984885  11.5874972  26.2328427
  23.7802648  11.2760037  26.2759762  21.0118703  14.8624649  22.9942936
  21.0361190  14.3284761  22.3055716  21.2630176  14.3541958  23.6568527
  21.0528621  14.7085553  22.9907581   8.5226293  22.1456144  22.4286080
   8.4169742  22.1002988  21.5638164   7.7726513  22.4909925  22.7100365
   8.3961895  22.1897052  22.3423410  17.2920025  13.5895467  22.3748680
  17.3318397  14.0904674  23.0883388  16.4669690  13.6805861  22.1054603
  17.1759551  13.6777284  22.4399219  19.4749638  23.1556207  30.4768975
  18.6245268  23.2927922  30.6126620  19.6377766  22.4219986  30.9216677
  19.3733501  23.0670309  30.5624574  16.5218172  13.5964870  30.3078990
  17.1470875  13.0527003  30.5808422  16.0668652  13.1159788  29.7386781
  16.5466432  13.4454351  30.2640584  17.0870432  18.3811569  15.2012697
  17.2273393  18.8784033  15.9041339  17.5852965  17.6797863  15.3426911
  17.1811513  18.3513548  15.3264276  17.1170655  19.2478680  12.5305274
  17.7515734  19.8439105  12.4654736  17.1996265  18.9482137  13.3451144
  17.2227206  19.2919588  12.6408361  30.0953220  21.7794157  25.3991638
  30.6871061  22.4191408  25.4309836  30.5312215  21.0817194  25.6883705
  30.2471652  21.7712508  25.4472471  18.6949637  15.1792655  12.5050716
  19.0165478  14.6995738  11.8509978  18.9576581  15.9892301  12.3141528
  18.7815663  15.2282553  12.3806208  24.0908792  14.5664849  24.8674195
  24.5163864  14.1137376  24.2557721  23.4765786  14.0124920  25.1438983
  24.0637438  14.4178825  24.8179220  13.6223642  21.4446521  15.7994820
  14.1315872  22.0411028  16.1806126  14.0957915  21.1772494  15.1171240
  13.7667018  21.4932336  15.7549343  24.5354390  30.1174787  13.9553476
  23.8183700  29.9435649  13.4900713  25.1861128  29.8827360  13.4228962
  24.5256241  30.0570580  13.8082693  22.5303015  11.0379949  18.2764772
  21.8871333  10.8877595  18.8449911  22.1902422  10.7922294  17.5113877
  22.3848093  10.9792071  18.2467787  27.1202362  18.9939376  17.6994781
  26.4493552  19.5369078  17.5707846  27.8142112  19.4634231  17.4576475
  27.1231229  19.1437647  17.6450308  21.1689095  31.1336088  22.9306539
  20.9454750  30.3754917  23.2990565  20.6798939  31.1634109  22.2086979
  21.0632544  31.0258312  22.8783280  27.2830489  15.4495259  20.6085154
  27.6358099  15.0224982  21.2830953  26.4245291  15.3646103  20.7386230
  27.2079934  15.3740000  20.7280164  15.9814174  18.0802779  18.6668000
  15.2626163  18.4966912  18.9340864  16.3526536  18.6457018  18.1159639
  15.9306106  18.2252061  18.6250807  23.2260085  25.3017820  30.4818473
  23.1855940  24.6567497  29.8963629  24.0383403  25.2454437  30.7943885
  23.3403238  25.1976787  30.4415422  19.8167552  31.3536546  20.3843624
  19.4027951  30.6910676  19.9947465  20.5014927  31.5014405  19.8639318
  19.8565924  31.2777204  20.2500121  23.1832847  30.5126631  21.1367240
  22.7849130  30.6228902  20.3688060  22.5684066  30.7208697  21.7193800
  23.0331736  30.5600199  21.1098540  28.7154549  10.5713671  21.5369466
  28.2085414   9.8642811  21.4690644  29.5121983  10.2406860  21.6670543
  28.7581788  10.4186823  21.5468461  13.7603508  17.3752332  29.6870592
  13.5906099  18.0353707  29.1418799  13.3169458  17.5858893  30.4083081
  13.6702842  17.5038314  29.7132222  17.6863328  15.6156830  18.7297326
  18.1620694  15.9773910  18.0947507  17.1851927  16.2713297  19.0097469
  17.6828687  15.7651019  18.6774067  30.9174689  25.0878598  14.5210331
  31.3008295  25.8369954  14.7508428  30.1218803  25.3344418  14.2622320
  30.8568471  25.2348292  14.5167904  22.7906864  16.8539001  29.4770486
  23.3478294  16.6252811  28.8448951  22.4667929  17.6144667  29.2005698
  22.8253274  16.9322838  29.3426983  10.6605573  20.2799197  24.9459082
  10.1132292  19.6099843  25.0639950  11.4497951  19.9129045  25.0102549
  10.6957756  20.1264184  24.9727782  20.5089981  19.9406655  30.4422493
  21.2601308  20.2558331  30.7562047  20.7012558  19.7385825  29.6156415
  20.6481395  19.9574036  30.3665889  19.7289981  17.7598030  12.0970710
  20.1088946  17.7777659  11.3121824  18.9882577  18.2052018  11.9761557
  19.6758819  17.8279804  11.9634278  27.3575271  16.0680221  17.6846288
  27.3569498  15.9128877  18.5430565  27.1531451  16.9143208  17.6287674
  27.3275049  16.1700842  17.8034228   9.4192542  19.4920005  22.1005105
   9.2414303  19.0396614  22.8260021   9.1311564  20.2946167  22.2843583
   9.3505495  19.5442563  22.2348608  20.5274735  24.5975536  13.4879500
  19.7186058  24.2742209  13.4412809  21.0349644  23.8908758  13.4207748
  20.4824402  24.4456852  13.4709794  11.1565012  22.0247729  19.2126864
  10.2910532  22.0133419  19.1009635  11.2563828  21.8377952  20.0598003
  11.0439179  21.9953790  19.3215808  27.1467942  23.4981410  24.0259624
  27.5723014  22.9755832  23.4730049  26.7824862  24.0962248  23.5048247
  27.1554545  23.5091637  23.8668634  16.7822022  31.7945628  22.7856970
  17.0968581  32.6082016  22.7934751  17.1915435  31.4095846  23.4539129
  16.8890120  31.8574330  22.8861061  23.7346542  27.2115674  20.3560782
  24.2057720  27.9255937  20.5250767  24.0706720  26.6114425  20.8920651
  23.8541657  27.2287139  20.4593157  25.8223526  28.8216988  32.5352854
  25.9320492  28.0325548  32.8909601  26.1514423  28.7322924  31.7327192
  25.8875932  28.6922841  32.4695244  20.6516037  11.9843145  27.3118876
  20.7843942  11.1874138  27.6399852  21.0361189  12.5109548  27.8917152
  20.7272365  11.9443062  27.4462379  24.3720488  27.0033609  27.1188474
  23.8241434  26.3791492  26.8508539  24.8333517  27.1927881  26.4032554
  24.3587697  26.9392659  26.9738905  23.7248392   8.9073471  23.9099970
  22.9194355   8.7971201  24.2267808  23.5955127   9.0085927  23.0529835
  23.5868525   8.9057141  23.8308010  27.1814352  15.0718963  24.5039666
  26.5977341  15.5728169  24.0917234  27.5018646  14.5648519  23.8703990
  27.1427528  15.0710798  24.3498174  19.7209151  13.9859558  14.7798341
  20.5424846  14.1557871  14.5380036  19.2578802  14.1406819  14.0564639
  19.7740314  14.0341291  14.6369986  18.3104483  11.9802320  25.5596770
  18.8548896  11.6393447  26.1501112  18.3641419  12.8387782  25.7018055
  18.3993603  12.0557579  25.6678643  23.9378814  28.0084681  23.6497815
  24.7577188  27.8647647  23.9114111  23.6572892  28.6330880  24.1914253
  24.0175558  28.0795033  23.7685755   9.3586324  24.7253354  22.3034501
   9.2610602  23.9149625  22.6124558  10.1415194  24.7045147  21.9180769
   9.4602461  24.6020444  22.2921364  40.4092465  35.6649533  16.6140692
  40.3786469  36.5194170  16.7858961  41.0073813  35.3644826  17.1726835
  40.4929623  35.7466029  16.7215494  33.6092150  34.7525184  21.3693622
  32.7530045  34.9133682  21.4202739  33.6559803  33.8817248  21.3898683
  33.4891261  34.6475986  21.3799688  27.9933289  44.2887902  17.1330854
  27.2416189  43.9103440  16.9046899  28.4419301  44.3206335  16.3849664
  27.9482956  44.2373509  16.9888356  36.4543971  36.8117228  24.0125274
  36.9999931  37.4902314  24.0719243  36.3960847  36.6704689  23.1526855
  36.5259885  36.8909230  23.8937334  29.5718045  44.3006294  19.3993626
  29.6728408  43.4906648  19.7090754  28.9759791  44.2063240  18.7693305
  29.4990584  44.1671322  19.3519865  22.7683090  40.3226581  19.0245960
  22.5333274  39.4894233  18.9178229  22.9068730  40.6031246  18.2107161
  22.7538752  40.2410084  18.8888315  25.0673177  32.4912311  21.9230268
  24.4478209  31.9004958  21.7540282  24.9657041  33.0823746  21.2894591
  24.9610853  32.4916394  21.8035257  30.1139365  42.2295858  16.1728344
  30.4355206  42.7701065  15.5689652  30.7611461  41.6592629  16.3050634
  30.2565420  42.2255033  16.1035379  32.1641073  34.2311853  16.2562731
  32.8621237  34.4099980  16.7484194  32.4793405  33.7082192  15.6333120
  32.3136410  34.1805625  16.2364741  24.7942310  36.0364593  24.1673837
  24.6701007  36.6227038  24.8023655  25.4460595  35.5424789  24.4686112
  24.8715959  36.0503397  24.3059766  32.3529008  40.6182298  16.2442522
  32.7922644  40.0099398  16.6897295  32.2033671  40.2389671  15.4727987
  32.3950474  40.4720769  16.1961690  29.8200651  39.2126310  23.4461348
  30.4649654  38.7198753  23.1272296  30.0602428  39.3551096  24.2727426
  29.9511236  39.1603752  23.5210881  30.3367936  29.6004250  20.3384005
  30.0071266  30.0515393  19.6687704  29.6612938  29.5220413  20.8857012
  30.1878373  29.6555385  20.3207229  35.9538345  38.9709479  13.1973291
  35.8689640  39.8270446  13.3422860  36.4422728  38.6953803  13.8655450
  36.0127242  39.0566801  13.3175373  37.5444344  25.5889772  18.5833616
  37.2297785  26.2793251  19.0154038  37.0271286  25.5334555  17.8819117
  37.4208815  25.6824661  18.5430565  36.8856778  35.5894273  14.6971026
  36.3568249  35.8053907  15.3568333  37.4081798  36.2830412  14.6171996
  36.8845231  35.7237410  14.7826626  28.7756386  39.4857490  13.4978494
  28.1913601  39.9907522  13.9044358  28.3726481  39.2599877  12.7575086
  28.6295690  39.5265738  13.4483520  30.4014568  43.9944432  22.9051980
  29.8841510  43.6351847  22.3013289  31.0988960  43.4706606  22.9158047
  30.4280150  43.8642120  22.8182239  33.2333600  35.7323142  11.9747415
  33.4729604  35.9401126  11.1622758  33.5549441  34.9280651  12.0836360
  33.3170758  35.6437243  11.8707968  28.5423890  27.6616538  15.8206953
  29.2969858  28.0294855  15.5824003  28.3651425  28.0356092  16.5886133
  28.6278369  27.7714726  15.8991842  41.8358789  33.8110979  23.8654492
  40.9987210  33.8813166  24.1002087  41.8047020  33.8135473  22.9928795
  41.7077072  33.8221206  23.7714040  28.2323518  35.9544014  29.5802861
  28.4044022  35.8449909  30.4288142  28.7692876  36.5998420  29.3434053
  28.3368522  36.0336016  29.6707958  26.8980955  30.0686857  12.5185066
  26.7156528  30.2858738  11.6926059  27.7606568  30.1825870  12.5743680
  26.9985545  30.1176755  12.4039553  26.5095387  41.9074779  19.9608054
  27.3484286  42.1397712  20.0081815  26.5407156  41.0379091  19.8915089
  26.6377105  41.8131726  19.9572699  27.1348090  42.3275654  24.2621359
  27.6746315  42.1846785  24.9324732  26.4518036  42.7272405  24.6305386
  27.1140244  42.3655325  24.4155781  32.5780674  27.0713268  15.5534090
  33.3066835  26.8929223  15.1072246  32.6675567  27.9131347  15.7641268
  32.6987336  27.1697146  15.5187607  36.5588975  38.0066655  19.4566384
  37.3146490  38.4398169  19.4955293  36.6651299  37.3571425  20.0301020
  36.6859146  37.9744139  19.5464409  22.5385235  38.5475945  24.4155781
  22.2723650  37.7315062  24.5746771  22.5523799  38.5929101  23.5451296
  22.5009957  38.4332850  24.3109263  39.5166629  28.8753760  22.4498215
  40.1592537  28.9451865  23.0360130  39.7689650  28.2082983  21.9477757
  39.6488761  28.7880109  22.4625494  26.4442982  33.3461030  11.0307539
  25.7301159  33.0599209  11.4429972  26.9286951  33.6857655  11.6713927
  26.4102345  33.3542679  11.1863174  27.2883842  32.0854323  27.0622789
  26.5955638  31.6151303  27.3083520  27.9044169  31.8592628  27.6364496
  27.2768371  31.9821455  27.1831941  22.9478649  39.3334725  21.6967525
  22.7654222  39.3081611  20.8439817  23.6828318  39.8033662  21.7356434
  23.0292713  39.3996087  21.5765444  26.0124400  36.0519727  28.2049634
  26.7364373  36.0372758  28.6914529  26.1140537  36.7615083  27.7071602
  26.1342610  36.1544431  28.2028421  36.0600669  36.2552803  17.3593597
  36.1547523  36.9942097  17.8133222  35.4359512  35.8270279  17.7928161
  35.9809699  36.3014124  17.4901744  34.3153143  39.4339016  28.0083878
  34.8892004  38.7966260  28.1632442  34.2367946  39.4343098  27.1393535
  34.3886378  39.3404127  27.9030288  22.9149559  36.2128225  21.8466592
  23.4923062  36.0764676  22.4858837  22.2163621  35.7564009  22.1012176
  22.8970581  36.1250491  21.9788881  29.6716861  37.8662281  20.0605075
  29.4136106  37.0334016  20.0336374  29.7265344  38.0919894  19.2197575
  29.6416639  37.7760052  19.9325212  34.7517911  29.9690732  20.1609168
  34.0474238  29.4799917  20.3193087  34.8002886  29.9813206  19.2897612
  34.6547963  29.8980380  20.0548507  28.6451573  35.4200043  20.5469970
  28.0701165  35.5792212  21.1833931  28.2687250  34.7835453  20.0838420
  28.5054386  35.3497856  20.5724528  32.3124862  33.8923393  25.4062348
  31.9239295  33.4677610  24.7514539  31.6479560  34.1405542  25.9139375
  32.1571790  33.8662114  25.3850216  18.3908392  35.0640118  18.5614410
  18.4768644  34.6871987  19.3427940  19.0184190  34.6900564  18.0834369
  18.4964943  34.9525600  18.6059888  36.1351224  27.5898021  22.9186332
  36.5161735  26.9076193  23.3054207  35.3314508  27.3007624  22.7361997
  36.0727685  27.4465070  22.9490388  33.4163800  38.1221997  13.6039155
  34.2304439  38.4136890  13.4921927  33.3522942  37.4681860  13.0297448
  33.5266539  38.0687192  13.5027992  29.2871709  41.5943515  18.7311467
  29.9245656  41.3555262  19.2763261  29.7126780  41.7980674  17.9964628
  29.4447875  41.5894525  18.7028625  23.9784351  43.8331851  22.6145771
  24.0188496  44.1046702  21.7865551  24.5378875  44.3573759  23.0303559
  24.0667697  43.9507606  22.5537659  29.9274524  36.8145805  13.0686357
  30.3119676  36.5953511  13.8202902  29.6786144  37.6408750  13.1987433
  29.9476596  36.9043951  13.1987433  30.0943064  30.0952220  32.7848941
  29.7796505  30.8651782  32.5218504  29.7732997  29.5322476  32.2001168
  30.0001983  30.1262488  32.6590291  31.6693181  42.0715937  20.4105253
  31.7432189  41.9091109  21.2647103  32.4862687  42.2606127  20.1665735
  31.8009539  42.0752680  20.5003279  25.4298937  42.4173800  17.4399697
  24.6037055  42.6635537  17.3133976  25.4910928  42.3385881  18.3061755
  25.3173104  42.4418749  17.5488641  27.6474961  28.4842741  18.3995137
  26.7797386  28.5565341  18.4652746  27.9350165  29.2864820  18.5883112
  27.5614709  28.6136888  18.4369904  36.7707850  28.6320601  26.7306459
  37.5161442  28.4430411  26.3169884  36.3545154  29.1578839  26.1720315
  36.8192824  28.6822746  26.5871032  30.7992511  39.8368426  26.2271857
  30.3004205  40.5484194  26.3056746  31.6092736  40.1569093  26.1890020
  30.8448618  39.9895275  26.2328426  27.0620629  39.0991379  20.4734578
  26.7733878  38.4728851  21.0080306  27.9303977  39.0411667  20.5399259
  27.1480881  38.9978924  20.5625533  37.8498527  34.2426163  20.7916560
  37.5063293  33.5216498  21.1423810  37.9491569  34.0340014  19.9494918
  37.8140570  34.1050366  20.7188240  27.2652902  40.7386630  16.3976943
  28.0198870  41.1199669  16.6112406  26.6723515  41.1897774  16.8523640
  27.2889616  40.8615458  16.4959822  29.7259569  32.6949471  31.5234156
  28.9159345  33.0007250  31.4123998  30.2034256  33.4155053  31.6386740
  29.6763048  32.8464072  31.5241227  28.5851129  41.9095192  21.7717059
  28.0631883  42.0495483  22.4568923  28.9725149  41.1505856  21.9619176
  28.5654830  41.8180716  21.9018135  25.5742313  31.9601000  15.8412013
  25.2867109  31.5902271  15.1043961  26.2612781  32.4295856  15.5795718
  25.6331210  31.9747970  15.6927089  30.0117455  38.9399211  17.1698550
  29.8160237  39.5473945  16.5758853  30.2351800  38.2467155  16.6890224
  30.0152096  38.9276736  17.0114631  28.4095985  35.8253949  17.2879418
  29.1318637  35.9895107  16.8283224  27.9303977  36.5463614  17.1818758
  28.4459715  35.9552178  17.2045032  36.3689492  32.1617747  22.6676103
  35.5300593  32.1879026  22.4314366  36.4393860  32.8088483  23.2481450
  36.2557886  32.2613873  22.7185220  26.0603601  38.2312021  26.3933558
  26.5724698  38.5096274  25.7442318  25.7739944  38.9701315  26.7596371
  26.0938465  38.3814375  26.3523436  34.8158771  29.0603125  17.4003719
  35.5185123  28.8610873  16.9223677  34.5502959  28.2879067  17.7072562
  34.8805403  28.9166091  17.3749161  23.1470508  32.7382213  16.6897294
  23.2486644  33.5408374  17.0178270  23.9426394  32.5369549  16.3920375
  23.2798413  32.8268112  16.6932650  29.5787327  30.3238410  26.4534600
  29.3870524  30.3393544  27.3034023  30.4285923  30.5202084  26.4301254
  29.6763049  30.3552761  26.5757894  23.9634240  32.8529391  24.4318416
  23.8219732  32.0013332  24.5562924  24.2474803  32.8958052  23.6080622
  23.9842086  32.7329141  24.3286040  34.1172832  34.6896481  18.5762904
  33.8707546  34.6092232  19.4099693  34.4457955  33.9049949  18.3825432
  34.1294076  34.5622747  18.6710427  36.3498966  37.6976216  28.6172067
  36.3447005  36.8256033  28.6214494  37.0559960  37.8964385  28.1441523
  36.4543970  37.5980090  28.5479103  30.0769859  37.4253200  27.9885887
  30.2213235  38.0054408  27.3528997  30.4245508  37.8029497  28.6935742
  30.1497321  37.5673904  27.9984882  32.2489777  36.6243368  25.7711019
  31.5013091  36.8174383  25.3659297  32.4031302  35.7988588  25.5335140
  32.1612204  36.5308480  25.6756425  32.4891554  30.5193919  26.6606423
  32.9464168  31.2517893  26.7879215  32.5647883  30.0960384  27.4193679
  32.5682524  30.5651157  26.7907499  24.7324545  30.7659739  27.7495866
  24.1966734  30.1540097  28.0656634  24.7942310  31.3407875  28.4029533
  24.6620178  30.7606667  27.8931293  36.9618880  23.6983794  20.5300266
  37.0802448  24.1560258  19.7967568  36.7881055  22.8929055  20.2436483
  36.9538051  23.6477566  20.3801199  30.3673932  32.5096023  23.5048247
  29.5770006  32.3287483  23.8265583  30.7634555  31.7322976  23.4878541
  30.3090808  32.3683484  23.5500795  35.7517618  40.1438453  21.2307693
  35.0762620  39.9123685  21.7321080  35.7609994  39.5359636  20.6049798
  35.6536123  40.0197378  21.2123845  32.8811762  34.9856282  27.9871746
  32.8170903  35.8466239  27.8591882  33.0208950  34.6688275  27.1867297
  32.8927232  35.0656449  27.8499959  31.5630856  37.6788421  22.1287949
  31.1393105  37.8792920  21.3926967  31.3875711  36.8317269  22.2412248
  31.4741736  37.5837203  22.0361639  26.8513301  38.1740473  17.5615921
  27.0077920  38.1087276  18.4171913  27.1913894  38.9489025  17.3494601
  26.9246536  38.2789671  17.6570515  33.3892445  37.5498356  16.4309284
  33.9307991  37.0468738  16.8947905  33.7039005  37.4963551  15.6198770
  33.5156843  37.4677777  16.3793096  34.5381715  32.4434661  26.4831585
  34.7523684  31.8045575  25.9294939  33.9215614  32.8880485  26.0539447
  34.4787044  32.4144805  26.3382016  23.4247562  35.3575423  17.8776688
  23.8046527  35.7759968  17.2136956  22.8502927  35.9388879  18.1845532
  23.3958887  35.5053282  17.8253429  36.7020803  34.0523726  27.4214892
  35.8897485  33.7449617  27.5028065  37.1610737  33.5722726  27.9857604
  36.6501188  33.9360219  27.5169486  33.9296443  25.5534597  21.4718928
  33.0590001  25.5273318  21.4252237  34.1836785  25.3811789  20.6544773
  33.8390004  25.5244740  21.3439064  30.9014423  37.6102564  10.4092071
  31.1906948  38.3867446  10.6835645  30.9886222  37.0991295  11.1106570
  30.9568679  37.6494482  10.5534568  33.7974310  35.4583798  32.2043594
  34.2673942  36.0825914  32.5911468  33.8436191  34.7900773  32.7636809
  33.8742186  35.4518478  32.3443666  30.9545584  27.5640825  22.9292398
  30.4384073  26.8721017  23.0543977  30.3939513  28.2311602  22.8754997
  30.7952097  27.5604083  22.9398464  33.0237817  28.1033785  24.7585251
  32.6369571  28.1282817  25.5398780  32.5370755  27.5375464  24.3059767
  32.8950326  28.0229536  24.8073154  38.9987797  34.6696440  23.3824953
  38.5715405  34.5822789  22.6273052  38.3613850  34.7774216  23.9679797
  38.8417404  34.6729100  23.3570394  32.6894959  24.9900771  27.0495510
  33.3188077  25.5261071  26.7716581  32.8580822  24.8978130  27.9009076
  32.8072754  25.0562133  27.1344039  32.4908874  29.7771965  29.3221922
  33.3182303  29.5057114  29.3780536  32.5116720  30.5732807  29.6785740
  32.6161724  29.8551720  29.3837105  27.0678364  36.9235828  22.5092183
  26.2266370  36.8239702  22.7171077  27.2768372  37.6931308  22.8606503
  26.9743056  37.0227871  22.5919498  24.5453931  34.5455365  20.3376933
  24.1510629  34.6198377  19.5627043  23.9894048  34.9313311  20.8885295
  24.4056743  34.6137140  20.3044593  36.1818878  27.5236659  20.0180812
  36.3868471  27.4558967  20.8637809  35.8545302  28.3295480  19.9501990
  36.1634126  27.6322599  20.1340467  30.8795029  34.8517227  21.7589780
  30.5758166  34.2973216  22.3600188  30.1774450  35.0309437  21.2717814
  30.7311239  34.7962010  21.7759486  29.9361126  32.1617747  16.3234482
  30.2120860  31.4436660  15.9112050  30.5359795  32.7602667  16.1155588
  30.0654390  32.1438118  16.2315243  28.9413380  42.0666948  26.4661878
  28.8333735  42.0769010  27.3323936  29.1509161  42.8921728  26.2766832
  28.9563491  42.1908023  26.5665970  39.4352565  28.0768423  19.4983578
  38.8226879  28.5638825  19.8837310  39.5316740  27.4011914  20.0421229
  39.3590463  28.0486732  19.6362436  33.4371646  29.8331264  14.5981077
  33.8915393  30.0041825  15.3228922  33.9111692  29.2199375  14.1978853
  33.5739966  29.7682150  14.6454839  26.9587172  39.3179590  23.9283816
  26.3675105  39.9589089  23.8986831  27.7208195  39.7417208  23.9015115
  26.9835432  39.4755429  23.9198963  27.3547795  30.4781588  24.5951833
  27.8149276  30.5520518  25.3326957  27.4003901  31.2762842  24.2451655
  27.4298350  30.6075735  24.6524590  29.0031144  31.1448283  29.1623860
  28.6116709  30.4981630  29.5979638  29.1717007  31.7359718  29.7818116
  28.9702055  31.1362551  29.3186566  30.7784666  36.5373799  15.7026084
  31.5226711  36.9248075  15.9409034  30.9245363  35.6931224  15.8666572
  30.9095251  36.4704272  15.7620054  32.6964242  28.3324058  20.7357946
  31.8500287  28.5046865  20.6099296  32.6935374  27.5273401  21.0723774
  32.5711392  28.2385087  20.7669073  33.7662542  32.1099272  21.6020004
  33.2922496  31.5841034  22.1125315  34.1380678  31.5628745  21.0334865
  33.7512431  31.9515269  21.5935151  24.1435572  34.1070779  26.9703549
  25.0061185  34.0066488  26.8840879  23.8127355  33.5265488  26.4089122
  24.2220769  34.0062406  26.8748955  35.6946042  33.0035827  14.6645757
  35.1669060  33.0864571  13.9751466  36.1541750  33.7453698  14.6610402
  35.6847892  33.1256489  14.5620453  38.6350490  38.3353054  26.8961088
  39.3584689  37.8825581  26.7172108  38.3700452  38.6157720  26.1133416
  38.7031763  38.3104023  26.7539804  27.5037358  32.9313228  23.6313968
  26.8790428  32.9431620  23.0239920  27.1682953  33.4073403  24.2805208
  27.3622850  33.0031745  23.6370536  27.6879107  31.2738346   9.6886653
  27.3391911  31.9258072  10.1518202  27.2075553  31.2595459   8.9610524
  27.5649351  31.3681400   9.6497744  24.2163034  40.9913688  25.0717732
  23.6862958  40.3006127  25.1212707  24.4888127  40.9823873  24.2430440
  24.1787756  40.8880820  24.9565148  34.4169279  38.4336933  25.0456103
  33.8026273  37.8894983  25.3404739  34.9336564  37.9201169  24.5661920
  34.4024942  38.2773342  25.0180332  33.6565577  39.5041203  22.7800402
  33.2293185  38.8790921  22.3465838  33.6490521  39.2216124  23.6059409
  33.5924718  39.3693983  22.8380230  26.7728104  34.5406376  25.8488836
  26.9321590  33.7849700  26.2540558  26.5920997  35.0897315  26.5029574
  26.7693463  34.5100189  26.0051542  34.7148407  26.7067611  26.4039626
  34.2188968  26.9031285  25.7131192  35.4717469  27.1060279  26.2328427
  34.7535231  26.7945345  26.2759762  31.9851286  30.3809957  22.9942936
  32.0093773  29.8470069  22.3055716  32.2362760  29.8727266  23.6568527
  32.0261205  30.2270861  22.9907581  19.4958876  37.6641452  22.4286080
  19.3902325  37.6188296  21.5638164  18.7459096  38.0095233  22.7100365
  19.3694479  37.7082360  22.3423410  28.2652609  29.1080775  22.3748680
  28.3050980  29.6089982  23.0883388  27.4402273  29.1991169  22.1054603
  28.1492134  29.1962592  22.4399219  30.4482221  38.6741515  30.4768975
  29.5977852  38.8113230  30.6126620  30.6110349  37.9405294  30.9216677
  30.3466085  38.5855617  30.5624574  29.6866972  35.6241285  24.6722579
  28.8558902  35.7915103  24.4657828  29.6318489  35.2477236  25.4571465
  29.5556387  35.5931016  24.7571108  27.4950755  29.1150178  30.3078990
  28.1203459  28.5712311  30.5808422  27.0401235  28.6345096  29.7386781
  27.5199016  28.9639659  30.2640584  28.0603016  33.8996877  15.2012697
  28.2005977  34.3969341  15.9041339  28.5585549  33.1983171  15.3426911
  28.1544097  33.8698855  15.3264276  28.0903238  34.7663988  12.5305274
  28.7248318  35.3624413  12.4654736  28.1728849  34.4667445  13.3451144
  28.1959789  34.8104896  12.6408361  29.6682221  30.6977963  12.5050716
  29.9898062  30.2181046  11.8509978  29.9309165  31.5077609  12.3141528
  29.7548246  30.7467861  12.3806208  32.8979194  41.7196837  26.0249532
  32.3904285  42.2732684  26.4690163  32.6005840  41.7805127  25.2068307
  32.7784079  41.8103149  25.9697989  35.0641376  30.0850157  24.8674195
  35.4896448  29.6322684  24.2557721  34.4498369  29.5310228  25.1438983
  35.0370021  29.9364133  24.8179220  24.5956226  36.9631828  15.7994820
  25.1048455  37.5596336  16.1806126  25.0690498  36.6957802  15.1171240
  24.7399602  37.0117644  15.7549343  33.5035599  26.5565257  18.2764772
  32.8603917  26.4062903  18.8449911  33.1635006  26.3107602  17.5113877
  33.3580676  26.4977379  18.2467787  38.0934945  34.5124684  17.6994781
  37.4226135  35.0554386  17.5707846  38.7874696  34.9819539  17.4576475
  38.0963813  34.6622955  17.6450308  38.2563073  30.9680567  20.6085154
  38.6090683  30.5410290  21.2830953  37.3977874  30.8831411  20.7386230
  38.1812517  30.8925308  20.7280164  26.9546758  33.5988087  18.6668000
  26.2358747  34.0152220  18.9340864  27.3259120  34.1642326  18.1159639
  26.9038690  33.7437368  18.6250807  36.2546339  34.2315936  24.5569996
  36.2344266  34.0499231  25.4104775  36.3025539  35.1027954  24.5329580
  36.2580980  34.3332474  24.6793291  32.7293332  32.6386087  14.0041380
  32.1358171  32.9603083  13.4525947  32.7668610  31.7927182  13.7962486
  32.6467721  32.5610415  13.8924151  39.6887133  26.0898979  21.5369466
  39.1817997  25.3828119  21.4690644  40.4854567  25.7592168  21.6670543
  39.7314372  25.9372131  21.5468461  35.6051149  32.5965591  17.4343130
  35.3764842  32.6198293  16.5921488  35.8649225  31.7723058  17.5538141
  35.6097337  32.4781671  17.3268328  29.8870377  34.4500064  27.0368230
  29.3749280  33.8421247  27.3953262  29.7149873  35.1656657  27.5042206
  29.7860014  34.4663364  27.1584454  24.7336092  32.8937640  29.6870592
  24.5638682  33.5539015  29.1418799  24.2902042  33.1044201  30.4083081
  24.6435425  33.0223622  29.7132222  28.6595911  31.1342138  18.7297326
  29.1353277  31.4959218  18.0947507  28.1584511  31.7898605  19.0097469
  28.6561270  31.2836326  18.6774067  33.7639447  32.3724309  29.4770486
  34.3210878  32.1438119  28.8448951  33.4400512  33.1329975  29.2005698
  33.7985858  32.4508146  29.3426983  21.6338156  35.7984505  24.9459082
  21.0864876  35.1285151  25.0639950  22.4230535  35.4314353  25.0102549
  21.6690340  35.6449492  24.9727782  31.4822565  35.4591962  30.4422493
  32.2333892  35.7743639  30.7562047  31.6745141  35.2571133  29.6156415
  31.6213979  35.4759344  30.3665889  30.7022564  33.2783338  12.0970710
  31.0821529  33.2962967  11.3121824  29.9615160  33.7237326  11.9761557
  30.6491402  33.3465112  11.9634278  38.3307855  31.5865529  17.6846288
  38.3302081  31.4314185  18.5430565  38.1264035  32.4328516  17.6287674
  38.3007633  31.6886149  17.8034228  20.3925126  35.0105313  22.1005105
  20.2146887  34.5581922  22.8260021  20.1044148  35.8131475  22.2843583
  20.3238079  35.0627871  22.2348608  36.0548707  36.2663031  21.3382495
  36.5502372  35.5486026  21.2986516  35.2448483  35.9633828  21.2236982
  36.0092600  36.1160677  21.3156221  31.5007318  40.1160844  13.4879500
  30.6918641  39.7927517  13.4412809  32.0082227  39.4094066  13.4207748
  31.4556985  39.9642160  13.4709794  22.1297596  37.5433037  19.2126864
  21.2643115  37.5318727  19.1009635  22.2296412  37.3563260  20.0598003
  22.0171763  37.5139098  19.3215808  31.6248620  27.5028453  27.3118876
  31.7576526  26.7059446  27.6399852  32.0093773  28.0294856  27.8917152
  31.7004949  27.4628370  27.4462379  34.6980975  24.4258779  23.9099970
  33.8926939  24.3156509  24.2267808  34.5687711  24.5271235  23.0529835
  34.5601108  24.4242449  23.8308010  38.1546936  30.5904271  24.5039666
  37.5709925  31.0913477  24.0917234  38.4751230  30.0833827  23.8703990
  38.1160111  30.5896106  24.3498174  30.6941735  29.5044866  14.7798341
  31.5157429  29.6743179  14.5380036  30.2311386  29.6592127  14.0564639
  30.7472897  29.5526599  14.6369986  29.2837067  27.4987628  25.5596770
  29.8281480  27.1578755  26.1501112  29.3374003  28.3573090  25.7018055
  29.3726186  27.5742887  25.6678643  25.0967626  41.2604044  22.4335578
  25.7012483  41.2199878  21.8049399  24.8894938  42.1075196  22.4639634
  25.1556523  41.3792046  22.3451694  20.3318908  40.2438662  22.3034501
  20.2343186  39.4334933  22.6124558  21.1147778  40.2230455  21.9180769
  20.4335044  40.1205752  22.2921364  25.6404106   2.4404533  17.9094125
  26.3470874   1.9456564  18.0381059  25.8292042   2.8813614  17.1796783
  25.7732012   2.4322883  17.8203171  21.7080781   8.0820363   5.4367559
  22.0920160   8.6507262   4.8972334  21.6439922   7.3569874   4.9573375
  21.7554208   8.0595827   5.2861422  18.1337025  10.6376706   7.7348529
  18.7774481  11.0789870   8.1244687  18.4593281   9.8330133   7.6478788
  18.2768854  10.5841901   7.7794006  18.5418892   0.6319133  10.3801394
  19.1867894   0.1391576  10.0612343  18.7820669   0.7743920  11.2067473
  18.6729477   0.5796575  10.4550928  21.0804983   3.4774039  10.0308287
  21.3628226   2.6825445   9.8095043  21.8091143   3.9554626  10.0513348
  21.2294547   3.4308636  10.0011302  19.1232809   5.4137255   9.8392027
  18.6059750   5.0544670   9.2353335  19.8207200   4.8899430   9.8498093
  19.1498390   5.2834943   9.7522286  22.7796401   5.8632069  15.8008200
  22.8679747   5.6758210  16.6486411  23.2086113   5.2169499  15.4013047
  22.8558503   5.7395077  15.8679952  20.3466861   5.1463229  14.7825862
  19.7837695   4.7335839  15.3065524  21.1087884   5.0716135  15.2019006
  20.3761309   5.0740630  14.9218863  15.9062852   7.1361250   7.3862493
  16.6083431   6.6213240   7.4435249  15.8260335   7.4635402   8.1909368
  15.9986612   7.1075477   7.5135285  15.8566330   3.7468478  11.1961406
  16.3964555   3.6039609  11.8664779  15.1736277   4.1465228  11.5645432
  15.8358484   3.7848149  11.3495828  28.3187386   3.2532756   7.1408834
  27.8822618   3.2569498   7.8967805  27.9850302   3.9338255   6.7088411
  28.2050006   3.3545211   7.1889666  22.8916460   5.2941088  18.4651984
  23.6756877   5.4071936  18.8307726  22.6913055   4.4682225  18.6610670
  22.9782485   5.1887808  18.5486370  23.0486853   7.2051190  12.1118439
  22.2502099   6.9650690  12.3692308  23.4972865   7.2565583  12.8585487
  22.9961465   7.1773582  12.2603364  14.7342641  -2.5287449  15.1389681
  15.4582613  -2.5434419  15.6254575  14.8358777  -1.8192094  14.6411649
  14.8560850  -2.4262746  15.1368467  22.1087590   0.9511635  20.0038628
  21.3160571   1.2655147  20.1891247  22.2236517   1.1663104  19.1659412
  22.0083001   1.0295472  19.9076962  23.0371383   0.8531839  14.9423924
  23.6110245   0.2159083  15.0972488  22.9586187   0.8535921  14.0733582
  23.1104618   0.7596950  14.8370335  12.7002591   5.2524674   9.5485818
  12.7406737   5.5239526   8.7205597  13.2597115   5.7766583   9.9643606
  12.7885937   5.3700430   9.4877706  20.3911421   3.4908761   7.3445300
  20.4650429   3.3283932   8.1987150  21.2080927   3.6798950   7.1005782
  20.5227780   3.4945503   7.4343326  19.5210752   1.2561250  13.1611904
  19.0222445   1.9677017  13.2396793  20.3310976   1.5761916  13.1230067
  19.5666859   1.4088098  13.1668473  19.0389878   9.8040276   3.9249616
  19.6913936   9.2716718   4.1540642  18.3415487   9.4508928   4.3117490
  19.0320596   9.6729799   4.0161784  17.3069369   3.3288015   8.7057106
  16.7850123   3.4688307   9.3908970  17.6943390   2.5698679   8.8959223
  17.2873070   3.2373539   8.8358182  14.7821842  -0.3495156  13.3273605
  15.2942939  -0.0710902  12.6782365  14.4958184   0.3894138  13.6936418
  14.8156705  -0.1992802  13.2863483  26.7339121   2.8172664   9.2989732
  26.5953481   3.5153710   9.8038475  25.9539119   2.6621320   8.9425914
  26.5982348   2.8972831   9.3216007  18.7988100  -1.1553977  14.9225934
  18.9431476  -0.5752769  14.2869044  19.1463748  -0.7777680  15.6275789
  18.8715561  -1.0133273  14.9324929  17.8715855   7.0348795  11.7886961
  18.0205419   6.4751711  11.1360365  18.6515857   7.1140797  12.1719480
  18.0089948   6.9634360  11.7483910  20.3969155   7.2063438  13.0671452
  20.3212827   6.5372248  13.6222240  20.3259015   7.9081226  13.5812118
  20.3749762   7.2108345  13.2248300  24.4735858   1.5631276   8.1647739
  23.7980860   1.3316509   8.6661127  24.4828234   0.9552459   7.5389845
  24.3754363   1.4390202   8.1463892  19.7860790  10.6131758  11.5249453
  20.2756720   9.9142547  11.3425117  19.2145022  10.3155628  12.1125510
  19.7745320  10.4657981  11.5850493  25.9827793   3.1793827  20.4776243
  26.7962659   2.9078976  20.6381376  25.8222760   2.8801367  19.6736439
  26.0797742   3.0948753  20.3821649  24.6704623   6.7846233   4.8625852
  24.2784415   6.4812948   4.1448719  24.8257695   7.6215322   4.6730806
  24.6358213   6.8630069   4.7282350  25.9949037   4.2400117  15.7499084
  26.6328758   3.7460313  15.4161540  25.3523129   4.1677518  15.1651311
  25.9943264   4.1559126  15.6141439  26.0503294   4.9319926  12.3904441
  26.8395672   4.5808990  12.5106522  26.2246892   5.7456314  12.1281074
  26.1923575   5.0005783  12.3692309  17.6631620   3.4859771  13.4001925
  17.5551975   3.4961833  14.2663983  17.8727402   4.3114552  13.2106879
  17.6781731   3.6100846  13.5006016  15.6805412   0.7372414  10.8623862
  15.0893345   1.3781912  10.8326877  16.4426436   1.1610031  10.8355162
  15.7053673   0.8948252  10.8539010  25.4394928   6.1881725   8.2955887
  25.2414617   6.6772540   7.6012098  24.8182639   6.3922967   8.8740020
  25.3182493   6.2898263   8.2779110  12.9381274   2.4106511  12.0057779
  12.4081199   1.7198950  12.0552753  13.2106368   2.4016696  11.1770487
  12.9005997   2.3073643  11.8905195  22.3783817   0.9234026   9.7140449
  21.9511425   0.2983744   9.2805884  22.3708761   0.6408948  10.5399456
  22.3142958   0.7886806   9.7720276  19.1700462   0.0934339  17.4109022
  18.3196092   0.2306053  17.5466667  19.3328589  -0.6401883  17.8556723
  19.0684325   0.0048440  17.4964621  21.6197434   3.1389661  12.9589579
  21.1122525   3.6925508  13.4030209  21.3224080   3.1997951  12.1408353
  21.5002319   3.2295972  12.9038036  20.8639919   8.0714219   9.8646586
  20.6405574   7.3133048  10.2330612  20.3749763   8.1012240   9.1427025
  20.7583368   7.9636443   9.8123327  22.9210909   2.2395951  17.4158519
  22.8806764   1.5945628  16.8303675  23.7334227   2.1832569  17.7283932
  23.0354062   2.1354918  17.3755469  19.5118376   8.2914677   7.3183670
  19.0978775   7.6288807   6.9287512  20.1965751   8.4392536   6.7979365
  19.5516748   8.2155335   7.1840168  22.8783670   7.4504762   8.0707287
  22.4799954   7.5607033   7.3028107  22.2634890   7.6586829   8.6533847
  22.7282560   7.4978330   8.0438586  16.4772846   8.7323759   9.7197016
  16.7919405   9.5460147   9.7274798  16.8866259   8.3473977  10.3879176
  16.5840944   8.7952461   9.8201108  23.4297366   4.1493806   7.2900828
  23.9008544   4.8634068   7.4590814  23.7657544   3.5492556   7.8260698
  23.5492481   4.1665270   7.3933204  25.5174350   5.7595119  19.4692900
  25.6271316   4.9703679  19.8249648  25.8465247   5.6701055  18.6667238
  25.5826756   5.6300972  19.4035291  24.0671312   3.9411740  14.0528521
  23.5192258   3.3169623  13.7848586  24.5284341   4.1306012  13.3372600
  24.0538521   3.8770790  13.9078952  23.6329638   4.9462812  10.5837862
  24.4528012   4.8025778  10.8454157  23.3523716   5.5709011  11.1254300
  23.7126382   5.0173164  10.7025802  33.3042973  11.6903315   8.3033669
  32.4480869  11.8511813   8.3542786  33.3510627  10.8195379   8.3238730
  33.1842085  11.5854117   8.3139735  27.6884113  21.2266033   4.0670900
  26.9367013  20.8481571   3.8386946  28.1370125  21.2584467   3.3189711
  27.6433780  21.1751640   3.9228403  36.6136690  17.9589841  17.9094125
  37.3203457  17.4641871  18.0381059  36.8024625  18.3998922  17.1796783
  36.7464596  17.9508191  17.8203171  32.6813364  23.6005671   5.4367559
  33.0652744  24.1692570   4.8972334  32.6172506  22.8755181   4.9573375
  32.7286792  23.5781135   5.2861422  36.1494794  13.7495359  10.9465321
  36.6950755  14.4280446  11.0059290  36.0911671  13.6082820  10.0866902
  36.2210709  13.8287361  10.8277381  29.2668869  21.2384425   6.3333673
  29.3679232  20.4284779   6.6430801  28.6710615  21.1441372   5.7033352
  29.1941408  21.1049453   6.2859911  29.1069609  26.1562014   7.7348529
  29.7507064  26.5975178   8.1244687  29.4325864  25.3515440   7.6478788
  29.2501438  26.1027209   7.7794006  22.4633914  17.2604712   5.9586007
  22.2284098  16.4272364   5.8518275  22.6019554  17.5409377   5.1447208
  22.4489576  17.1788215   5.8228362  24.7624001   9.4290442   8.8570314
  24.1429033   8.8383090   8.6880329  24.6607865  10.0201878   8.2234638
  24.6561677   9.4294525   8.7375304  29.8090189  19.1673989   3.1068391
  30.1306030  19.7079196   2.5029699  30.4562285  18.5970761   3.2390681
  29.9516244  19.1633164   3.0375426  31.8591897  11.1689984   3.1902777
  32.5572061  11.3478112   3.6824241  32.1744229  10.6460323   2.5673167
  32.0087234  11.1183756   3.1704788  24.4893134  12.9742724  11.1013883
  24.3651831  13.5605170  11.7363702  25.1411419  12.4802920  11.4026158
  24.5666783  12.9881528  11.2399813  32.0479832  17.5560429   3.1782569
  32.4873468  16.9477530   3.6237342  31.8984495  17.1767802   2.4068034
  32.0901298  17.4098900   3.1301736  29.5151475  16.1504441  10.3801394
  30.1600478  15.6576884  10.0612343  29.7553252  16.2929228  11.2067473
  29.6462060  16.0981883  10.4550928  32.0537566  18.9959347  10.0308287
  32.3360809  18.2010753   9.8095043  32.7823727  19.4739934  10.0513348
  32.2027130  18.9493944  10.0011302  30.0318760   6.5382381   7.2724052
  29.7022090   6.9893524   6.6027751  29.3563762   6.4598544   7.8197059
  29.8829197   6.5933516   7.2547275  42.0355655  18.1018709   7.0044118
  41.2053358  18.3129353   7.1677534  41.9864907  17.2755764   6.7286401
  41.9062390  18.0108315   6.9881483  28.4707210  16.4235621   0.4318541
  27.8864425  16.9285653   0.8384405  28.0677305  16.1978008  -0.3084867
  28.3246513  16.4643870   0.3823567  24.0251238  22.1390382   7.2342213
  23.5418817  22.8640872   7.2101796  24.8374557  22.4366513   7.3452371
  24.0741986  22.2892736   7.2469492  30.0965392  20.9322563   9.8392027
  29.5792334  20.5729978   9.2353335  30.7939784  20.4084738   9.8498093
  30.1230973  20.8020251   9.7522286  33.7528984  21.3817377  15.8008200
  33.8412330  21.1943518  16.6486411  34.1818697  20.7354807  15.4013047
  33.8291087  21.2580385  15.8679952  31.3199444  20.6648537  14.7825862
  30.7570279  20.2521147  15.3065524  32.0820468  20.5901443  15.2019006
  31.3493893  20.5925938  14.9218863  26.8795436  22.6546558   7.3862493
  27.5816015  22.1398547   7.4435249  26.7992919  22.9820710   8.1909368
  26.9719196  22.6260785   7.5135285  27.9274342  12.8922145  16.5142908
  28.0994846  12.7828040  17.3628189  28.4643700  13.5376551  16.2774100
  28.0319346  12.9714147  16.6048004  26.2046211  18.8452910   6.8948101
  27.0435110  19.0775843   6.9421862  26.2357980  17.9757222   6.8255136
  26.3327929  18.7509857   6.8912745  26.8298914  19.2653786  11.1961406
  27.3697139  19.1224917  11.8664779  26.1468860  19.6650536  11.5645432
  26.8091068  19.3033456  11.3495828  36.2539799  14.9444786   6.3906431
  37.0097314  15.3776301   6.4295339  36.3602123  14.2949556   6.9641067
  36.3809969  14.9122270   6.4804456  39.2919970  18.7718063   7.1408834
  38.8555202  18.7754806   7.8967805  38.9582885  19.4523562   6.7088411
  39.1782590  18.8730519   7.1889666  33.8649044  20.8126396  18.4651984
  34.6489460  20.9257244  18.8307726  33.6645638  19.9867533  18.6610670
  33.9515069  20.7073116  18.5486370  22.2336059  15.4854076  11.3495828
  21.9674474  14.6693193  11.5086818  22.2474623  15.5307232  10.4791343
  22.1960781  15.3710981  11.2449310  26.9834665   9.0232455  13.9962835
  26.2906462   8.5529434  14.2423567  27.5994993   8.7970759  14.5704543
  26.9719195   8.9199586  14.1171988  34.0219437  22.7236498  12.1118439
  33.2234683  22.4835998  12.3692308  34.4705448  22.7750891  12.8585487
  33.9694048  22.6958889  12.2603364  22.6429473  16.2712856   8.6307572
  22.4605046  16.2459742   7.7779864  23.3779142  16.7411794   8.6696481
  22.7243537  16.3374218   8.5105490  38.7129147  16.5064366   5.7740460
  38.9484736  16.6509565   4.9467310  38.8618711  17.2706774   6.1671973
  38.7694950  16.6403420   5.7104063  25.7075224  12.9897859  15.1389681
  26.4315197  12.9750889  15.6254575  25.8091361  13.6993214  14.6411649
  25.8293433  13.0922562  15.1368467  33.0820174  16.4696943  20.0038628
  32.2893155  16.7840455  20.1891247  33.1969101  16.6848412  19.1659412
  32.9815584  16.5480780  19.9076962  35.7551493  13.1930934   4.2933643
  35.8498347  13.9320228   4.7473269  35.1310336  12.7648410   4.7268208
  35.6760523  13.2392255   4.4241791  34.0103967  16.3717147  14.9423924
  34.5842828  15.7344391  15.0972488  33.9318770  16.3721229  14.0733582
  34.0837201  16.2782258  14.8370335  22.6100383  13.1506356   8.7806639
  23.1873886  13.0142807   9.4198884  21.9114445  12.6942141   9.0352223
  22.5921404  13.0628623   8.9128928  29.3667685  14.8040412   6.9945122
  29.1086930  13.9712147   6.9676421  29.4216168  15.0298025   6.1537622
  29.3367463  14.7138183   6.8665259  28.3402397  12.3578175   7.4810017
  27.7651989  12.5170343   8.1173978  27.9638074  11.7213584   7.0178467
  28.2005210  12.2875988   7.5064575  32.0075686  10.8301524  12.3402395
  31.6190119  10.4055742  11.6854586  31.3430384  11.0783674  12.8479422
  31.8522614  10.8040245  12.3190263  18.0859216  12.0018249   5.4954457
  18.1719468  11.6250118   6.2767987  18.7135014  11.6278695   5.0174415
  18.1915767  11.8903732   5.5399934  39.3324114  17.7426125  14.9508778
  39.0962752  16.9114189  14.8320838  39.9767343  17.6911732  15.5363622
  39.3918785  17.6123813  15.0194671  28.9822533  18.5321646   5.6651514
  29.6196479  18.2933393   6.2103307  29.4077604  18.7358805   4.9304675
  29.1398699  18.5272656   5.6368671  23.6735175  20.7709982   9.5485818
  23.7139320  21.0424833   8.7205597  24.2329699  21.2951890   9.9643606
  23.7618521  20.8885737   9.4877706  29.6225348  13.7523936   0.0026403
  30.0070500  13.5331642   0.7542949  29.3736968  14.5786881   0.1327480
  29.6427420  13.8422082   0.1327480  29.7893888   7.0330351  19.7188988
  29.4747329   7.8029914  19.4558550  29.4683821   6.4700607  19.1341215
  29.6952807   7.0640620  19.5930338  40.3560535  17.5270573  11.0137072
  40.0506352  18.2598630  11.3750388  39.6366751  17.1208503  10.7329858
  40.2047877  17.5752306  11.0250209  31.3644005  19.0094069   7.3445300
  31.4383013  18.8469240   8.1987150  32.1813511  19.1984258   7.1005782
  31.4960363  19.0130811   7.4343326  25.1249761  19.3551931   4.3739744
  24.2987879  19.6013669   4.2474023  25.1861752  19.2764012   5.2401802
  25.0123928  19.3796880   4.4828688  27.3425785   5.4220872   5.3335184
  26.4748210   5.4943472   5.3992793  27.6300989   6.2242951   5.5223159
  27.2565533   5.5515019   5.3709951  36.4658674   5.5698732  13.6646506
  37.2112266   5.3808542  13.2509931  36.0495978   6.0956970  13.1060362
  36.5143648   5.6200877  13.5211079  29.9048590  21.9728812   2.0758774
  30.1946889  21.5817793   1.3518000  30.6352071  22.1545517   2.5164049
  30.0555474  21.9422625   2.0341581  30.4943335  16.7746558  13.1611904
  29.9955029  17.4862325  13.2396793  31.3043560  17.0947224  13.1230067
  30.5399442  16.9273406  13.1668473  27.8454506  23.9496194   5.1418923
  27.6254801  23.6593549   5.9345590  27.6249028  23.2911149   4.6136836
  27.7802100  23.8095902   5.1807832  26.7571453  16.0369511   7.4074625
  26.4684702  15.4106982   7.9420352  27.6254801  15.9789798   7.4739306
  26.8431705  15.9357055   7.4965580  37.5449351  11.1804294   7.7256607
  37.2014117  10.4594629   8.0763857  37.6442393  10.9718145   6.8834965
  37.5091394  11.0428497   7.6528287  30.0122462  25.3225584   3.9249616
  30.6646520  24.7902026   4.1540642  29.3148070  24.9694236   4.3117490
  30.0053179  25.1915107   4.0161784  26.9603726  17.6764762   3.3316990
  27.7149694  18.0577801   3.5452453  26.3674339  18.1275905   3.7863687
  26.9840440  17.7993589   3.4299869  38.0062380  17.6429998   3.2680595
  38.5720413  18.3023208   3.1839138  37.3590283  17.9879696   3.7396997
  37.9941136  17.7911939   3.3253352  29.4210393   9.6327602  18.4574202
  28.6110169   9.9385382  18.3464045  29.8985080  10.3533184  18.5726787
  29.3713872   9.7842203  18.4581274  28.2801953  18.8473323   8.7057106
  27.7582706  18.9873615   9.3908970  28.6675973  18.0883987   8.8959223
  28.2605654  18.7558847   8.8358182  25.2693137   8.8979132   2.7752060
  24.9817933   8.5280402   2.0384008  25.9563605   9.3673987   2.5135765
  25.3282034   8.9126101   2.6267136  34.4768958  20.5868782   2.6917674
  34.2355634  19.8536643   2.2844739  34.6570291  21.1355639   2.0384008
  34.4676582  20.5591173   2.5347897  29.7068279  15.8777342   4.1038597
  29.5111061  16.4852076   3.5098900  29.9302624  15.1845286   3.6230271
  29.7102920  15.8654867   3.9454677  28.1046809  12.7632080   4.2219465
  28.8269461  12.9273238   3.7623271  27.6254801  13.4841745   4.1158805
  28.1410539  12.8930309   4.1385079  36.0640316   9.0995879   9.6016150
  35.2251417   9.1257158   9.3654413  36.1344683   9.7466614  10.1821497
  35.9508710   9.1992004   9.6525267  25.7554425  15.1690152  13.3273605
  26.2675522  15.4474406  12.6782365  25.4690768  15.9079446  13.6936418
  25.7889288  15.3192506  13.2863483  39.9397840  14.3063865   6.8877392
  39.8531815  14.4619291   7.7412170  39.4848320  14.9501941   6.5136797
  39.8601097  14.4239621   6.9584498  22.8421332   9.6760344   3.6237341
  22.9437468  10.4786506   3.9518317  23.6377218   9.4747680   3.3260422
  22.9749237   9.7646243   3.6272697  29.2738151   7.2616541  13.3874646
  29.0821348   7.2771675  14.2374070  30.1236747   7.4580215  13.3641301
  29.3713873   7.2930892  13.5097941  23.6585064   9.7907522  11.3658463
  23.5170556   8.9391463  11.4902971  23.9425627   9.8336183  10.5420669
  23.6792910   9.6707272  11.2626087  33.8123656  11.6274613   5.5102951
  33.5658370  11.5470363   6.3439740  34.1408779  10.8428080   5.3165479
  33.8244900  11.5000878   5.6050474  37.7071705  18.3357972   9.2989732
  37.5686064  19.0339018   9.8038475  36.9271703  18.1806628   8.9425914
  37.5714932  18.4158139   9.3216007  36.0449790  14.6354347  15.5512114
  36.0397829  13.7634164  15.5554541  36.7510784  14.8342516  15.0781570
  36.1494794  14.5358221  15.4819149  29.7720683  14.3631331  14.9225934
  29.9164059  14.9432539  14.2869044  30.1196332  14.7407628  15.6275789
  29.8448145  14.5052035  14.9324929  31.9440601  13.5621500  12.7051066
  31.1963915  13.7552514  12.2999344  32.0982126  12.7366719  12.4675187
  31.8563028  13.4686611  12.6096472  28.8448438  22.5534103  11.7886961
  28.9938002  21.9937019  11.1360365  29.6248440  22.6326105  12.1719480
  28.9822532  22.4819668  11.7483910  31.3701739  22.7248746  13.0671452
  31.2945410  22.0557556  13.6222240  31.2991598  23.4266534  13.5812118
  31.3482346  22.7293653  13.2248300  32.1842378   7.4572050  13.5946470
  32.6414992   8.1896025  13.7219262  32.2598707   7.0338515  14.3533725
  32.2633348   7.5029288  13.7247546  24.4275369   7.7037870  14.6835913
  23.8917558   7.0918228  14.9996681  24.4893134   8.2786006  15.3369580
  24.3571002   7.6984798  14.8271340  32.0271986  21.2449745   3.8995058
  32.7921877  20.9759388   3.5777722  31.9250076  20.7599755   4.6165121
  32.1253481  21.1339309   3.9574885  30.0624756   9.4474154  10.4388294
  29.2720830   9.2665614  10.7605629  30.4585378   8.6701107  10.4218588
  30.0041632   9.3061615  10.4840842  35.4468442  17.0816584   8.1647739
  34.7713444  16.8501817   8.6661127  35.4560818  16.4737767   7.5389845
  35.3486947  16.9575510   8.1463892  32.5762586  11.9234413  14.9211792
  32.5121727  12.7844370  14.7931929  32.7159774  11.6066406  14.1207344
  32.5878056  12.0034580  14.7840005  31.2581680  14.6166553   9.0627995
  30.8343929  14.8171052   8.3267014  31.0826535  13.7695401   9.1752295
  31.1692560  14.5215334   8.9701685  30.7593373  26.1317066  11.5249453
  31.2489304  25.4327855  11.3425117  30.1877606  25.8340936  12.1125510
  30.7477903  25.9843289  11.5850493  26.5464125  15.1118604   4.4955968
  26.7028744  15.0465407   5.3511960  26.8864718  15.8867157   4.2834648
  26.6197360  15.2167802   4.5910562  33.0843269  14.4876488   3.3649331
  33.6258815  13.9846869   3.8287952  33.3989828  14.4341682   2.5538816
  33.2107666  14.4055909   3.3133143  36.9560377  18.6979135  20.4776243
  37.7695242  18.4264284  20.6381376  36.7955343  18.3986675  19.6736439
  37.0530325  18.6134061  20.3821649  31.2529719  19.8793839   0.6489359
  31.3222539  19.0208378   0.7882360  32.0318174  20.0965720   0.3208384
  31.3782569  19.7846703   0.6206516  34.2332539   9.3812792  13.4171632
  34.4474508   8.7423706  12.8634986  33.6166438   9.8258616  12.9879493
  34.1737868   9.3522936  13.2722063  35.6437207  22.3031540   4.8625852
  35.2516998  21.9998256   4.1448719  35.7990279  23.1400630   4.6730806
  35.6090797  22.3815377   4.7282350  23.1198386  12.2953555   4.8116735
  23.4997351  12.7138099   4.1477002  22.5453751  12.8767010   5.1185578
  23.0909711  12.4431413   4.7593476  36.3971627  10.9901857  14.3554939
  35.5848309  10.6827748  14.4368111  36.8561561  10.5100857  14.9197651
  36.3452012  10.8738350  14.4509533  35.8076881  18.8681529   4.8031883
  35.4491536  19.0396172   5.5795915  35.3215592  19.3294735   4.2459882
  35.6835578  18.9620500   4.8357152  33.4925134  12.3961929  19.1383641
  33.9624765  13.0204045  19.5251515  33.5387014  11.7278904  19.6976856
  33.5693010  12.3896609  19.2783712  30.6496408   4.5018956   9.8632445
  30.1334897   3.8099148   9.9884024  30.0890337   5.1689733   9.8095043
  30.4902921   4.4982214   9.8738511  32.7188641   5.0411916  11.6925297
  32.3320395   5.0660948  12.4738827  32.2321579   4.4753595  11.2399814
  32.5901150   4.9607667  11.7413201  36.9681621  19.7585425  15.7499084
  37.6061341  19.2645621  15.4161540  36.3255712  19.6862826  15.1651311
  36.9675847  19.6744434  15.6141439  38.6938621  11.6074571  10.3165000
  38.2666229  11.5200920   9.5613099  38.0564674  11.7152347  10.9019844
  38.5368228  11.6107231  10.2910441  32.1859698   6.7150096  16.2561969
  33.0133127   6.4435245  16.3120583  32.2067544   7.5110938  16.6125787
  32.3112548   6.7929851  16.3177152  37.0235877  20.4505234  12.3904441
  37.8128256  20.0994298  12.5106522  37.1979475  21.2641622  12.1281074
  37.1656159  20.5191091  12.3692309  26.7629188  13.8613959   9.4432229
  25.9217194  13.7617833   9.6511123  26.9719196  14.6309440   9.7946550
  26.6693880  13.9606003   9.5259544  24.2404755  11.4833496   7.2716980
  23.8461453  11.5576508   6.4967090  23.6844872  11.8691443   7.8225342
  24.1007567  11.5515271   7.2384640  30.5745853  11.7895358   8.6929827
  30.2708990  11.2351347   9.2940235  29.8725273  11.9687568   8.2057861
  30.4262062  11.7340141   8.7099533  29.6311950   9.0995878   3.2574529
  29.9071684   8.3814791   2.8452096  30.2310619   9.6980798   3.0495635
  29.7605214   9.0816249   3.1655290  28.6364204  19.0045079  13.4001925
  28.5284559  19.0147141  14.2663983  28.8459985  19.8299860  13.2106879
  28.6514315  19.1286154  13.5006016  26.6537996  16.2557722  10.8623862
  26.0625929  16.8967220  10.8326877  27.4159019  16.6795339  10.8355162
  26.6786256  16.4133560  10.8539010  27.0498618   7.4159719  11.5291880
  27.5100100   7.4898649  12.2667004  27.0954725   8.2140973  11.1791701
  27.1249174   7.5453866  11.5864636  28.6981968   8.0826414  16.0963907
  28.3067533   7.4359761  16.5319685  28.8667831   8.6737849  16.7158162
  28.6652879   8.0740682  16.2526613  36.4127512  21.7067033   8.2955887
  36.2147201  22.1957848   7.6012098  35.7915223  21.9108275   8.8740020
  36.2915076  21.8083571   8.2779110  30.4735490  13.4751930   2.6366131
  31.2177535  13.8626206   2.8749081  30.6196186  12.6309355   2.8006619
  30.6046075  13.4082403   2.6960101  32.3915066   5.2702189   7.6697993
  31.5451111   5.4424997   7.5439342  32.3886198   4.4651533   8.0063821
  32.2662216   5.1763218   7.7009119  33.4613366   9.0477403   8.5360050
  32.9873320   8.5219165   9.0465361  33.8331502   8.5006876   7.9674912
  33.4463255   8.8893400   8.5275198  23.8386396  11.0448910  13.9043596
  24.7012009  10.9444619  13.8180926  23.5078179  10.4643619  13.3429168
  23.9171593  10.9440537  13.8089002  39.7250097  14.1079779   9.9466831
  39.4848320  13.2686194   9.9509257  40.2042104  14.1879946  10.6707604
  39.7602280  13.9961179  10.0541633  38.3301314  15.2731185  13.8301135
  39.0535513  14.8203712  13.6512155  38.0651276  15.5535851  13.0473463
  38.3982587  15.2482154  13.6879851  27.1988182   9.8691359  10.5654014
  26.5741252   9.8809751   9.9579967  26.8633777  10.3451534  11.2145255
  27.0573674   9.9409876  10.5710583  34.9433948  18.5117521   0.7295461
  35.6668147  18.9775634   0.5860035  34.5034539  18.5791131  -0.0206942
  34.9849641  18.5901358   0.5980243  34.1120103  15.3715064  11.9796150
  33.4977096  14.8273114  12.2744786  34.6287388  14.8579300  11.5001966
  34.0975766  15.2151473  11.9520379  33.3516401  16.4419334   9.7140449
  32.9244009  15.8169052   9.2805884  33.3441345  16.1594256  10.5399456
  33.2875542  16.3072114   9.7720276  26.4678928  11.4784507  12.7828883
  26.6272414  10.7227831  13.1880605  26.2871821  12.0275446  13.4369621
  26.4644287  11.4478321  12.9391589  31.6802110   7.3188088   9.9282983
  31.7044597   6.7848201   9.2395763  31.9313584   6.8105397  10.5908573
  31.7212029   7.1648992   9.9247628  19.1909700  14.6019583   9.3626127
  19.0853149  14.5566428   8.4978211  18.4409920  14.9473364   9.6440412
  19.0645303  14.6460491   9.2763457  27.9603432   6.0458907   9.3088727
  28.0001804   6.5468113  10.0223435  27.1353097   6.1369300   9.0394650
  27.8442958   6.1340723   9.3739265  30.1433045  15.6119646  17.4109022
  29.2928676  15.7491361  17.5466667  30.3061173  14.8783425  17.8556723
  30.0416909  15.5233748  17.4964621  29.3817796  12.5619416  11.6062626
  28.5509726  12.7293234  11.3997874  29.3269313  12.1855367  12.3911512
  29.2507211  12.5309148  11.6911154  27.1901579   6.0528309  17.2419037
  27.8154282   5.5090442  17.5148469  26.7352059   5.5723227  16.6726827
  27.2149840   5.9017791  17.1980631  27.7553840  10.8375008   2.1352744
  27.8956801  11.3347472   2.8381385  28.2536372  10.1361302   2.2766958
  27.8494921  10.8076987   2.2604323  27.7854062  11.7042119  -0.5354679
  28.4199142  12.3002544  -0.6005217  27.8679673  11.4045577   0.2791191
  27.8910613  11.7483027  -0.4251593  40.7636628  14.2357596  12.3331685
  41.3554468  14.8754847  12.3649883  41.1995622  13.5380633  12.6223752
  40.9155059  14.2275947  12.3812518  32.5930018  18.6574969  12.9589579
  32.0855109  19.2110815  13.4030209  32.2956664  18.7183259  12.1408353
  32.4734903  18.7481280  12.9038036  34.7592200   7.0228288  11.8014242
  35.1847271   6.5700815  11.1897768  34.1449193   6.4688359  12.0779029
  34.7320845   6.8742264  11.7519267  24.2907050  13.9009960   2.7334867
  24.7999279  14.4974467   3.1146172  24.7641322  13.6335933   2.0511286
  24.4350426  13.9495775   2.6889390  31.8372503  23.5899527   9.8646586
  31.6138157  22.8318356  10.2330612  31.3482346  23.6197548   9.1427025
  31.7315952  23.4821751   9.8123327  26.6497582  10.5366218   5.6008047
  25.9309571  10.9530351   5.8680911  27.0209944  11.1020457   5.0499685
  26.5989513  10.6815500   5.5590854  35.9497162  11.1694067  11.4910043
  35.9295090  10.9877362  12.3444822  35.9976363  12.0406086  11.4669627
  35.9531803  11.2710605  11.6133338  33.8943492  17.7581259  17.4158519
  33.8539347  17.1130936  16.8303675  34.7066811  17.7017876  17.7283932
  34.0086646  17.6540226  17.3755469  30.4850960  23.8099985   7.3183670
  30.0711359  23.1474115   6.9287512  31.1698334  23.9577844   6.7979365
  30.5249332  23.7340643   7.1840168  33.8516254  22.9690070   8.0707287
  33.4532537  23.0792341   7.3028107  33.2367474  23.1772137   8.6533847
  33.7015143  23.0163638   8.0438586  29.5821201  11.3878196  13.9708277
  29.0700104  10.7799379  14.3293308  29.4100697  12.1034788  14.4382253
  29.4810838  11.4041495  14.0924501  24.4286916   9.8315771  16.6210639
  24.2589506  10.4917146  16.0758846  23.9852866  10.0422332  17.3423128
  24.3386249   9.9601753  16.6472268  28.3546735   8.0720269   5.6637373
  28.8304101   8.4337349   5.0287554  27.8535335   8.7276736   5.9437515
  28.3512094   8.2214458   5.6114114  33.4590271   9.3102440  16.4110533
  34.0161702   9.0816250  15.7788998  33.1351336  10.0708106  16.1345745
  33.4936682   9.3886277  16.2767030  21.3288980  12.7362637  11.8799129
  20.7815700  12.0663282  11.9979997  22.1181358  12.3692484  11.9442596
  21.3641164  12.5827623  11.9067829  31.1773389  12.3970094  17.3762540
  31.9284716  12.7121770  17.6902094  31.3695965  12.1949265  16.5496462
  31.3164803  12.4137475  17.3005936  20.0875950  11.9483444   9.0345152
  19.9097711  11.4960053   9.7600067  19.7994972  12.7509606   9.2183629
  20.0188903  12.0006002   9.1688655  35.7499531  13.2041162   8.2722542
  36.2453196  12.4864157   8.2326562  34.9399307  12.9011959   8.1577029
  35.7043424  13.0538808   8.2496268  31.1958142  17.0538975   0.4219547
  30.3869465  16.7305648   0.3752856  31.7033051  16.3472197   0.3547795
  31.1507809  16.9020291   0.4049841  21.8248420  14.4811168   6.1466911
  20.9593939  14.4696859   6.0349682  21.9247236  14.2941391   6.9938050
  21.7122587  14.4517229   6.2555855  37.8151350  15.9544849  10.9599671
  38.2406421  15.4319271  10.4070096  37.4508270  16.5525687  10.4388294
  37.8237952  15.9655076  10.8008681  27.4505430  24.2509067   9.7197016
  27.7651988  25.0645455   9.7274798  27.8598843  23.8659285  10.3879176
  27.5573528  24.3137769   9.8201108  34.4029949  19.6679113   7.2900828
  34.8741127  20.3819376   7.4590814  34.7390128  19.0677864   7.8260698
  34.5225064  19.6850578   7.3933204  36.4906934  21.2780427  19.4692900
  36.6003899  20.4888987  19.8249648  36.8197830  21.1886363  18.6667238
  36.5559340  21.1486280  19.4035291  31.3199444   4.4406584  14.2458923
  31.4527350   3.6437577  14.5739899  31.7044597   4.9672987  14.8257199
  31.3955773   4.4006501  14.3802426  35.0403896  19.4597048  14.0528521
  34.4924841  18.8354931  13.7848586  35.5016924  19.6491320  13.3372600
  35.0271105  19.3956098  13.9078952  37.8497760   7.5282402  11.4379713
  37.2660749   8.0291609  11.0257281  38.1702054   7.0211958  10.8044037
  37.8110935   7.5274237  11.2838220  28.9787891   4.4365759  12.4936817
  29.5232304   4.0956886  13.0841159  29.0324827   5.2951221  12.6358101
  29.0677010   4.5121018  12.6018690  24.7918450  18.1982175   9.3675625
  25.3963307  18.1578009   8.7389446  24.5845762  19.0453327   9.3979681
  24.8507347  18.3170178   9.2791741  34.6062222  20.4648120  10.5837862
  35.4260596  20.3211086  10.8454157  34.3256299  21.0894319  11.1254300
  34.6858965  20.5358472  10.7025802  20.0269732  17.1816793   9.2374548
  19.9294010  16.3713064   9.5464605  20.8098602  17.1608586   8.8520816
  20.1285868  17.0583883   9.2261411  35.7356585  24.9475750   8.8570314
  35.1161616  24.3568397   8.6880329  35.6340448  25.5387185   8.2234638
  35.6294260  24.9479833   8.7375304  35.4625718  28.4928032  11.1013883
  35.3384415  29.0790477  11.7363702  36.1144002  27.9988228  11.4026158
  35.5399367  28.5066836  11.2399813  40.4884059  31.6689749  10.3801394
  41.1333061  31.1762192  10.0612343  40.7285836  31.8114535  11.2067473
  40.6194644  31.6167191  10.4550928  41.0051344  22.0567689   7.2724052
  40.6754674  22.5078832   6.6027751  40.3296346  21.9783852   7.8197059
  40.8561780  22.1118824   7.2547275  38.9006926  28.4107453  16.5142908
  39.0727429  28.3013348  17.3628189  39.4376283  29.0561859  16.2774100
  39.0051930  28.4899455  16.6048004  37.8031498  34.7839094  11.1961406
  38.3429723  34.6410225  11.8664779  37.1201444  35.1835844  11.5645432
  37.7823651  34.8218764  11.3495828  33.2068643  31.0039384  11.3495828
  32.9407058  30.1878501  11.5086818  33.2207207  31.0492540  10.4791343
  33.1693365  30.8896289  11.2449310  37.9567249  24.5417763  13.9962835
  37.2639046  24.0714742  14.2423567  38.5727576  24.3156067  14.5704543
  37.9451779  24.4384894  14.1171988  33.6162056  31.7898164   8.6307572
  33.4337630  31.7645050   7.7779864  34.3511725  32.2597102   8.6696481
  33.6976120  31.8559526   8.5105490  36.6807808  28.5083167  15.1389681
  37.4047780  28.4936197  15.6254575  36.7823944  29.2178522  14.6411649
  36.8026017  28.6107870  15.1368467  33.5832967  28.6691664   8.7806639
  34.1606469  28.5328115   9.4198884  32.8847028  28.2127449   9.0352223
  33.5653988  28.5813931   8.9128928  39.3134981  27.8763483   7.4810017
  38.7384572  28.0355651   8.1173978  38.9370657  27.2398892   7.0178467
  39.1737793  27.8061295   7.5064575  29.0591800  27.5203557   5.4954457
  29.1452052  27.1435426   6.2767987  29.6867597  27.1464003   5.0174415
  29.1648351  27.4089039   5.5399934  40.7626472  22.5515659  19.7188988
  40.4479913  23.3215222  19.4558550  40.4416404  21.9885915  19.1341215
  40.6685391  22.5825927  19.5930338  38.3158369  20.9406180   5.3335184
  37.4480794  21.0128780   5.3992793  38.6033573  21.7428259   5.5223159
  38.2298117  21.0700327   5.3709951  40.3942977  25.1512910  18.4574202
  39.5842753  25.4570690  18.3464045  40.8717664  25.8718492  18.5726787
  40.3446456  25.3027511  18.4581274  36.7287009  30.6875460  13.3273605
  37.2408106  30.9659713  12.6782365  36.4423351  31.4264754  13.6936418
  36.7621872  30.8377814  13.2863483  40.2470734  22.7801849  13.3874646
  40.0553931  22.7956983  14.2374070  41.0969330  22.9765523  13.3641301
  40.3446456  22.8116200  13.5097941  34.6317647  25.3092830  11.3658463
  34.4903139  24.4576771  11.4902971  34.9158211  25.3521491  10.5420669
  34.6525493  25.1892580  11.2626087  40.7453267  29.8816639  14.9225934
  40.8896643  30.4617847  14.2869044  41.0928915  30.2592936  15.6275789
  40.8180728  30.0237343  14.9324929  35.4007953  23.2223178  14.6835913
  34.8650142  22.6103536  14.9996681  35.4625717  23.7971314  15.3369580
  35.3303585  23.2170106  14.8271340  41.0357339  24.9659462  10.4388294
  40.2453414  24.7850922  10.7605629  41.4317962  24.1886415  10.4218588
  40.9774215  24.8246923  10.4840842  41.6228992  20.0204264   9.8632445
  41.1067480  19.3284456   9.9884024  41.0622920  20.6875041   9.8095043
  41.4635505  20.0167522   9.8738511  37.7361771  29.3799267   9.4432229
  36.8949778  29.2803141   9.6511123  37.9451779  30.1494747   9.7946550
  37.6426464  29.4791311   9.5259544  35.2137338  27.0018804   7.2716980
  34.8194036  27.0761816   6.4967090  34.6577455  27.3876750   7.8225342
  35.0740151  27.0700579   7.2384640  41.5478436  27.3080666   8.6929827
  41.2441574  26.7536655   9.2940235  40.8457857  27.4872876   8.2057861
  41.3994646  27.2525449   8.7099533  39.6096787  34.5230387  13.4001925
  39.5017142  34.5332449  14.2663983  39.8192569  35.3485167  13.2106879
  39.6246898  34.6471462  13.5006016  37.6270579  31.7743030  10.8623862
  37.0358513  32.4152528  10.8326877  38.3891603  32.1980647  10.8355162
  37.6518840  31.9318868  10.8539010  38.0231202  22.9345027  11.5291880
  38.4832684  23.0083957  12.2667004  38.0687309  23.7326281  11.1791701
  38.0981757  23.0639174  11.5864636  39.6714552  23.6011722  16.0963907
  39.2800117  22.9545069  16.5319685  39.8400415  24.1923157  16.7158162
  39.6385462  23.5925990  16.2526613  34.8118980  26.5634218  13.9043596
  35.6744593  26.4629927  13.8180926  34.4810763  25.9828927  13.3429168
  34.8904176  26.4625845  13.8089002  38.1720766  25.3876667  10.5654014
  37.5473836  25.3995059   9.9579967  37.8366361  25.8636842  11.2145255
  38.0306258  25.4595184  10.5710583  34.8846441  33.4477127  12.0057779
  34.3546366  32.7569566  12.0552753  35.1571535  33.4387312  11.1770487
  34.8471164  33.3444259  11.8905195  37.4411511  26.9969815  12.7828883
  37.6004998  26.2413139  13.1880605  37.2604405  27.5460754  13.4369621
  37.4376870  26.9663628  12.9391589  30.1642284  30.1204891   9.3626127
  30.0585733  30.0751736   8.4978211  29.4142504  30.4658672   9.6440412
  30.0377887  30.1645799   9.2763457  38.9336016  21.5644214   9.3088727
  38.9734388  22.0653421  10.0223435  38.1085681  21.6554608   9.0394650
  38.8175542  21.6526031   9.3739265  41.1165629  31.1304954  17.4109022
  40.2661259  31.2676669  17.5466667  41.2793757  30.3968733  17.8556723
  41.0149492  31.0419056  17.4964621  40.3550379  28.0804724  11.6062626
  39.5242309  28.2478542  11.3997874  40.3001897  27.7040675  12.3911512
  40.2239794  28.0494456  11.6911154  38.1634163  21.5713617  17.2419037
  38.7886866  21.0275750  17.5148469  37.7084643  21.0908535  16.6726827
  38.1882423  21.4203099  17.1980631  40.5553785  26.9063504  13.9708277
  40.0432688  26.2984687  14.3293308  40.3833281  27.6220096  14.4382253
  40.4543422  26.9226803  14.0924501  35.4019499  25.3501079  16.6210639
  35.2322090  26.0102454  16.0758846  34.9585449  25.5607640  17.3423128
  35.3118833  25.4787061  16.6472268  39.3279319  23.5905577   5.6637373
  39.8036685  23.9522657   5.0287554  38.8267918  24.2462044   5.9437515
  39.3244678  23.7399766   5.6114114  32.3021564  28.2547944  11.8799129
  31.7548283  27.5848590  11.9979997  33.0913942  27.8877792  11.9442596
  32.3373748  28.1012931  11.9067829  31.0608533  27.4668752   9.0345152
  30.8830294  27.0145361   9.7600067  30.7727555  28.2694914   9.2183629
  30.9921487  27.5191310   9.1688655  32.7981003  29.9996476   6.1466911
  31.9326523  29.9882166   6.0349682  32.8979819  29.8126699   6.9938050
  32.6855170  29.9702537   6.2555855  39.9520474  19.9551067  12.4936817
  40.4964887  19.6142194  13.0841159  40.0057410  20.8136529  12.6358101
  40.0409594  20.0306326  12.6018690  31.0002316  32.7002101   9.2374548
  30.9026594  31.8898372   9.5464605  31.7831185  32.6793894   8.8520816
  31.1018452  32.5769191   9.2261411   2.8546702  21.4366790  23.1330730
   2.7871203  21.4562749  22.2633317   2.8402365  22.2797117  23.3586401
   2.8425459  21.5640525  23.0383207   0.6405320  20.2111176  21.4077324
   1.1913241  19.5779245  21.6474416   0.6249435  20.7426569  22.0992829
   0.7190516  20.1960124  21.5456183   7.8760247  35.3916188  16.3406052
   7.8454252  36.2460825  16.5124322   8.4741596  35.0911481  16.8992196
   7.9597405  35.4732685  16.4480854   3.9211753  36.5383883  23.7390634
   4.4667713  37.2168970  23.7984604   3.8628629  36.3971344  22.8792216
   3.9927667  36.6175885  23.6202695   5.0112127  25.3156428  18.3098976
   4.6965568  26.0059906  18.7419399   4.4939068  25.2601210  17.6084477
   4.8876597  25.4091316  18.2695925   4.3524560  35.3160929  14.4236387
   3.8236032  35.5320562  15.0833693   4.8749580  36.0097067  14.3437356
   4.3513013  35.4504066  14.5091986   9.3026572  33.5377634  23.5919853
   8.4654993  33.6079821  23.8267447   9.2714803  33.5402129  22.7194155
   9.1744854  33.5487861  23.4979401   6.9834412  28.6020415  22.1763575
   7.6260320  28.6718520  22.7625490   7.2357432  27.9349638  21.6743117
   7.1156544  28.5146764  22.1890854  10.1981275  38.2787507  18.8253784
  10.8597709  37.7178176  18.7249693   9.5572687  37.7839538  19.1506476
  10.2010142  38.1223916  18.8586125   8.3136562  38.1354556  16.4035377
   8.6444779  38.6682196  15.7975472   8.8869650  38.1893443  17.0597328
   8.4470241  38.2224125  16.4113159   3.5268451  35.9819458  17.0858957
   3.6215306  36.7208753  17.5398583   2.9027295  35.5536934  17.5193522
   3.4477481  36.0280779  17.2167105   2.2185694  29.6957387  19.8874528
   1.5142021  29.2066572  20.0458447   2.2670668  29.7079861  19.0162973
   2.1215746  29.6247035  19.7813868   9.4215914  33.3765053  17.9075539
   9.1652479  32.5644994  17.7173421  10.2645228  33.3842620  17.6805726
   9.5081939  33.2577050  17.8460356   3.6019006  27.3164677  22.6451693
   3.9829518  26.6342848  23.0319567   2.7982290  27.0274279  22.4627357
   3.5395468  27.1731725  22.6755749  13.8279286  36.9552098  23.1330730
  13.7603786  36.9748057  22.2633317  13.8134948  37.7982425  23.3586401
  13.8158042  37.0825833  23.0383207   4.2375632  28.3587256  26.4571819
   4.9829224  28.1697066  26.0435245   3.8212937  28.8845494  25.8985676
   4.2860607  28.4089401  26.3136393  11.6137903  35.7296484  21.4077324
  12.1645825  35.0964553  21.6474416  11.5982019  36.2611877  22.0992829
  11.6923100  35.7145432  21.5456183   5.3166309  33.9692818  20.5181921
   4.9731075  33.2483153  20.8689170   5.4159352  33.7606669  19.6760279
   5.2808352  33.8317021  20.4453601   3.8357275  31.8884403  22.3941464
   2.9968375  31.9145682  22.1579727   3.9061642  32.5355138  22.9746810
   3.7225668  31.9880529  22.4450580   2.2826553  28.7869780  17.1269079
   2.9852906  28.5877528  16.6489038   2.0170742  28.0145722  17.4337923
   2.3473185  28.6432746  17.1014521   7.7114799  37.0952389  19.6802705
   7.6248773  37.2507816  20.5337484   7.2565279  37.7390465  19.3062110
   7.6318055  37.2128145  19.7509812   1.5840615  34.4163137  18.3028265
   1.3375329  34.3358887  19.1365054   1.9125738  33.6316604  18.1090792
   1.5961858  34.2889402  18.3975788   4.4286662  23.4250449  20.2565626
   4.5470230  23.8826913  19.5232929   4.2548838  22.6195711  19.9701844
   4.4205833  23.3744222  20.1066560   2.0049497  32.1701316  26.2096945
   2.2191467  31.5312230  25.6560299   1.3883397  32.6147140  25.7804807
   1.9454827  32.1411460  26.0647376   4.1688585  33.7790381  27.1480252
   3.3565267  33.4716272  27.2293425   4.6278520  33.2989381  27.7122964
   4.1168970  33.6626874  27.2434846   1.3964226  25.2801252  21.1984288
   0.5257784  25.2539973  21.1517597   1.6504567  25.1078444  20.3810134
   1.3057786  25.2511396  21.0704425   6.4655580  34.3963095  23.1090313
   6.0383188  34.3089444  22.3538413   5.8281632  34.5040871  23.6945157
   6.3085187  34.3995755  23.0835755   3.6486660  27.2503314  19.7446173
   3.8536254  27.1825622  20.5903170   3.3213084  28.0562135  19.6767350
   3.6301908  27.3589255  19.8605828   6.9020348  27.8035079  19.2248938
   6.2894662  28.2905481  19.6102670   6.9984523  27.1278569  19.7686589
   6.8258246  27.7753387  19.3627796   0.9039429  29.5597920  14.3246438
   1.3583175  29.7308480  15.0494282   1.3779475  28.9466030  13.9244213
   1.0407749  29.4948805  14.3720199  10.5445376  38.8752015  24.6526454
  10.6028500  39.3238664  25.3986431   9.9111843  39.2850828  24.2156534
  10.4596671  39.0025750  24.6979003   1.2330325  31.8365927  21.3285364
   0.7590279  31.3107689  21.8390675   1.6048461  31.2895400  20.7600226
   1.2180214  31.6781924  21.3200511   7.4967055  36.8968303  22.7392145
   7.2565278  36.0574718  22.7434571   7.9759063  36.9768470  23.4632918
   7.5319239  36.7849703  22.8466947   3.1613824  32.7302482  14.3911118
   2.6336843  32.8131226  13.7016827   3.6209533  33.4720353  14.3875763
   3.1515675  32.8523144  14.2885813   9.4972242  33.6769760  20.6921404
   9.2582012  33.6365594  19.8542188   9.6606144  34.5240912  20.8187125
   9.4862546  33.7961845  20.5874886   2.1816189  26.4334266  26.1304986
   1.6856751  26.6297941  25.4396553   2.9385251  26.8326935  25.9593788
   2.2203014  26.5212000  26.0025123   8.5353586  37.0246120  25.1256999
   9.1271427  37.6643371  25.1575197   8.9712581  36.3269157  25.4149065
   8.6872018  37.0164471  25.1737831   2.5309159  29.8116812  24.5939555
   2.9564230  29.3589339  23.9823082   1.9166152  29.2576883  24.8704343
   2.5037804  29.6630789  24.5444581   5.5602728  34.2391339  17.4260141
   4.8893918  34.7821041  17.2973207   6.2542478  34.7086194  17.1841836
   5.5631595  34.3889610  17.3715669   5.7230855  30.6947223  20.3350514
   6.0758465  30.2676945  21.0096313   4.8645657  30.6098066  20.4651591
   5.6480300  30.6191963  20.4545525   3.7214121  33.9582591  24.2835357
   3.7012048  33.7765886  25.1370135   3.7693322  34.8294610  24.2594940
   3.7248762  34.0599129  24.4058651   7.1554915  25.8165634  21.2634827
   6.6485780  25.1094774  21.1956004   7.9522349  25.4858823  21.3935903
   7.1982155  25.6638786  21.2733822   3.0718931  32.3232247  17.1608491
   2.8432624  32.3464948  16.3186849   3.3317007  31.4989714  17.2803501
   3.0765119  32.2048327  17.0533688   1.2307230  32.0990964  29.2035846
   1.7878660  31.8704774  28.5714312   0.9068295  32.8596630  28.9271059
   1.2653640  32.1774801  29.0692343   5.7975637  31.3132184  17.4111649
   5.7969864  31.1580840  18.2695925   5.5931817  32.1595171  17.3553034
   5.7675415  31.4152805  17.5299588   3.5216489  35.9929686  21.0647856
   4.0170155  35.2752681  21.0251876   2.7116265  35.6900483  20.9502343
   3.4760383  35.8427332  21.0421582   2.1648758  24.1525434  23.6365330
   1.3594722  24.0423164  23.9533168   2.0355493  24.2537890  22.7795196
   2.0268891  24.1509104  23.5573370   5.6214718  30.3170926  24.2305027
   5.0377707  30.8180133  23.8182594   5.9419013  29.8100482  23.5969350
   5.5827894  30.3162761  24.0763534  15.4019246  38.9435757  20.2565626
  15.5202814  39.4012221  19.5232929  15.2281422  38.1381019  19.9701844
  15.3938417  38.8929529  20.1066560  18.1287499  41.3350942  21.2634827
  17.6218364  40.6280082  21.1956004  18.9254933  41.0044131  21.3935903
  18.1714738  41.1824094  21.2733822  13.1381341  39.6710742  23.6365330
  12.3327305  39.5608472  23.9533168  13.0088077  39.7723198  22.7795196
  13.0001474  39.6694412  23.5573370   4.0804473  17.6856496  17.6359485
   4.7871240  17.1908527  17.7646420   4.2692408  18.1265577  16.9062144
   4.2132378  17.6774846  17.5468531   3.6162577  13.4762014  10.6730681
   4.1618537  14.1547101  10.7324651   3.5579453  13.3349475   9.8132263
   3.6878491  13.5554016  10.5542742   9.5023437  17.8285364   6.7309478
   8.6721140  18.0396008   6.8942895   9.4532690  17.0022419   6.4551762
   9.3730173  17.7374971   6.7146844   1.2196767  21.1084032  15.5273561
   1.3080113  20.9210173  16.3751771   1.6486479  20.4621462  15.1278408
   1.2958869  20.9847040  15.5945312   8.9977396  10.4755765  10.5259900
   8.1605817  10.5457952  10.7607494   8.9665627  10.4780260   9.6534202
   8.8695678  10.4865992  10.4319448   6.7587753  18.4984719   6.8674194
   6.3222984  18.5021461   7.6233165   6.4250668  19.1790218   6.4353771
   6.6450373  18.5997174   6.9155027   1.3316826  20.5393051  18.1917344
   2.1157243  20.6523899  18.5573086   1.1313421  19.7134189  18.3876030
   1.4182852  20.4339771  18.2751730   1.4887219  22.4503154  11.8383800
   0.6902465  22.2102654  12.0957669   1.9373231  22.5017546  12.5850848
   1.4361831  22.4225545  11.9868724   9.8932099  15.2165639   5.7593831
  10.5548533  14.6556307   5.6589740   9.2523511  14.7217669   6.0846522
   9.8960966  15.0602048   5.7926171   1.4771749  16.0983802  14.6689285
   2.0510611  15.4611046  14.8237849   1.3986553  16.0987885  13.7998942
   1.5504984  16.0048914  14.5635696   6.7991897  17.4692780  14.6774138
   6.5630534  16.6380845  14.5586199   7.4435126  17.4178387  15.2628982
   6.8586568  17.3390468  14.7460032   7.8228318  17.2537229  10.7402433
   7.5174135  17.9865285  11.1015748   7.1034533  16.8475158  10.4595219
   7.6715660  17.3018962  10.7515570  13.5230110  13.8930229  10.0670777
  13.4554610  13.9126188   9.1973363  13.5085772  14.7360556  10.2926447
  13.5108866  14.0203964   9.9723254   3.9326456   5.2965387  13.3911866
   4.6780048   5.1075197  12.9775292   3.5163761   5.8223625  12.8325723
   3.9811430   5.3467532  13.2476439  11.3088727  12.6674615   8.3417371
  11.8596649  12.0342684   8.5814463  11.2932842  13.1990008   9.0332875
  11.3873923  12.6523564   8.4796229   7.4065623  14.0330521   6.6142752
   7.3199597  14.1885947   7.4677531   6.9516102  14.6768596   6.2402157
   7.3268879  14.1506276   6.6849859   5.1739487  18.0624627   9.0255093
   5.0353847  18.7605673   9.5303835   4.3939485  17.9073284   8.6691275
   5.0382714  18.1424794   9.0481367   3.5117573  14.3621002  15.2777475
   3.5065611  13.4900819  15.2819901   4.2178566  14.5609172  14.8046930
   3.6162577  14.2624877  15.2084510   2.9136225  16.8083240   7.8913100
   2.2381226  16.5768472   8.3926487   2.9228601  16.2004422   7.2655205
   2.8154729  16.6842165   7.8729252   4.4228159  18.4245790  20.2041604
   5.2363025  18.1530939  20.3646736   4.2623126  18.1253330  19.4001800
   4.5198108  18.3400716  20.1087010   1.7000321   9.1079447  13.1436992
   1.9142291   8.4690362  12.5900346   1.0834221   9.5525271  12.7144854
   1.6405651   9.0789591  12.9987423   3.1104989  22.0298196   4.5891213
   2.7184781  21.7264911   3.8714079   3.2658061  22.8667286   4.3996167
   3.0758579  22.1082032   4.4547710   3.8639409  10.7168513  14.0820299
   3.0516091  10.4094403  14.1633472   4.3229344  10.2367513  14.6463011
   3.8119794  10.6005005  14.1774893   0.9592917  12.1228584  18.8649001
   1.4292548  12.7470700  19.2516876   1.0054797  11.4545559  19.4242216
   1.0360793  12.1163264  19.0049073   4.4349403  19.4852080  15.4764444
   5.0729124  18.9912276  15.1426900   3.7923495  19.4129481  14.8916671
   4.4343630  19.4011089  15.3406799   6.1606403  11.3341226  10.0430360
   5.7334012  11.2467575   9.2878460   5.5232456  11.4419002  10.6285204
   6.0036011  11.3373886  10.0175802   4.4903660  20.1771889  12.1169801
   5.2796038  19.8260953  12.2371883   4.6647258  20.9908277  11.8546435
   4.6323942  20.2457746  12.0957669  10.2396200  15.8130146  11.5866501
  10.2979324  16.2616795  12.3326478   9.6062667  16.2228959  11.1496581
  10.1547495  15.9403881  11.6319049   3.8795295  21.4333688   8.0221247
   3.6814983  21.9224503   7.3277459   3.2583006  21.6374930   8.6005381
   3.7582859  21.5350227   8.0044471   7.1917879  13.8346434   9.6732191
   6.9516102  12.9952849   9.6774618   7.6709886  13.9146601  10.3972965
   7.2270063  13.7227834   9.7806994   5.7969096  14.9997841  13.5566496
   6.5203295  14.5470367  13.3777516   5.5319059  15.2802506  12.7738824
   5.8650370  14.9748809  13.4145211   1.5787886  15.0981719  11.7061511
   0.9644879  14.5539769  12.0010146   2.0955171  14.5845955  11.2267327
   1.5643548  14.9418128  11.6785739   0.8184183  16.1685989   9.4405809
   0.3911791  15.5435708   9.0071245   0.8109127  15.8860911  10.2664817
   0.7543324  16.0338770   9.4985637   8.2304410  13.9624251  12.0597045
   8.8222251  14.6021502  12.0915243   8.6663405  13.2647288  12.3489112
   8.3822842  13.9542602  12.1077878   3.4164945  10.8960722  11.2175403
   3.3962872  10.7144017  12.0710182   3.4644146  11.7672741  11.1934987
   3.4199586  10.9977261  11.3398698   1.3611275  17.4847914  17.1423880
   1.3207130  16.8397591  16.5569036   2.1734593  17.4284532  17.4549292
   1.4754428  17.3806881  17.1020829   1.3184037  22.6956725   7.7972647
   0.9200320  22.8058996   7.0293468   0.7035256  22.9038792   8.3799207
   1.1682926  22.7430293   7.7703947   0.9258054   9.0369096  16.1375893
   1.4829484   8.8082905  15.5054359   0.6019119   9.7974761  15.8611105
   0.9604464   9.1152932  16.0032390   5.2819132  15.6811504  10.6865031
   5.7074204  15.1585926  10.1335456   4.9176052  16.2792342  10.1653654
   5.2905735  15.6921731  10.5274041   1.8697732  19.3945769   7.0166189
   2.3408910  20.1086031   7.1856174   2.2057910  18.7944519   7.5526058
   1.9892847  19.4117233   7.1198565   3.9574716  21.0047082  19.1958261
   4.0671682  20.2155643  19.5515008   4.2865613  20.9153018  18.3932599
   4.0227122  20.8752935  19.1300652   2.5071678  19.1863703  13.7793881
   1.9592624  18.5621586  13.5113947   2.9684707  19.3757975  13.0637961
   2.4938888  19.1222753  13.6344313   2.0730004  20.1914776  10.3103223
   2.8928378  20.0477742  10.5719518   1.7924082  20.8160974  10.8519660
   2.1526748  20.2625128  10.4291162  18.5443655  27.8479627   3.2746099
  18.5137659  28.7024264   3.4464368  19.1425003  27.5474920   3.8332243
  18.6280813  27.9296124   3.3820901  11.7443340  26.9355278   8.0299029
  10.8881235  27.0963776   8.0808146  11.7910993  26.0647342   8.0504090
  11.6242451  26.8306080   8.0405095  15.0537056  33.2041804  17.6359485
  15.7603823  32.7093835  17.7646420  15.2424992  33.6450885  16.9062144
  15.1864962  33.1960154  17.5468531  14.5895161  28.9947322  10.6730681
  15.1351121  29.6732409  10.7324651  14.5312037  28.8534783   9.8132263
  14.6611075  29.0739324  10.5542742  16.3660229  30.4231929   1.5464409
  16.2499755  31.1739615   1.9756547  17.1616116  30.1655883   1.7960496
  16.4664819  30.4966776   1.6468500   3.2024367  24.6742405   8.5835675
   2.5829399  24.0835053   8.4145690   3.1008231  25.2653841   7.9499998
   3.0962043  24.6746488   8.4640664  10.2992263  26.4141947   2.9168138
  10.9972428  26.5930075   3.4089601  10.6144595  25.8912287   2.2938527
  10.4487600  26.3635719   2.8970148   2.9293500  28.2194687  10.8279244
   2.8052197  28.8057133  11.4629063   3.5811785  27.7254883  11.1291519
   3.0067150  28.2333492  10.9665173   7.9551841  31.3956404  10.1066755
   8.6000844  30.9028847   9.7877703   8.1953618  31.5381191  10.9332833
   8.0862426  31.3433846  10.1816288  10.4937933  34.2411310   9.7573647
  10.7761175  33.4462716   9.5360403  11.2224093  34.7191897   9.7778708
  10.6427496  34.1945907   9.7276663   8.4719126  21.7834344   6.9989413
   8.1422456  22.2345487   6.3293111   7.7964128  21.7050507   7.5462419
   8.3229563  21.8385479   6.9812636  14.0889535  31.1539574  -0.1421301
  14.0040830  32.0100540   0.0028267  14.5773918  30.8783898   0.5260858
  14.1478432  31.2396895  -0.0219220  15.6795534  17.7719867   5.2439023
  15.3648975  18.4623345   5.6759446  15.1622476  17.7164649   4.5424524
  15.5560005  17.8654755   5.2035972  15.0207968  27.7724368   1.3576434
  14.4919439  27.9884001   2.0173740  15.5432988  28.4660506   1.2777403
  15.0196421  27.9067505   1.4432033  20.4756021  33.3470672   6.7309478
  19.6453724  33.5581316   6.8942895  20.4265273  32.5207727   6.4551762
  20.3462756  33.2560278   6.7146844   8.5365758  36.1774526   9.5657388
   8.0192700  35.8181941   8.9618696   9.2340150  35.6536701   9.5763454
   8.5631340  36.0472214   9.4787646  12.1929350  36.6269340  15.5273561
  12.2812696  36.4395481  16.3751771  12.6219063  35.9806770  15.1278408
  12.2691453  36.5032348  15.5945312   9.7599810  35.9100500  14.5091223
   9.1970645  35.4973110  15.0330884  10.5220834  35.8353406  14.9284366
   9.7894259  35.8377901  14.6484223  19.9709979  25.9941073  10.5259900
  19.1338400  26.0643260  10.7607494  19.9398210  25.9965568   9.6534202
  19.8428262  26.0051300  10.4319448   6.3674708  28.1374108  16.2408268
   6.5395212  28.0280003  17.0893550   6.9044066  28.7828514  16.0039461
   6.4719712  28.2166110  16.3313365   5.2699280  34.5105749  10.9226767
   5.8097505  34.3676880  11.5930139   4.5869226  34.9102499  11.2910793
   5.2491434  34.5485420  11.0761188  10.7131864  19.2543362   2.2139497
  11.4418025  19.0759317   1.7677653  10.8026757  20.0961442   2.4246675
  10.8338526  19.3527240   2.1793015  14.6940165  30.1896749   6.1171791
  15.4497680  30.6228264   6.1560700  14.8002489  29.5401519   6.6906427
  14.8210336  30.1574233   6.2069817  17.7320336  34.0170027   6.8674194
  17.2955568  34.0206769   7.6233165  17.3983252  34.6975526   6.4353771
  17.6182956  34.1182482   6.9155027  12.3049410  36.0578359  18.1917344
  13.0889826  36.1709207  18.5573086  12.1046004  35.2319497  18.3876030
  12.3915435  35.9525079  18.2751730   0.6736425  30.7306040  11.0761188
   0.4074840  29.9145156  11.2352178   0.6874989  30.7759195  10.2056704
   0.6361148  30.6162944  10.9714670  17.6517819  21.0583854   9.1103622
  18.2943727  21.1281959   9.6965537  17.9040840  20.3913077   8.6083164
  17.7839951  20.9710203   9.1230901   5.4235032  24.2684418  13.7228196
   4.7306828  23.7981397  13.9688927   6.0395359  24.0422722  14.2969903
   5.4119562  24.1651550  13.8437349  12.4619803  37.9688461  11.8383800
  11.6635049  37.7287962  12.0957669  12.9105815  38.0202854  12.5850848
  12.4094414  37.9410853  11.9868724  20.8664682  30.7350946   5.7593831
  21.5281116  30.1741615   5.6589740  20.2256094  30.2402977   6.0846522
  20.8693550  30.5787356   5.7926171  17.1529513  31.7516329   5.5005820
  17.3885102  31.8961528   4.6732671  17.3019077  32.5158737   5.8937334
  17.2095316  31.8855383   5.4369424   4.1475591  28.2349822  14.8655041
   4.8715563  28.2202852  15.3519936   4.2491727  28.9445177  14.3677009
   4.2693800  28.3374525  14.8633828  18.9819970  30.5917995   3.3375424
  19.3128187  31.1245635   2.7315519  19.5553058  30.6456883   3.9937375
  19.1153649  30.6787564   3.3453206  11.5220540  31.7148906  19.7303988
  10.7293521  32.0292418  19.9156608  11.6369467  31.9300375  18.8924773
  11.4215950  31.7932743  19.6342323  14.1951859  28.4382898   4.0199004
  14.2898713  29.1772192   4.4738629  13.5710702  28.0100373   4.4533568
  14.1160889  28.4844218   4.1507151  12.4504333  31.6169110  14.6689285
  13.0243194  30.9796354  14.8237849  12.3719136  31.6173193  13.7998942
  12.5237568  31.5234222  14.5635696   7.8068051  30.0492375   6.7210482
   7.5487296  29.2164110   6.6941782   7.8616534  30.2749988   5.8802983
   7.7767829  29.9590147   6.5930619  12.8869102  22.1520826   6.8214575
  12.1825428  21.6630011   6.9798494  12.9354076  22.1643300   5.9503019
  12.7899153  22.0810474   6.7153915   6.7802764  27.6030138   7.2075377
   6.2052355  27.7622306   7.8439338   6.4038440  26.9665547   6.7443828
   6.6405576  27.5327951   7.2329935  10.4476052  26.0753487  12.0667755
  10.0590485  25.6507705  11.4119947   9.7830751  26.3235637  12.5744782
  10.2922980  26.0492208  12.0455623  20.0899321  25.8328492   4.8415585
  19.8335886  25.0208433   4.6513468  20.9328635  25.8406059   4.6145773
  20.1765347  25.7140489   4.7800403  14.2702414  19.7728116   9.5791740
  14.6512925  19.0906287   9.9659614  13.4665698  19.4837718   9.3967404
  14.2078875  19.6295164   9.6095796  17.7724481  32.9878088  14.6774138
  17.5363118  32.1566153  14.5586199  18.4167710  32.9363695  15.2628982
  17.8319151  32.8575776  14.7460032   8.2294254  22.2782314  19.4454348
   7.9147695  23.0481877  19.1823911   7.9084187  21.7152570  18.8606575
   8.1353173  22.3092583  19.3195698  18.7960901  32.7722536  10.7402433
  18.4906718  33.5050593  11.1015748  18.0767117  32.3660466  10.4595219
  18.6448244  32.8204269  10.7515570   9.8044371  34.2546032   7.0710661
   9.8783379  34.0921204   7.9252511  10.6213877  34.4436221   6.8271142
   9.9360729  34.2582774   7.1608686  24.4962693  29.4115537  10.0670777
  24.4287194  29.4311496   9.1973363  24.4818356  30.2545864  10.2926447
  24.4841450  29.5389272   9.9723254   5.7826151  20.6672836   5.0600544
   4.9148577  20.7395435   5.1258154   6.0701355  21.4694914   5.2488520
   5.6965899  20.7966983   5.0975311  14.9059040  20.8150695  13.3911866
  15.6512632  20.6260505  12.9775292  14.4896344  21.3408933  12.8325723
  14.9544014  20.8652840  13.2476439  22.2821311  28.1859923   8.3417371
  22.8329232  27.5527992   8.5814463  22.2665426  28.7175316   9.0332875
  22.3606507  28.1708872   8.4796229   8.9343702  32.0198521  12.8877265
   8.4355395  32.7314288  12.9662153   9.7443926  32.3399187  12.8495427
   8.9799808  32.1725369  12.8933833   5.1971819  31.2821474   7.1339986
   4.9085068  30.6558945   7.6685713   6.0655167  31.2241761   7.2004666
   5.2832071  31.1809018   7.2230940  15.9849717  26.4256257   7.4521967
  15.6414483  25.7046592   7.8029217  16.0842759  26.2170108   6.6100326
  15.9491760  26.2880460   7.3793647  16.4462746  32.8881961   2.9945956
  17.0120779  33.5475171   2.9104498  15.7990649  33.2331659   3.4662358
  16.4341502  33.0363902   3.0518712   7.8610760  24.8779565  18.1839563
   7.0510535  25.1837345  18.0729405   8.3385446  25.5985147  18.2992147
   7.8114238  25.0294166  18.1846634   6.7202319  34.0925286   8.4322466
   6.1983073  34.2325578   9.1174331   7.1076339  33.3335950   8.6224583
   6.7006020  34.0010810   8.5623542  14.5040682  24.3447842   9.3281510
  13.6651783  24.3709121   9.0919774  14.5745050  24.9918577   9.9086857
  14.3909076  24.4443968   9.3790627   4.1954791  30.4142115  13.0538965
   4.7075888  30.6926369  12.4047725   3.9091134  31.1531409  13.4201778
   4.2289655  30.5644469  13.0128843  12.9509961  21.2433219   4.0609126
  13.6536313  21.0440967   3.5829084  12.6854149  20.4709161   4.3677970
  13.0156593  21.0996185   4.0354568  18.3798206  29.5515829   6.6142752
  18.2932181  29.7071255   7.4677531  17.9248686  30.1953904   6.2402157
  18.3001463  29.6691584   6.6849859   7.7138517  22.5068504  13.1140007
   7.5221714  22.5223638  13.9639430   8.5637113  22.7032178  13.0906662
   7.8114239  22.5382855  13.2363302   2.0985430  25.0359485  11.0923823
   1.9570922  24.1843426  11.2168331   2.3825993  25.0788146  10.2686029
   2.1193276  24.9159235  10.9891447  12.2524022  26.8726576   5.2368312
  12.0058736  26.7922327   6.0705101  12.5809145  26.0880044   5.0430839
  12.2645266  26.7452841   5.3315835  16.1472071  33.5809935   9.0255093
  16.0086430  34.2790981   9.5303835  15.3672069  33.4258591   8.6691275
  16.0115298  33.6610102   9.0481367  14.4850156  29.8806310  15.2777475
  14.4798195  29.0086127  15.2819901  15.1911150  30.0794480  14.8046930
  14.5895160  29.7810185  15.2084510   8.2121049  29.6083294  14.6491295
   8.3564425  30.1884502  14.0134405   8.5596698  29.9859591  15.3541149
   8.2848511  29.7503998  14.6590290  10.3840967  28.8073463  12.4316426
   9.6364281  29.0004477  12.0264704  10.5382492  27.9818682  12.1940548
  10.2963394  28.7138574  12.3361832   7.2848804  37.7986066  11.5152321
   7.4338368  37.2388982  10.8625726   8.0648807  37.8778068  11.8984840
   7.4222898  37.7271632  11.4749271   9.8102105  37.9700709  12.7936812
   9.7345776  37.3009520  13.3487601   9.7391964  38.6718497  13.3077479
   9.7882712  37.9745616  12.9513660  10.6242744  22.7024013  13.3211830
  11.0815358  23.4347988  13.4484622  10.6999073  22.2790479  14.0799086
  10.7033714  22.7481251  13.4512906   2.8675735  22.9489833  14.4101274
   2.3317925  22.3370191  14.7262041   2.9293500  23.5237969  15.0634940
   2.7971368  22.9436761  14.5536700  15.0970070  15.8813889   7.1905673
  15.2153638  16.3390352   6.4572976  14.9232246  15.0759150   6.9041891
  15.0889241  15.8307661   7.0406607   8.5025122  24.6926117  10.1653654
   7.7121197  24.5117577  10.4870990   8.8985745  23.9153070  10.1483948
   8.4441998  24.5513578  10.2106202  13.8868808  32.3268547   7.8913100
  13.2113810  32.0953780   8.3926487  13.8961184  31.7189730   7.2655205
  13.7887313  32.2027473   7.8729252  11.0162952  27.1686376  14.6477153
  10.9522093  28.0296333  14.5197290  11.1560140  26.8518370  13.8472704
  11.0278422  27.2486543  14.5105366   9.6982046  29.8618516   8.7893356
   9.2744295  30.0623015   8.0532374   9.5226901  29.0147364   8.9017656
   9.6092927  29.7667297   8.6967046  11.5243636  29.7328451   3.0914692
  12.0659181  29.2298832   3.5553312  11.8390195  29.6793645   2.2804177
  11.6508033  29.6507872   3.0398504  15.3960743  33.9431098  20.2041604
  16.2095608  33.6716247  20.3646736  15.2355709  33.6438638  19.4001800
  15.4930691  33.8586024  20.1087010  12.6732905  24.6264755  13.1436992
  12.8874874  23.9875669  12.5900346  12.0566804  25.0710579  12.7144854
  12.6138234  24.5974899  12.9987423  14.0837573  37.5483504   4.5891213
  13.6917365  37.2450219   3.8714079  14.2390645  38.3852594   4.3996167
  14.0491163  37.6267340   4.4547710  14.8371993  26.2353820  14.0820299
  14.0248675  25.9279711  14.1633472  15.2961928  25.7552821  14.6463011
  14.7852378  26.1190313  14.1774893  14.2477248  34.1133492   4.5297243
  13.8891902  34.2848135   5.3061276  13.7615958  34.5746698   3.9725242
  14.1235945  34.2072463   4.5622513  12.0647634  17.7364691   8.1324335
  11.1941192  17.7103412   8.0857644  12.3187975  17.5641883   7.3150181
  11.9741194  17.7074835   8.0044472  11.9325500  27.6413892  18.8649001
  12.4025132  28.2656008  19.2516876  11.9787381  26.9730867  19.4242216
  12.0093376  27.6348572  19.0049073   9.0896774  19.7470919   9.5897805
   8.5735263  19.0551111   9.7149384   8.5290703  20.4141696   9.5360404
   8.9303287  19.7434177   9.6003871  11.1589008  20.2863879  11.4190658
  10.7720761  20.3112911  12.2004188  10.6721945  19.7205558  10.9665174
  11.0301516  20.2059630  11.4678561  15.4081987  35.0037388  15.4764444
  16.0461707  34.5097584  15.1426900  14.7656079  34.9314789  14.8916671
  15.4076213  34.9196397  15.3406799  17.1338987  26.8526534  10.0430360
  16.7066595  26.7652883   9.2878460  16.4965040  26.9604310  10.6285204
  16.9768594  26.8559194  10.0175802  10.8246149  17.1730865  13.7100918
  11.4539267  17.7091165  13.4321988  10.9932012  17.0808224  14.5614483
  10.9423944  17.2392227  13.7949446  10.6260064  21.9602060  15.9827329
  11.4533493  21.6887208  16.0385944  10.6467910  22.7562901  16.3391147
  10.7512914  22.0381814  16.0442512  15.4636244  35.6957197  12.1169801
  16.2528622  35.3446261  12.2371883  15.6379841  36.5093585  11.8546435
  15.6056525  35.7643054  12.0957669   5.2029554  29.1065922   9.1697590
   4.3617561  29.0069797   9.3776484   5.4119562  29.8761403   9.5211911
   5.1094247  29.2057966   9.2524905   2.6805121  26.7285459   6.9982341
   2.2861819  26.8028471   6.2232450   2.1245238  27.1143406   7.5490702
   2.5407933  26.7967234   6.9650000  14.3170068  19.7066753   6.6786220
  14.5219661  19.6389061   7.5243217  13.9896492  20.5125575   6.6107397
  14.2985316  19.8152694   6.7945875   9.0146219  27.0347322   8.4195187
   8.7109356  26.4803310   9.0205595   8.3125640  27.2139532   7.9323222
   8.8662429  26.9792104   8.4364893   8.0712316  24.3447841   2.9839889
   8.3472050  23.6266754   2.5717457   8.6710985  24.9432761   2.7760995
   8.2005581  24.3268212   2.8920650   7.0764570  34.2497042  13.1267285
   6.9684925  34.2599104  13.9929343   7.2860351  35.0751823  12.9372239
   7.0914681  34.3738117  13.2271377  17.5703755  20.2598518   6.1588985
  16.9578069  20.7468920   6.5442717  17.6667930  19.5842008   6.7026636
  17.4941653  20.2316826   6.2967843  11.5722836  22.0161359   1.2586484
  12.0266583  22.1871919   1.9834329  12.0462882  21.4029469   0.8584260
  11.7091157  21.9512244   1.3060246   5.0938362  31.5009685  10.5889223
   4.5026295  32.1419183  10.5592238   5.8559385  31.9247302  10.5620522
   5.1186622  31.6585523  10.5804370   5.4898985  22.6611682  11.2557240
   5.9500466  22.7350612  11.9932364   5.5355091  23.4592936  10.9057062
   5.5649540  22.7905830  11.3129997   7.1382334  23.3278377  15.8229268
   6.7467900  22.6811724  16.2585045   7.3068197  23.9189813  16.4423523
   7.1053245  23.3192645  15.9791974  21.2128783  31.3315454  11.5866501
  21.2711907  31.7802103  12.3326478  20.5795251  31.7414267  11.1496581
  21.1280078  31.4589189  11.6319049  14.8527878  36.9518996   8.0221247
  14.6547567  37.4409811   7.3277459  14.2315589  37.1560238   8.6005381
  14.7315443  37.0535535   8.0044471   8.9135856  28.7203893   2.3631492
   9.6577901  29.1078169   2.6014441   9.0596553  27.8761318   2.5271979
   9.0446442  28.6534366   2.4225461  10.8315432  20.5154152   7.3963353
   9.9851477  20.6876960   7.2704703  10.8286564  19.7103496   7.7329181
  10.7062582  20.4215181   7.4274480  11.9013732  24.2929366   8.2625411
  11.4273687  23.7671128   8.7730722  12.2731868  23.7458839   7.6940272
  11.8863621  24.1345363   8.2540558   2.2786762  26.2900873  13.6308957
   3.1412375  26.1896582  13.5446286   1.9478545  25.7095582  13.0694529
   2.3571959  26.1892500  13.5354363  18.1650463  29.3531742   9.6732191
  17.9248686  28.5138157   9.6774618  18.6442470  29.4331909  10.3972965
  18.2002647  29.2413142   9.7806994  13.8297232  25.1865921   1.3251165
  13.3020251  25.2694665   0.6356874  14.2892940  25.9283792   1.3215809
  13.8199082  25.3086583   1.2225860  20.1655650  26.1333199   7.6261451
  19.9265420  26.0929033   6.7882235  20.3289551  26.9804351   7.7527172
  20.1545953  26.2525284   7.5214932  16.7701680  30.5183149  13.5566496
  17.4935879  30.0655675  13.3777516  16.5051642  30.7987814  12.7738824
  16.8382953  30.4934117  13.4145211   5.6388548  25.1143322  10.2919375
   5.0141619  25.1261714   9.6845328   5.3034143  25.5903497  10.9410615
   5.4974040  25.1861839  10.2975943   2.3514224  33.1743782  11.7323139
   1.8214148  32.4836221  11.7818114   2.6239317  33.1653968  10.9035848
   2.3138946  33.0710914  11.6170555  12.5520470  30.6167027  11.7061511
  11.9377463  30.0725077  12.0010146  13.0687754  30.1031263  11.2267327
  12.5376132  30.4603436  11.6785739  11.7916767  31.6871297   9.4405809
  11.3644375  31.0621015   9.0071245  11.7841711  31.4046219  10.2664817
  11.7275908  31.5524077   9.4985637   4.9079294  26.7236470  12.5094243
   5.0672780  25.9679794  12.9145965   4.7272187  27.2727409  13.1634981
   4.9044653  26.6930284  12.6656949  12.8499597  18.8897705  13.0645033
  12.3540158  19.0861380  12.3736600  13.6068659  19.2890374  12.8933834
  12.8886421  18.9775439  12.9365170  10.1202476  22.5640051   9.6548343
  10.1444964  22.0300164   8.9661123  10.3713950  22.0557360  10.3173934
  10.1612395  22.4100955   9.6512988   6.4003799  21.2910870   9.0354088
   6.4402170  21.7920076   9.7488795   5.5753463  21.3821263   8.7660011
   6.2843325  21.3792686   9.1004626   8.5833411  30.8571610  17.1374382
   7.7329042  30.9943324  17.2732027   8.7461539  30.1235388  17.5822084
   8.4817275  30.7685711  17.2229981   7.8218162  27.8071379  11.3327987
   6.9910092  27.9745197  11.1263235   7.7669679  27.4307330  12.1176872
   7.6907577  27.7761111  11.4176515   5.6301945  21.2980272  16.9684397
   6.2554649  20.7542405  17.2413830   5.1752425  20.8175190  16.3992188
   5.6550206  21.1469754  16.9245991  19.2036994  29.4809559  12.0597045
  19.7954834  30.1206810  12.0915243  19.6395988  28.7832596  12.3489112
  19.3555425  29.4727910  12.1077878  11.0330384  33.9026932  12.6854939
  10.5255475  34.4562779  13.1295570  10.7357030  33.9635222  11.8673714
  10.9135269  33.9933243  12.6303396  13.1992566  22.2680251  11.5279602
  13.6247638  21.8152778  10.9163129  12.5849559  21.7140322  11.8044390
  13.1721211  22.1194228  11.4784628  11.6386789  18.7395351   4.9370179
  10.9955107  18.5892998   5.5055318  11.2986196  18.4937696   4.1719284
  11.4931866  18.6807474   4.9073194  16.2286135  26.6954778   4.3600188
  15.5577325  27.2384480   4.2313253  16.9225886  27.1649633   4.1181883
  16.2315003  26.8453049   4.3055716  10.2772869  38.8351490   9.5911946
  10.0538524  38.0770319   9.9595973   9.7882712  38.8649511   8.8692386
  10.1716318  38.7273715   9.5388687  16.3914263  23.1510662   7.2690561
  16.7441873  22.7240385   7.9436360  15.5329064  23.0661505   7.3991638
  16.3163707  23.0755402   7.3885572   5.0897948  25.7818181   5.3273408
   4.3709937  26.1982314   5.5946271   5.4610310  26.3472420   4.7765046
   5.0389880  25.9267463   5.2856215  14.3897529  26.4146030  11.2175403
  14.3695456  26.2329325  12.0710182  14.4376729  27.2858049  11.1934987
  14.3932170  26.5162568  11.3398698  12.3343858  33.0033222  17.1423880
  12.2939713  32.3582899  16.5569036  13.1467177  32.9469840  17.4549292
  12.4487012  32.8992189  17.1020829  12.2916620  38.2142033   7.7972647
  11.8932903  38.3244304   7.0293468  11.6767840  38.4224100   8.3799207
  12.1415509  38.2615601   7.7703947  10.8644522  24.8216181   0.6646787
  10.2709361  25.1433178   0.1131354  10.9019800  23.9757277   0.4567893
  10.7818911  24.7440509   0.5529558  17.8238323  18.2729073   8.1974874
  17.3169188  17.5658213   8.1296051  18.6205757  17.9422262   8.3275950
  17.8665562  18.1202225   8.2073869  13.7402339  24.7795686   4.0948537
  13.5116032  24.8028387   3.2526896  14.0000415  23.9553153   4.2143548
  13.7448527  24.6611766   3.9873735   8.0221567  26.6330159  13.6973638
   7.5100470  26.0251342  14.0558669   7.8501063  27.3486751  14.1647613
   7.9211204  26.6493458  13.8189861   2.8687282  25.0767734  16.3475999
   2.6989872  25.7369109  15.8024206   2.4253232  25.2874295  17.0688488
   2.7786615  25.2053716  16.3737629   6.7947101  23.3172232   5.3902733
   7.2704468  23.6789312   4.7552914   6.2935701  23.9728700   5.6702876
   6.7912460  23.4666421   5.3379474  11.8990638  24.5554403  16.1375893
  12.4562068  24.3268213  15.5054359  11.5751703  25.3160069  15.8611105
  11.9337048  24.6338240  16.0032390   9.6173755  27.6422057  17.1027900
  10.3685082  27.9573734  17.4167454   9.8096331  27.4401228  16.2761822
   9.7565169  27.6589439  17.0271296  16.4659045  23.7695623   4.3451696
  16.4653271  23.6144280   5.2035972  16.2615225  24.6158610   4.2893081
  16.4358823  23.8716244   4.4639635  14.1899897  28.4493125   7.9987903
  14.6853562  27.7316120   7.9591923  13.3799673  28.1463923   7.8842389
  14.1443790  28.2990771   7.9761628  16.2551716  31.1996812  10.6865031
  16.6806787  30.6771234  10.1335456  15.8908636  31.7977650  10.1653654
  16.2638318  31.2107039  10.5274041  12.8430315  34.9131077   7.0166189
  13.3141493  35.6271339   7.1856174  13.1790494  34.3129827   7.5526058
  12.9625430  34.9302541   7.1198565  14.9307300  36.5232390  19.1958261
  15.0404265  35.7340951  19.5515008  15.2598196  36.4338326  18.3932599
  14.9959706  36.3938243  19.1300652   9.7599810  19.6858547  13.9724284
   9.8927716  18.8889541  14.3005259  10.1444963  20.2124950  14.5522559
   9.8356139  19.6458464  14.1067786  13.4804262  34.7049011  13.7793881
  12.9325208  34.0806894  13.5113947  13.9417290  34.8943283  13.0637961
  13.4671471  34.6408061  13.6344313  12.8332165  16.6088873  10.5705377
  12.0278129  16.4986603  10.8873215  12.7038901  16.7101329   9.7135243
  12.6952298  16.6072543  10.4913417  16.2898126  22.7734365  11.1645074
  15.7061115  23.2743572  10.7522641  16.6102420  22.2663921  10.5309397
  16.2511301  22.7726200  11.0103581   7.4188257  19.6817722  12.2202177
   7.9632670  19.3408849  12.8106519   7.4725193  20.5403184  12.3623462
   7.5077376  19.7572982  12.3284051  13.0462588  35.7100083  10.3103223
  13.8660962  35.5663049  10.5719518  12.7656666  36.3346282  10.8519660
  13.1259331  35.7810435  10.4291162  14.1756951  40.1927713   8.5835675
  13.5561982  39.6020361   8.4145690  14.0740814  40.7839149   7.9499998
  14.0694626  40.1931796   8.4640664  19.4451710  37.3019652   6.9989413
  19.1155040  37.7530795   6.3293111  18.7696712  37.2235815   7.5462419
  19.2962146  37.3570787   6.9812636  28.6250403  36.5769162   9.1103622
  29.2676311  36.6467267   9.6965537  28.8773423  35.9098385   8.6083164
  28.7572535  36.4895511   9.1230901  16.3967615  39.7869726  13.7228196
  15.7039412  39.3166705  13.9688927  17.0127942  39.5608030  14.2969903
  16.3852145  39.6836858  13.8437349  21.4208636  41.5938795  12.0667755
  21.0323068  41.1693013  11.4119947  20.7563334  41.8420945  12.5744782
  21.2655564  41.5677516  12.0455623  25.2434997  35.2913424   9.5791740
  25.6245509  34.6091595   9.9659614  24.4398282  35.0023026   9.3967404
  25.1811459  35.1480472   9.6095796  19.2026838  37.7967622  19.4454348
  18.8880279  38.5667185  19.1823911  18.8816770  37.2337878  18.8606575
  19.1085757  37.8277891  19.3195698  16.7558735  36.1858143   5.0600544
  15.8881160  36.2580743   5.1258154  17.0433939  36.9880222   5.2488520
  16.6698483  36.3152291   5.0975311  25.8791623  36.3336003  13.3911866
  26.6245215  36.1445813  12.9775292  25.4628928  36.8594241  12.8325723
  25.9276598  36.3838148  13.2476439  18.8343343  40.3964873  18.1839563
  18.0243119  40.7022653  18.0729405  19.3118030  41.1170455  18.2992147
  18.7846822  40.5479474  18.1846634  25.4773266  39.8633150   9.3281510
  24.6384367  39.8894429   9.0919774  25.5477633  40.5103885   9.9086857
  25.3641659  39.9629276   9.3790627  18.6871100  38.0253812  13.1140007
  18.4954297  38.0408946  13.9639430  19.5369696  38.2217486  13.0906662
  18.7846822  38.0568163  13.2363302  21.5975327  38.2209321  13.3211830
  22.0547942  38.9533296  13.4484622  21.6731656  37.7975787  14.0799086
  21.6766297  38.2666559  13.4512906  13.8408319  38.4675141  14.4101274
  13.3050508  37.8555499  14.7262041  13.9026083  39.0423277  15.0634940
  13.7703951  38.4622069  14.5536700  26.0702653  31.3999196   7.1905673
  26.1886221  31.8575660   6.4572976  25.8964829  30.5944458   6.9041891
  26.0621824  31.3492969   7.0406607  19.4757705  40.2111425  10.1653654
  18.6853780  40.0302885  10.4870990  19.8718328  39.4338378  10.1483948
  19.4174582  40.0698886  10.2106202  21.9895536  42.6871684  14.6477153
  21.9254677  43.5481641  14.5197290  22.1292723  42.3703678  13.8472704
  22.0011006  42.7671851  14.5105366  23.6465489  40.1450063  13.1436992
  23.8607458  39.5060977  12.5900346  23.0299388  40.5895887  12.7144854
  23.5870818  40.1160207  12.9987423  25.8104577  41.7539128  14.0820299
  24.9981258  41.4465019  14.1633472  26.2694511  41.2738129  14.6463011
  25.7584961  41.6375621  14.1774893  23.0380217  33.2549999   8.1324335
  22.1673775  33.2288720   8.0857644  23.2920558  33.0827191   7.3150181
  22.9473777  33.2260143   8.0044472  22.9058084  43.1599200  18.8649001
  23.3757715  43.7841316  19.2516876  22.9519964  42.4916175  19.4242216
  22.9825960  43.1533880  19.0049073  20.0629358  35.2656227   9.5897805
  19.5467846  34.5736419   9.7149384  19.5023287  35.9327004   9.5360404
  19.9035871  35.2619485   9.6003871  22.1321591  35.8049187  11.4190658
  21.7453344  35.8298219  12.2004188  21.6454528  35.2390866  10.9665174
  22.0034100  35.7244938  11.4678561  21.7978733  32.6916173  13.7100918
  22.4271851  33.2276473  13.4321988  21.9664596  32.5993532  14.5614483
  21.9156527  32.7577535  13.7949446  21.5992648  37.4787368  15.9827329
  22.4266077  37.2072516  16.0385944  21.6200494  38.2748209  16.3391147
  21.7245498  37.5567122  16.0442512  25.2902651  35.2252061   6.6786220
  25.4952245  35.1574369   7.5243217  24.9629075  36.0310883   6.6107397
  25.2717899  35.3338002   6.7945875  16.4631568  38.1796990  11.2557240
  16.9233050  38.2535920  11.9932364  16.5087675  38.9778244  10.9057062
  16.5382124  38.3091137  11.3129997  18.1114918  38.8463685  15.8229268
  17.7200483  38.1997032  16.2585045  18.2800781  39.4375121  16.4423523
  18.0785828  38.8377953  15.9791974  21.8048015  36.0339460   7.3963353
  20.9584061  36.2062268   7.2704703  21.8019148  35.2288804   7.7329181
  21.6795165  35.9400489   7.4274480  22.8746316  39.8114674   8.2625411
  22.4006270  39.2856436   8.7730722  23.2464452  39.2644147   7.6940272
  22.8596205  39.6530671   8.2540558  16.6121132  40.6328630  10.2919375
  15.9874202  40.6447022   9.6845328  16.2766727  41.1088805  10.9410615
  16.4706624  40.7047147  10.2975943  23.8232180  34.4083013  13.0645033
  23.3272742  34.6046688  12.3736600  24.5801242  34.8075682  12.8933834
  23.8619005  34.4960747  12.9365170  21.0935060  38.0825359   9.6548343
  21.1177547  37.5485472   8.9661123  21.3446534  37.5742668  10.3173934
  21.1344979  37.9286263   9.6512988  17.3736382  36.8096178   9.0354088
  17.4134754  37.3105384   9.7488795  16.5486047  36.9006571   8.7660011
  17.2575908  36.8977994   9.1004626  16.6034529  36.8165580  16.9684397
  17.2287232  36.2727713  17.2413830  16.1485009  36.3360498  16.3992188
  16.6282789  36.6655062  16.9245991  24.1725150  37.7865559  11.5279602
  24.5980221  37.3338086  10.9163129  23.5582143  37.2325630  11.8044390
  24.1453795  37.6379536  11.4784628  22.6119372  34.2580659   4.9370179
  21.9687690  34.1078305   5.5055318  22.2718779  34.0123004   4.1719284
  22.4664450  34.1992782   4.9073194  25.3630112  41.9331338  11.2175403
  25.3428040  41.7514633  12.0710182  25.4109313  42.8043357  11.1934987
  25.3664753  42.0347876  11.3398698  28.7970906  33.7914381   8.1974874
  28.2901771  33.0843521   8.1296051  29.5938340  33.4607570   8.3275950
  28.8398146  33.6387533   8.2073869  22.8723221  40.0739711  16.1375893
  23.4294651  39.8453521  15.5054359  22.5484286  40.8345377  15.8611105
  22.9069631  40.1523548  16.0032390  20.7332394  35.2043855  13.9724284
  20.8660299  34.4074849  14.3005259  21.1177547  35.7310258  14.5522559
  20.8088723  35.1643772  14.1067786  23.8064749  32.1274181  10.5705377
  23.0010713  32.0171911  10.8873215  23.6771484  32.2286637   9.7135243
  23.6684882  32.1257851  10.4913417  27.2630710  38.2919673  11.1645074
  26.6793698  38.7928880  10.7522641  27.5835004  37.7849229  10.5309397
  27.2243885  38.2911508  11.0103581  18.3920841  35.2003030  12.2202177
  18.9365254  34.8594157  12.8106519  18.4457776  36.0588492  12.3623462
  18.4809960  35.2758290  12.3284051  12.0000234  12.9956491   5.1257391
  12.7840650  13.1087338   5.4913133  11.7996828  12.1697628   5.3216077
  12.0866259  12.8903210   5.2091777  15.0911567  10.8809229   7.1381651
  15.9046432  10.6094378   7.2986783  14.9306533  10.5816769   6.3341846
  15.1881515  10.7964155   7.0427056  14.6258124  13.4610521   6.1298308
  14.7355089  12.6719082   6.4855055  14.9549020  13.3716457   5.3272646
  14.6910530  13.3316374   6.0640698  25.7220464  25.6605243   4.5699532
  26.4287231  25.1657274   4.6986467  25.9108399  26.1014324   3.8402190
  25.8548369  25.6523593   4.4808578  18.6235249  23.8519843  -2.9593198
  19.2684251  23.3592286  -3.2782250  18.8637026  23.9944630  -2.1327120
  18.7545834  23.7997285  -2.8843665  22.8612758  29.0832779   2.4613608
  22.9496104  28.8958920   3.3091818  23.2902471  28.4370209   2.0618454
  22.9374860  28.9595787   2.5285359  20.4283218  28.3663939   1.4431270
  19.8654053  27.9536549   1.9670931  21.1904241  28.2916845   1.8624413
  20.4577666  28.2941340   1.5824270  17.0358116  20.5937548   3.1748315
  17.2078619  20.4843442   4.0233596  17.5727473  21.2391953   2.9379507
  17.1403120  20.6729549   3.2653412  15.9382688  26.9669188  -2.1433187
  16.4780913  26.8240319  -1.4729814  15.2552634  27.3665939  -1.7749160
  15.9174842  27.0048859  -1.9898765  22.9732817  28.5141799   5.1257391
  23.7573234  28.6272646   5.4913133  22.7729412  27.6882936   5.3216077
  23.0598843  28.4088518   5.2091777  14.8158998  20.6913261   1.7995088
  15.5398970  20.6766292   2.2859983  14.9175135  21.4008616   1.3017056
  14.9377207  20.7937964   1.7973875  22.1903947  24.1712345   6.6644035
  21.3976928  24.4855857   6.8496655  22.3052875  24.3863814   5.8264820
  22.0899358  24.2496182   6.5682370  23.1187740  24.0732549   1.6029332
  23.6926602  23.4359793   1.7577896  23.0402544  24.0736632   0.7338989
  23.1920975  23.9797661   1.4975743  21.1159460  18.5316926  -0.9992198
  20.7273892  18.1071144  -1.6540007  20.4514158  18.7799076  -0.4915171
  20.9606387  18.5055647  -1.0204330  28.4407888  25.4441527   1.6114185
  28.2046525  24.6129592   1.4926246  29.0851117  25.3927134   2.1969029
  28.5002559  25.3139215   1.6800078  18.8977662  14.7345753   6.3794395
  18.5831103  15.5045316   6.1163958  18.5767594  14.1716009   5.7946622
  18.8036581  14.7656022   6.2535745  25.5742447  13.2714134   0.3251913
  26.3196039  13.0823944  -0.0884662  25.1579752  13.7972372  -0.2334231
  25.6227422  13.3216279   0.1816486  19.6027109  24.4761960  -0.1782689
  19.1038803  25.1877727  -0.0997800  20.4127333  24.7962626  -0.2164526
  19.6483216  24.6288808  -0.1726120  18.5294167  17.3343004   5.1179610
  17.7193943  17.6400784   5.0069452  19.0068854  18.0548586   5.2332194
  18.4797646  17.4857605   5.1186681  14.8638199  22.8705554  -0.0120988
  15.3759296  23.1489808  -0.6612228  14.5774542  23.6094849   0.3541825
  14.8973062  23.0207908  -0.0531110  25.1533564  22.3369749   2.2117521
  25.1481602  21.4649566   2.2159948  25.8594558  22.5357919   1.7386977
  25.2578568  22.2373624   2.1424557  18.8804457  22.0646733   1.5831341
  19.0247833  22.6447942   0.9474451  19.2280106  22.4423030   2.2881196
  18.9531918  22.2067437   1.5930336  21.0524374  21.2636902  -0.6343527
  20.3047688  21.4567916  -1.0395249  21.2065900  20.4382121  -0.8719406
  20.9646802  21.1702013  -0.7298121  21.2926151  15.1587452   0.2551877
  21.7498765  15.8911427   0.3824669  21.3682480  14.7353918   1.0139133
  21.3717121  15.2044691   0.3852953  21.6846360  19.6249816   1.5817200
  21.6205501  20.4859772   1.4537336  21.8243547  19.3081809   0.7812751
  21.6961830  19.7049982   1.4445413  26.0644150  26.3994537   7.1381651
  26.8779016  26.1279686   7.2986783  25.9039117  26.1002077   6.3341846
  26.1614099  26.3149463   7.0427056  23.3416312  17.0828194   0.0777039
  23.5558282  16.4439109  -0.4759607  22.7250212  17.5274018  -0.3515099
  23.2821642  17.0538338  -0.0672530  25.5055400  18.6917260   1.0160346
  24.6932082  18.3843150   1.0973519  25.9645335  18.2116260   1.5803058
  25.4535785  18.5753752   1.1114940  22.6008908  20.0977331   5.7989048
  23.0708539  20.7219447   6.1856922  22.6470788  19.4294307   6.3582263
  22.6776784  20.0912011   5.9389120  26.0765394  27.4600827   2.4104491
  26.7145115  26.9661023   2.0766947  25.4339486  27.3878228   1.8256718
  26.0759621  27.3759836   2.2746846  21.2943472  14.4165499   2.9167376
  22.1216901  14.1450648   2.9725991  21.3151318  15.2126340   3.2731194
  21.4196322  14.4945253   2.9782559  17.7447977  26.7060481   0.0607332
  17.6368332  26.7162544   0.9269390  17.9543759  27.5315262  -0.1287714
  17.7598088  26.8301556   0.1611424  15.7621769  23.9573124  -2.4770730
  15.1709703  24.5982622  -2.5067715  16.5242793  24.3810741  -2.5039431
  15.7870030  24.1148962  -2.4855583  17.8065742  15.7841816   2.7569314
  17.4151307  15.1375164   3.1925092  17.9751605  16.3753252   3.3763570
  17.7736652  15.7756084   2.9132020  27.4385088  22.9746588   0.4906542
  28.1619286  22.5219114   0.3117562  27.1735050  23.2551253  -0.2921130
  27.5066361  22.9497556   0.3485258  13.0197631  25.6307221  -1.3336814
  12.4897556  24.9399660  -1.2841839  13.2922725  25.6217407  -2.1624105
  12.9822354  25.5274353  -1.4489398  23.2203877  23.0730466  -1.3598442
  22.6060870  22.5288516  -1.0649807  23.7371162  22.5594702  -1.8392626
  23.2059539  22.9166875  -1.3874214  15.5762701  19.1799909  -0.5565710
  15.7356188  18.4243233  -0.1513988  15.3955595  19.7290849   0.0975028
  15.5728060  19.1493723  -0.4003004  19.2516819  23.3135049   4.0714429
  18.4012450  23.4506763   4.2072074  19.4144947  22.5798827   4.5162131
  19.1500683  23.2249150   4.1570028  18.4901570  20.2634819  -1.7331966
  17.6593499  20.4308637  -1.9396718  18.4353087  19.8870769  -0.9483081
  18.3590984  20.2324550  -1.6483438  16.2985353  13.7543711   3.9024444
  16.9238056  13.2105844   4.1753876  15.8435833  13.2738629   3.3332235
  16.3233613  13.6033193   3.8586038  25.0580936  18.8709469  -1.8484550
  25.0378863  18.6892765  -0.9949771  25.1060137  19.7421488  -1.8724966
  25.0615577  18.9726008  -1.7261255  23.0027266  25.4596661   4.0763927
  22.9623121  24.8146338   3.4909083  23.8150584  25.4033279   4.3889339
  23.1170420  25.3555628   4.0360876  18.6904975  19.0893598   0.6313684
  18.1783878  18.4814781   0.9898716  18.5184471  19.8050190   1.0987660
  18.5894612  19.1056897   0.7529908  13.5370689  17.5331173   3.2816046
  13.3673280  18.1932548   2.7364253  13.0936639  17.7437734   4.0028535
  13.4470023  17.6617155   3.3077676  22.5674045  17.0117843   3.0715940
  23.1245475  16.7831652   2.4394405  22.2435110  17.7723508   2.7951152
  22.6020455  17.0901679   2.9372437  20.2857162  20.0985496   4.0367947
  21.0368489  20.4137173   4.3507501  20.4779739  19.8964667   3.2101869
  20.4248576  20.1152878   3.9611343  25.5990707  28.9795829   6.1298308
  25.7087673  28.1904390   6.4855055  25.9281604  28.8901765   5.3272646
  25.6643113  28.8501682   6.0640698  26.9581533  15.2297804  -1.9014879
  26.3744522  15.7307011  -2.3137312  27.2785828  14.7227361  -2.5350556
  26.9194709  15.2289639  -2.0556372  29.8710245  30.2531061   6.3794395
  29.5563686  31.0230624   6.1163958  29.5500178  29.6901317   5.7946622
  29.7769164  30.2841330   6.2535745  27.2717936  29.2729019   3.9024444
  27.8970640  28.7291152   4.1753876  26.8168416  28.7923937   3.3332235
  27.2966197  29.1218501   3.8586038
  42.5676045  42.5676045  42.5676045 109.4712190 109.4712190 109.4712190
