ACE
  8962
  27.7559214  20.0001618  14.0733379  27.1304702  20.7464811  14.5631522
  26.1560429  20.7810420  14.0759197  27.6068741  21.7242282  14.4913969
  26.9262009  20.4094629  16.0415273  27.4396654  19.4048987  16.5290156
  26.1737148  21.2553087  16.7490119  25.7727795  22.0682706  16.3035423
  25.9056602  21.0471019  18.1576988  25.3948708  20.0938708  18.2938749
  27.1989805  21.0267056  18.9654927  27.8377356  20.2184853  18.6093030
  27.7173491  21.9781413  18.8464791  26.8776445  20.8080532  20.4246139
  27.9105014  20.7515612  21.3680204  28.9466131  20.8654125  21.0492573
  27.6125729  20.5488359  22.7208471  28.4167265  20.5048540  23.4553568
  26.2817888  20.4026027  23.1302709  25.9923734  20.2056708  24.4444461
  26.7739209  20.1840597  25.0015064  25.2489295  20.4590952  22.1868672
  24.2128180  20.3452429  22.5056320  25.5468527  20.6618198  20.8340393
  24.7426977  20.7058044  20.0995326  25.0250452  22.1550893  18.7174891
  24.6376958  23.0697353  17.9937326  24.7089960  22.0710820  20.0118155
  25.0517393  21.2996108  20.5663049  23.8775460  23.0632059  20.6629553
  24.3539484  24.0409538  20.5911978  22.5023322  23.1419883  20.0085818
  22.0090667  22.1726550  20.0805691  21.8998034  23.8943720  20.5174807
  22.6137880  23.4153271  18.9593140  23.6743465  22.7279510  22.1336008
  24.1878139  21.7233878  22.6210885  22.9218593  23.5737961  22.8410851
  22.5209222  24.3867568  22.3956150  22.6538061  23.3655902  24.2497724
  22.1430186  22.4123583  24.3859498  23.5938463  23.3555499  24.8014272
  21.7727910  24.4815810  24.7927825  21.3927628  25.3900542  24.0574621
  21.4481459  24.4113737  26.0858029  21.7850745  23.6445065  26.6501547
  20.6153701  25.4122797  26.7216283  21.0950427  26.3879170  26.6432366
  19.2446452  25.4884092  26.0575936  19.3636647  25.7509576  25.0064029
  18.7481328  24.5212358  26.1360220  18.3026506  26.5071586  26.6533262
  17.0162218  26.6647722  26.1239325  16.6946251  26.0520981  25.2817294
  16.1428497  27.6093089  26.6762663  15.1412716  27.7320218  26.2640971
  16.5559049  28.3962324  27.7579946  15.8759228  29.1316212  28.1880265
  17.8423339  28.2386213  28.2873907  18.1639271  28.8512967  29.1295943
  18.7157085  27.2940850  27.7350595  19.7172848  27.1713733  28.1472327
  20.4017086  25.0922783  28.1941879  20.9091180  24.0911823  28.6949702
  19.6471081  25.9472525  28.8883219  19.2514023  26.7568580  28.4321912
  19.3693609  25.7538583  30.2972426  19.8611237  24.8448489  30.6436122
  19.7442786  26.6071168  30.8624746  18.2934500  25.6639205  30.4469985
  13.7473952  15.3911953  40.7153234  13.4125320  16.0688874  40.2797456
  14.2600822  15.0017264  40.1270105  13.7739533  15.4336531  40.5640025
  13.9206003  12.5289665  39.5606180  14.3357151  12.1974689  38.8690676
  13.0897932  12.2958567  39.4326317  13.8594011  12.4460921  39.4397028
  16.6139393   8.7800224  38.7467382  16.5319555   8.8502411  39.6122369
  17.2519113   9.3429968  38.5551122  16.6959230   8.8739195  38.8457331
  19.8089956  11.4356776  41.2803018  19.4296765  10.6493914  41.2732307
  19.1456202  11.9843633  41.1374662  19.6548431  11.4001600  41.2583815
  15.1555525  12.0182479  37.0991793  15.9228510  12.0782604  36.6897645
  14.7086834  11.4462920  36.6148112  15.2028952  11.9419054  36.9669504
  18.0550055  13.6802267  41.6154704  18.1369893  14.4869253  41.2916154
  18.5399797  13.6998226  42.3395477  18.1387213  13.8022929  41.6741602
  15.8102677  16.3158776  42.1090308  15.0931986  16.1419639  41.6437546
  16.4609414  16.0811349  41.5765794  15.8004527  16.2554569  41.9619526
  22.1922975  11.2862587  42.6747164  22.5756581  12.0353943  42.9045261
  21.3967089  11.5328407  42.4159153  22.1316758  11.4332281  42.6704737
  31.6840751  21.8633522  44.7677525  31.6534755  22.7178159  44.9395794
  32.2822100  21.5628815  45.3263668  31.7677909  21.9450019  44.8752327
  24.8840436  20.9509173  49.5230455  24.0278331  21.1117671  49.5739572
  24.9308089  20.0801237  49.5435516  24.7639547  20.8459975  49.5336521
  19.2681575  30.4871891  45.2867687  18.5164475  30.1087429  45.0583732
  19.7167587  30.5190325  44.5386497  19.2231242  30.4357498  45.1425189
  24.7206535  30.9097261  40.7153234  24.3857904  31.5874182  40.2797456
  25.2333406  30.5202572  40.1270105  24.7472116  30.9521839  40.5640025
  20.8466332  30.4990283  47.5530459  20.9476695  29.6890637  47.8627587
  20.2508077  30.4047230  46.9230138  20.7738870  30.3655311  47.5056698
  29.5057325  24.4385824  43.0395834  29.3896851  25.1893510  43.4687973
  30.3013212  24.1809777  43.2891921  29.6061915  24.5120671  43.1399926
  14.0431376  26.5210570  47.1782793  13.8081560  25.6878222  47.0715062
  14.1817017  26.8015235  46.3643994  14.0287038  26.4394073  47.0425148
  21.3887651  28.4279847  44.3265177  21.7103492  28.9685054  43.7226485
  22.0359747  27.8576619  44.4587467  21.5313706  28.4239022  44.2572212
  23.4389359  20.4295842  44.4099564  24.1369524  20.6083970  44.9021027
  23.7541692  19.9066181  43.7869953  23.5884696  20.3789614  44.3901574
  23.6277294  26.8166287  44.3979355  24.0670930  26.2083388  44.8434128
  23.4781957  26.4373660  43.6264820  23.6698760  26.6704758  44.3498522
  27.2286631  25.1693468  41.3510124  27.1437926  26.0254435  41.4959693
  27.7171014  24.8937793  42.0192283  27.2875528  25.2550790  41.4712206
  28.1605064  21.7878263  42.8507859  27.6316536  22.0037896  43.5105166
  28.6830084  22.4814401  42.7708829  28.1593517  21.9221400  42.9363459
  20.0504672  25.6841479  41.6515327  19.4661887  26.1891511  42.0581191
  19.6474767  25.4583866  40.9111919  19.9043976  25.7249728  41.6020353
  15.6048701  31.3996241  48.4538999  15.1216279  32.1246730  48.4298582
  16.4172019  31.6972371  48.5649157  15.6539448  31.5498594  48.4666278
  24.5081886  21.9307131  40.1284248  24.7477890  22.1385115  39.3159591
  24.8297727  21.1264640  40.2373192  24.5919044  21.8421233  40.0244801
  18.1729241  16.2670846  40.6721899  17.9904815  16.4842727  39.8462892
  19.0354854  16.3809859  40.7280513  18.2733831  16.3160744  40.5576386
  17.7843673  28.1058768  48.1144887  18.6232573  28.3381701  48.1618648
  17.8155442  27.2363080  48.0451922  17.9125391  28.0115715  48.1109531
  23.8528961  13.2697257  43.7070923  24.5815121  13.0913212  43.2609079
  23.9423853  14.1115337  43.9178101  23.9735623  13.3681135  43.6724440
  27.8337261  24.2050644  47.6103217  28.5894776  24.6382159  47.6492125
  27.9399586  23.5555414  48.1837853  27.9607432  24.1728128  47.7001242
  17.7191268  19.5445019  39.1844372  17.0049445  19.2583198  39.5966804
  18.2035237  19.8841645  39.8250759  17.6850632  19.5526668  39.3400007
  24.8938586  28.0474973  39.5606180  25.3089735  27.7159997  38.8690676
  24.0630516  27.8143875  39.4326317  24.8326595  27.9646229  39.4397028
  32.1217066  24.6071890  44.8306849  32.4525283  25.1399530  44.2246944
  32.6950154  24.6610777  45.4868800  32.2550745  24.6941459  44.8384631
  27.3348955  22.4536792  45.5130430  27.4295809  23.1926087  45.9670055
  26.7107799  22.0254268  45.9464994  27.2557985  22.4998113  45.6438577
  27.5871976  24.2985532  38.7467382  27.5052139  24.3687719  39.6122369
  28.2251697  24.8615276  38.5551122  27.6691814  24.3924503  38.8457331
  20.9465148  24.0646270  48.2141908  20.6884392  23.2318005  48.1873207
  21.0013630  24.2903883  47.3734408  20.9164925  23.9744041  48.0862045
  33.2296417  19.8482387  46.3347011  32.9732982  19.0362328  46.1444894
  34.0725731  19.8559954  46.1077198  33.3162443  19.7294384  46.2731828
  24.6912087  24.3205986  41.7575988  25.5052725  24.6120879  41.6458759
  24.6271228  23.6665849  41.1834281  24.8014826  24.2671181  41.6564825
  20.5619995  27.7927504  46.8848300  21.1993942  27.5539251  47.4300093
  20.9875066  27.9964663  46.1501461  20.7196161  27.7878514  46.8565457
  21.2022810  23.0129794  41.2223189  21.5867963  22.7937500  41.9739735
  20.9534430  23.8392739  41.3524266  21.2224882  23.1027940  41.3524266
  16.7047224  28.6157789  45.5936530  15.8785341  28.8619527  45.4670809
  16.7659215  28.5369870  46.4598588  16.5921390  28.6402738  45.7025474
  21.4846053  31.2334670  43.2955560  21.7744351  30.8423651  42.5714786
  22.2149533  31.4151375  43.7360835  21.6352937  31.2028483  43.2538367
  18.3368915  25.2975369  48.6271411  18.0482164  24.6712840  49.1617138
  19.2052263  25.2395656  48.6936092  18.4229167  25.1962913  48.7162366
  29.1246813  20.4410152  48.9453393  28.7811579  19.7200487  49.2960643
  29.2239856  20.2324003  48.1031751  29.0888856  20.3034355  48.8725073
  18.5401189  26.9370620  44.5513776  19.2947157  27.3183659  44.7649239
  17.9471801  27.3881763  45.0060473  18.5637902  27.0599447  44.6496655
  29.5859842  26.9035856  44.4877381  30.1517875  27.5629066  44.4035924
  28.9387746  27.2485554  44.9593783  29.5738599  27.0517797  44.5450138
  16.8490599  18.1584990  43.9948846  16.5615395  17.7886260  43.2580794
  17.5361068  18.6279845  43.7332551  16.9079497  18.1731959  43.8463922
  26.0566420  29.8474640  43.9114460  25.8153096  29.1142501  43.5041525
  26.2367753  30.3961497  43.2580794  26.0474044  29.8197031  43.7544683
  21.2865741  25.1383200  45.3235383  21.0908524  25.7457935  44.7295686
  21.5100086  24.4451144  44.8427057  21.2900382  25.1260725  45.1651463
  19.6844271  22.0237938  45.4416251  20.4066923  22.1879096  44.9820057
  19.2052264  22.7447603  45.3355591  19.7208002  22.1536167  45.3581865
  26.0907057  15.2587114  45.5540552  26.7933410  15.0594862  45.0760510
  25.8251246  14.4863056  45.8609395  26.1553689  15.1150080  45.5285993
  14.4218794  18.9366202  44.8434127  14.5234930  19.7392364  45.1715103
  15.2174681  18.7353538  44.5457208  14.5546700  19.0252101  44.8469483
  25.3921118  20.8880471  46.7299737  25.1455833  20.8076221  47.5636526
  25.7206241  20.1033938  46.5362265  25.4042362  20.7606736  46.8247260
  30.7822540  26.9542084  41.2803018  30.4029349  26.1679222  41.2732307
  30.1188785  27.5028941  41.1374662  30.6281015  26.9186908  41.2583815
  23.6069448  30.5055603  45.1191844  24.3719339  30.2365246  44.7974508
  23.5047538  30.0205613  45.8361907  23.7050944  30.3945167  45.1771671
  26.1288109  27.5367787  37.0991793  26.8961094  27.5967911  36.6897645
  25.6819418  26.9648228  36.6148112  26.1761536  27.4604362  36.9669504
  29.0282639  29.1987575  41.6154704  29.1102476  30.0054561  41.2916154
  29.5132381  29.2183534  42.3395477  29.1119797  29.3208237  41.6741602
  22.8379142  23.8772411  50.2824781  22.4141391  24.0776910  49.5463800
  22.6623997  23.0301259  50.3949081  22.7490023  23.7821192  50.1898472
  18.1261587  24.3724462  45.7152754  18.2826206  24.3071265  46.5708746
  18.4662180  25.1473015  45.5031434  18.1994822  24.4773660  45.8107348
  24.6640732  23.7482346  44.5846117  25.2056277  23.2452727  45.0484738
  24.9787291  23.6947540  43.7735602  24.7905129  23.6661767  44.5329929
  22.8327181  29.1399697  41.8686145  22.9020002  28.2814236  42.0079146
  23.6115637  29.3571578  41.5405170  22.9580032  29.0452561  41.8403303
  14.6995849  21.5559413  46.0313521  15.0794813  21.9743957  45.3673788
  14.1251213  22.1372868  46.3382364  14.6707173  21.7037271  45.9790262
  22.1762709  23.8086553  38.5628903  22.4655234  24.5851435  38.8372478
  22.2634508  23.2975284  39.2643403  22.2316965  23.8478471  38.7071401
  21.2109412  18.3601736  44.4771315  21.4869146  17.6420649  44.0648882
  21.8108081  18.9586656  44.2692421  21.3402677  18.3422107  44.3852076
  30.7100852  14.2752413  47.6520411  30.0975165  14.7622815  48.0374142
  30.8065027  13.5995903  48.1958062  30.6338749  14.2470721  47.7899269
  24.7119933  16.0315254  42.7517910  25.1663679  16.2025814  43.4765754
  25.1859978  15.4183364  42.3515686  24.8488253  15.9666139  42.7991672
  22.0532953  22.7357788  43.8562917  22.7974998  23.1232064  44.0945867
  22.1993649  21.8915213  44.0203405  22.1843538  22.6688261  43.9156887
  26.9694328  19.2019816  42.8182590  26.4417347  19.2848560  42.1288299
  27.4290036  19.9437687  42.8147235  26.9596179  19.3240478  42.7157285
  18.9627393  17.4722336  37.8423485  18.6140198  18.1242061  38.3055035
  18.4823839  17.4579449  37.1147357  18.8397637  17.5665389  37.8034577
  26.5231411  27.7723379  41.9492247  27.2465610  28.2381492  41.8056821
  26.0832002  27.8396989  41.1989844  26.5647103  27.8507216  41.8177029
  19.3351302  20.0980866  43.3549530  19.4754263  20.5953330  44.0578171
  19.8333835  19.3967160  43.4963744  19.4292383  20.0682845  43.4801109
  19.3651524  20.9647977  40.6842107  19.9996604  21.5608402  40.6191569
  19.4477135  20.6651435  41.4987977  19.4708075  21.0088885  40.7945193
  20.9430507  16.8961952  40.6587549  21.2646348  16.4165035  40.0046811
  21.2057451  17.7061598  40.4678360  21.0296533  16.9451850  40.5343041
  15.8704512  23.1615818  43.9531653  16.3796742  23.7580325  44.3342958
  16.3438785  22.8941791  43.2708072  16.0147888  23.2101633  43.9086176
  26.7835260  31.8344084  42.1090308  26.0664570  31.6604947  41.6437546
  27.4341998  31.5996657  41.5765794  26.7737111  31.7739877  41.9619526
  29.3683232  20.7108673  45.8531614  28.6974421  21.2538375  45.7244679
  30.0622982  21.1803528  45.6113308  29.3712099  20.8606944  45.7987141
  29.5311359  17.1664557  48.7621987  29.8838969  16.7394279  49.4367785
  28.6726160  17.0815400  48.8923063  29.4560804  17.0909297  48.8816997
  18.2295044  19.7972076  46.8204833  17.5107033  20.2136209  47.0877697
  18.6007406  20.3626315  46.2696471  18.1786976  19.9421358  46.7787640
  24.0041618  18.8370076  42.1578213  23.4106458  19.1587073  41.6062780
  24.0416896  17.9911172  41.9499319  23.9216007  18.7594404  42.0460984
  26.8799435  18.7949581  45.5879963  26.6513128  18.8182282  44.7458321
  27.1397511  17.9707048  45.7074974  26.8845623  18.6765661  45.4805161
  33.1655559  26.8047895  42.6747164  33.5489165  27.5539251  42.9045261
  32.3699672  27.0513715  42.4159153  33.1049341  26.9517589  42.6704737
  21.9770851  19.4767327  40.2507543  22.3569815  19.4946956  39.4658657
  21.2363447  19.9221316  40.1298390  21.9239688  19.5449101  40.1171111
  29.6056141  17.7849518  45.8383121  29.6050368  17.6298175  46.6967398
  29.4012321  18.6312505  45.7824507  29.5755919  17.8870139  45.9571061
  27.3296993  22.4647020  49.4919328  27.8250658  21.7470015  49.4523348
  26.5196769  22.1617817  49.3773815  27.2840886  22.3144666  49.4693054
  22.7755605  26.3144833  41.6416333  21.9666927  25.9911507  41.5949642
  23.2830514  25.6078055  41.5744581  22.7305271  26.1626149  41.6246627
  21.9690021  15.7028855  42.9335174  22.7905716  15.8727168  42.6916869
  21.5059672  15.8576116  42.2101472  22.0221184  15.7510588  42.7906818
  16.3715912  27.4588033  50.5872411  16.9760769  27.4183867  49.9586232
  16.1643225  28.3059185  50.6176467  16.4304809  27.5776036  50.4988527
  29.1461825  31.7856154  40.6721899  28.9637398  32.0028035  39.8462892
  30.0087438  31.8995167  40.7280513  29.2466414  31.8346052  40.5576386
  28.6923852  35.0630327  39.1844372  27.9782029  34.7768506  39.5966804
  29.1767821  35.4026953  39.8250759  28.6583215  35.0711976  39.3400007
  29.9359977  32.9907643  37.8423485  29.5872781  33.6427369  38.3055035
  29.4556423  32.9764756  37.1147357  29.8130221  33.0850697  37.8034577
  31.9163091  32.4147260  40.6587549  32.2378932  31.9350343  40.0046811
  32.1790035  33.2246906  40.4678360  32.0029116  32.4637158  40.5343041
  32.9503434  34.9952635  40.2507543  33.3302399  35.0132264  39.4658657
  32.2096030  35.4406624  40.1298390  32.8972272  35.0634409  40.1171111
  18.9632399   7.4250022  32.2207733  18.2115299   7.0465561  31.9923778
  19.4118411   7.4568456  31.4726544  18.9182066   7.3735629  32.0765236
  24.4157359   7.8475392  27.6493280  24.0808728   8.5252313  27.2137503
  24.9284230   7.4580703  27.0610152  24.4422940   7.8899970  27.4980072
  23.9561651   9.7989660  33.5904392  24.3401030  10.3676559  33.0509167
  23.8920792   9.0739171  33.1110208  24.0035078   9.7765124  33.4398255
  20.5417156   7.4368414  34.4870506  20.6427519   6.6268768  34.7967634
  19.9458901   7.3425361  33.8570184  20.4689694   7.3033442  34.4396744
  20.3817895  12.3546004  35.8885362  21.0255351  12.7959168  36.2781520
  20.7074151  11.5499430  35.8015621  20.5249724  12.3011198  35.9330839
  13.7382200   3.4588701  34.1122840  13.5032384   2.6256353  34.0055108
  13.8767841   3.7393367  33.2984041  13.7237862   3.3772204  33.9765195
  21.0838475   5.3657978  31.2605224  21.4054316   5.9063186  30.6566532
  21.7310571   4.7954750  31.3927513  21.2264530   5.3617154  31.1912259
  23.3228118   3.7544418  31.3319402  23.7621754   3.1461519  31.7774175
  23.1732781   3.3751792  30.5604867  23.3649584   3.6082889  31.2838569
  23.3285853   5.1943336  38.1845120  23.6109096   4.3994742  37.9631876
  24.0572013   5.6723923  38.2050181  23.4775416   5.1477933  38.1548135
  26.9237455   2.1071600  28.2850171  26.8388750   2.9632566  28.4299740
  27.4121838   1.8315924  28.9532330  26.9826352   2.1928921  28.4052253
  33.3103941   4.3002698  35.1580951  32.4801644   4.5113342  35.3214367
  33.2613193   3.4739753  34.8823234  33.1810676   4.2092305  35.1418316
  19.7455496   2.6219611  28.5855374  19.1612711   3.1269642  28.9921238
  19.3425591   2.3961997  27.8451966  19.5994800   2.6627859  28.5360399
  15.2999525   8.3374372  35.3879046  14.8167103   9.0624861  35.3638629
  16.1122843   8.6350502  35.4989203  15.3490272   8.4876725  35.4006325
  21.3713679   7.1306552  37.9928860  20.8540620   6.7713967  37.3890168
  22.0688070   6.6068727  38.0034926  21.3979260   7.0004240  37.9059119
  18.1543722   8.8530548  35.5399326  18.8564301   8.3382537  35.5972082
  18.0741205   9.1804699  36.3446201  18.2467482   8.8244774  35.6672118
  17.4794497   5.0436900  35.0484934  18.3183397   5.2759832  35.0958695
  17.5106266   4.1741211  34.9791969  17.6076215   4.9493846  35.0449578
  27.5288085   1.1428775  34.5443263  28.2845600   1.5760290  34.5832172
  27.6350410   0.4933545  35.1177900  27.6558256   1.1106259  34.6341289
  30.5668256   4.9702053  35.2945666  30.1303488   4.9738795  36.0504638
  30.2331172   5.6507552  34.8625244  30.4530876   5.0714508  35.3426499
  25.2967723   8.9220488  40.2655272  24.4982969   8.6819988  40.5229141
  25.7453735   8.9734880  41.0122320  25.2442334   8.8942879  40.4140197
  24.5889410   4.9853104  26.4946227  25.0040559   4.6538128  25.8030723
  23.7581340   4.7522006  26.3666364  24.5277419   4.9024360  26.3737074
  29.9877433   2.7048355  33.9277292  30.2233022   2.8493554  33.1004143
  30.1366997   3.4690763  34.3208806  30.0443236   2.8387409  33.8640896
  27.2822800   1.2363663  25.6807428  27.2002963   1.3065851  26.5462415
  27.9202521   1.7993407  25.4891169  27.3642638   1.3302634  25.7797378
  20.6415971   1.0024401  35.1481955  20.3835216   0.1696136  35.1213254
  20.6964454   1.2282014  34.3074455  20.6115749   0.9122173  35.0202091
  24.3862911   1.2584118  28.6916035  25.2003549   1.5499010  28.5798806
  24.3222052   0.6043980  28.1174328  24.4965650   1.2049312  28.5904872
  20.2570819   4.7305635  33.8188347  20.8944766   4.4917383  34.3640140
  20.6825890   4.9342794  33.0841508  20.4146985   4.7256645  33.7905504
  14.9483461   6.9693972  37.7022651  14.9887606   7.2408823  36.8742430
  15.5077985   7.4935880  38.1180439  15.0366807   7.0869727  37.6414539
  20.8973634  -0.0492075  28.1563236  21.2818787  -0.2684368  28.9079781
  20.6485254   0.7770870  28.2864313  20.9175706   0.0406071  28.2864313
  31.6308821   3.7254563  39.1673905  31.3254638   4.4582619  39.5287221
  30.9115037   3.3192492  38.8866691  31.4796164   3.7736296  39.1787042
  22.6392291   5.2078058  35.4982133  22.7131299   5.0453230  36.3523983
  23.4561797   5.3968247  35.2542615  22.7708649   5.2114800  35.5880159
  16.3998047   5.5535921  32.5276577  15.5736165   5.7997658  32.4010855
  16.4610039   5.4748001  33.3938635  16.2872214   5.5780870  32.6365521
  21.1796876   8.1712801  30.2295607  21.4695175   7.7801782  29.5054833
  21.9100357   8.3529506  30.6700882  21.3303761   8.1406615  30.1878414
  19.1202792  10.1480183  33.2955756  18.9003087   9.8577538  34.0882423
  18.8997314   9.4895138  32.7673669  19.0550386  10.0079892  33.3344665
  18.0319739   2.2353500  35.5611458  17.7432988   1.6090971  36.0957185
  18.9003087   2.1773787  35.6276138  18.1179991   2.1341044  35.6502413
  21.2870748  11.5209573  32.0786449  21.9394806  10.9886015  32.3077475
  20.5896356  11.1678225  32.4654323  21.2801466  11.3899096  32.1698616
  18.2352013   3.8748751  31.4853823  18.9897981   4.2561790  31.6989286
  17.6422625   4.3259894  31.9400520  18.2588726   3.9977578  31.5836701
  29.2810666   3.8413987  31.4217428  29.8468699   4.5007197  31.3375971
  28.6338570   4.1863685  31.8933830  29.2689423   3.9895928  31.4790184
  19.5550239   5.0457312  36.8593938  19.0330993   5.1857604  37.5445803
  19.9424260   4.2867976  37.0496056  19.5353940   4.9542836  36.9895015
  25.7517244   6.7852771  30.8454507  25.5103920   6.0520632  30.4381572
  25.9318577   7.3339628  30.1920841  25.7424868   6.7575163  30.6884730
  20.9816565   2.0761331  32.2575429  20.7859347   2.6836066  31.6635732
  21.2050910   1.3829275  31.7767103  20.9851206   2.0638857  32.0991510
  19.3795095  -1.0383931  32.3756298  20.1017747  -0.8742773  31.9160104
  18.9003088  -0.3174266  32.2695638  19.4158826  -0.9085701  32.2921912
  28.9819991   4.5341961  37.4526565  28.8434350   5.2323007  37.9575308
  28.2019989   4.3790618  37.0962747  28.8463218   4.6142128  37.4752839
  20.1196725   8.7518092  39.9423794  20.2686288   8.1921008  39.2897198
  20.8996727   8.8310094  40.3256313  20.2570818   8.6803658  39.9020743
  30.4773364   3.8920215  28.2143064  30.0980173   3.1057353  28.2072354
  29.8139609   4.4407072  28.0714709  30.3231839   3.8565039  28.1923861
  22.6450025   8.9232735  41.2208285  22.5693696   8.2541546  41.7759073
  22.5739884   9.6250523  41.7348951  22.6230632   8.9277642  41.3785133
  23.3020272   7.4433734  32.0531891  24.0670163   7.1743378  31.7314555
  23.1998362   6.9583744  32.7701954  23.4001768   7.3323299  32.1111718
  25.8238933   4.4745918  24.0331840  26.5911918   4.5346043  23.6237692
  25.3770242   3.9026359  23.5488159  25.8712360   4.3982493  23.9009550
  26.7216728   3.2800574  36.3184572  26.0461730   3.0485806  36.8197959
  26.7309104   2.6721756  35.6926677  26.6235233   3.1559499  36.3000725
  28.7233463   6.1365706  28.5494750  28.8053300   6.9432692  28.2256201
  29.2083205   6.1561665  29.2735524  28.8070621   6.2586368  28.6081649
  22.5329966   0.8150542  37.2164828  22.1092215   1.0155041  36.4803847
  22.3574821  -0.0320610  37.3289128  22.4440847   0.7199323  37.1238518
  22.0341660  12.3301055  39.6786286  22.5237590  11.6311844  39.4961950
  21.4625892  12.0324925  40.2662343  22.0226189  12.1827278  39.7387326
  17.8212411   1.3102593  32.6492801  17.9777030   1.2449396  33.5048793
  18.1613004   2.0851146  32.4371480  17.8945646   1.4151791  32.7447395
  24.3591556   0.6860477  31.5186164  24.9007101   0.1830858  31.9824785
  24.6738115   0.6325672  30.7075649  24.4855953   0.6039898  31.4669976
  22.5278005   6.0777828  28.8026192  22.5970826   5.2192367  28.9419192
  23.3066461   6.2949709  28.4745217  22.6530855   5.9830692  28.7743349
  26.9185493   8.5015530  33.0162685  26.5265285   8.1982245  32.2985552
  27.0738565   9.3384620  32.8267639  26.8839083   8.5799366  32.8819182
  14.3946673  -1.5062456  32.9653568  14.7745637  -1.0877911  32.3013835
  13.8202037  -0.9249001  33.2722411  14.3657997  -1.3584597  32.9130309
  27.0825168   5.0665518  32.9568716  26.7239822   5.2380161  33.7332748
  26.5963878   5.5278724  32.3996714  26.9583865   5.1604490  32.9893985
  21.8713533   0.7464684  25.4968950  22.1606058   1.5229566  25.7712525
  21.9585332   0.2353415  26.1983450  21.9267789   0.7856602  25.6411448
  28.2984164   6.6489223  40.5441274  29.0876542   6.2978287  40.6643355
  28.4727762   7.4625611  40.2817907  28.4404445   6.7175080  40.5229142
  27.6875798   7.9051022  36.4492720  27.4895487   8.3941837  35.7548931
  27.0663509   8.1092264  37.0276853  27.5663363   8.0067561  36.4315943
  21.7483777  -0.3264081  30.7902964  22.4925821   0.0610195  31.0285914
  21.8944473  -1.1706655  30.9543452  21.8794362  -0.3933608  30.8496934
  26.2182235   4.7101511  28.8832294  26.9416433   5.1759624  28.7396867
  25.7782826   4.7775120  28.1329891  26.2597927   4.7885347  28.7517076
  24.6264687   2.6403323  37.8677282  24.1992295   2.0153042  37.4342717
  24.6189631   2.3578245  38.6936289  24.5623828   2.5056104  37.9257109
  19.0602348  -2.0973892  27.6182154  19.6947428  -1.5013467  27.5531615
  19.1427959  -2.3970434  28.4328024  19.1658899  -2.0532984  27.7285240
  15.5655336   0.0993949  30.8871700  16.0747566   0.6958456  31.2683005
  16.0389608  -0.1680077  30.2048119  15.7098712   0.1479764  30.8426222
  26.4786084   8.7722216  29.0430355  25.7615394   8.5983078  28.5777593
  27.1292822   8.5374788  28.5105841  26.4687935   8.7118008  28.8959573
  23.1120789   9.7883516  38.0183419  22.8886444   9.0302345  38.3867445
  22.6230633   9.8181537  37.2963858  23.0064238   9.6805741  37.9660160
  21.7599246  10.0083974  35.4720503  21.3459645   9.3458104  35.0824345
  22.4446620  10.1561833  34.9516197  21.7997618   9.9324632  35.3377000
  25.1264540   9.1674059  36.2244120  24.7280823   9.2776330  35.4564940
  24.5115760   9.3756126  36.8070680  24.9763430   9.2147628  36.1975419
  32.8606383   3.7426026  29.6087210  33.2439989   4.4917382  29.8385307
  32.0650496   3.9891846  29.3499200  32.8000165   3.8895720  29.6044784
  22.4706429   3.2522964  28.5756379  21.6617751   2.9289638  28.5289689
  22.9781337   2.5456186  28.5084628  22.4256095   3.1004281  28.5586674
  29.0899636   2.1528838  39.1136504  29.5154708   1.6303260  38.5606929
  28.7256556   2.7509676  38.5925127  29.0986239   2.1639065  38.9545513
  18.7253716  10.4493056  37.8733849  19.0400275  11.2629444  37.8811631
  19.1347129  10.0643275  38.5416008  18.8321814  10.5121758  37.9737941
  25.6778235   5.8663103  35.4437661  26.1489414   6.5803365  35.6127646
  26.0138414   5.2661853  35.9797531  25.7973350   5.8834567  35.5470037
  25.8810508   6.6632110  38.7374695  26.7008882   6.5195076  38.9990990
  25.6004586   7.2878308  39.2791133  25.9607251   6.7342462  38.8562634
  42.3524158  14.3196961  31.7017571  42.3218163  15.1741598  31.8735841
  42.9505507  14.0192254  32.2603715  42.4361316  14.4013458  31.8092374
  35.5523843  13.4072612  36.4570502  34.6961739  13.5681110  36.5079619
  35.5991497  12.5364676  36.4775563  35.4322955  13.3023414  36.4676568
  29.9364983  22.9435330  32.2207733  29.1847883  22.5650868  31.9923778
  30.3850995  22.9753764  31.4726544  29.8914650  22.8920937  32.0765236
  35.3889943  23.3660700  27.6493280  35.0541311  24.0437621  27.2137503
  35.9016813  22.9766011  27.0610152  35.4155524  23.4085278  27.4980072
  34.9294234  25.3174968  33.5904392  35.3133613  25.8861867  33.0509167
  34.8653375  24.5924479  33.1110208  34.9767661  25.2950432  33.4398255
  38.3975664  15.4664656  39.1002153  38.9431624  16.1449743  39.1596123
  38.3392541  15.3252117  38.2403735  38.4691579  15.5456658  38.9814214
  31.5149739  22.9553722  34.4870506  31.6160102  22.1454076  34.7967634
  30.9191484  22.8610669  33.8570184  31.4422278  22.8218750  34.4396744
  40.1740733  16.8949263  29.9735881  40.0580259  17.6456949  30.4028019
  40.9696620  16.6373217  30.2231968  40.2745322  16.9684110  30.0739973
  31.3550479  27.8731311  35.8885362  31.9987934  28.3144475  36.2781520
  31.6806734  27.0684738  35.8015621  31.4982307  27.8196506  35.9330839
  24.7114783  18.9774009  34.1122840  24.4764968  18.1441661  34.0055108
  24.8500424  19.2578675  33.2984041  24.6970446  18.8957512  33.9765195
  27.0104871  11.1459739  37.0107147  26.3909903  10.5552387  36.8417162
  26.9088734  11.7371175  36.3771470  26.9042546  11.1463822  36.8912137
  32.0571058  20.8843286  31.2605224  32.3786900  21.4248494  30.6566532
  32.7043155  20.3140058  31.3927513  32.1997114  20.8802461  31.1912259
  34.1072767  12.8859281  31.3439610  34.8052931  13.0647409  31.8361074
  34.4225099  12.3629621  30.7210000  34.2568104  12.8353053  31.3241620
  26.7374004  14.6912021  39.2550716  26.6132701  15.2774467  39.8900535
  27.3892288  14.1972217  39.5562991  26.8147653  14.7050826  39.3936646
  34.2960702  19.2729726  31.3319402  34.7354337  18.6646827  31.7774175
  34.1465365  18.8937100  30.5604867  34.3382168  19.1268197  31.2838569
  31.7632345  17.8673738  38.5338227  32.4081347  17.3746181  38.2149176
  32.0034122  18.0098525  39.3604306  31.8942930  17.8151180  38.6087761
  34.3018436  20.7128644  38.1845120  34.5841679  19.9180050  37.9631876
  35.0304597  21.1909231  38.2050181  34.4508000  20.6663241  38.1548135
  32.2799630   8.2551678  35.4260885  31.9502960   8.7062821  34.7564584
  31.6044632   8.1767841  35.9733891  32.1310066   8.3102813  35.4084108
  37.8970038  17.6256908  28.2850171  37.8121334  18.4817874  28.4299740
  38.3854422  17.3501232  28.9532330  37.9558936  17.7114229  28.4052253
  38.8288472  14.2441702  29.7847906  38.2999943  14.4601335  30.4445212
  39.3513492  14.9377840  29.7048876  38.8276925  14.3784839  29.8703505
  44.2836525  19.8188006  35.1580951  43.4534228  20.0298650  35.3214367
  44.2345777  18.9925061  34.8823234  44.1543260  19.7277612  35.1418316
  30.7188079  18.1404918  28.5855374  30.1345295  18.6454950  28.9921238
  30.3158175  17.9147305  27.8451966  30.5727383  18.1813167  28.5360399
  26.2732108  23.8559680  35.3879046  25.7899686  24.5810169  35.3638629
  27.0855426  24.1535810  35.4989203  26.3222856  24.0062033  35.4006325
  32.3446262  22.6491860  37.9928860  31.8273204  22.2899275  37.3890168
  33.0420653  22.1254035  38.0034926  32.3711843  22.5189548  37.9059119
  36.0009854  23.0986674  43.9545033  36.0893200  22.9112815  44.8023244
  36.4299567  22.4524104  43.5549880  36.0771957  22.9749682  44.0216785
  33.5680314  22.3817834  42.9362695  33.0051149  21.9690444  43.4602357
  34.3301337  22.3070740  43.3555839  33.5974763  22.3095235  43.0755696
  35.1765294  14.3870571  27.0624295  35.4161298  14.5948554  26.2499638
  35.4981135  13.5828079  27.1713239  35.2602452  14.2984672  26.9584848
  30.4855584   6.3163966  30.9083833  31.2401552   6.6842283  30.6700883
  30.3083119   6.6903521  31.6763012  30.5710063   6.4262154  30.9868721
  29.1276305  24.3715856  35.5399326  29.8296885  23.8567845  35.5972082
  29.0473788  24.6990007  36.3446201  29.2200066  24.3430082  35.6672118
  30.1755212  14.6091442  44.6679741  30.3475716  14.4997337  45.5165022
  30.7124569  15.2545848  44.4310933  30.2800216  14.6883444  44.7584837
  28.8412649   8.7234285  27.6061946  28.6588222   8.9406166  26.7802938
  29.7038262   8.8373298  27.6620560  28.9417238   8.7724183  27.4916433
  28.4527081  20.5622208  35.0484934  29.2915980  20.7945140  35.0958695
  28.4838850  19.6926519  34.9791969  28.5808798  20.4679154  35.0449578
  29.0779784  20.9823083  39.3498239  29.6178009  20.8394214  40.0201611
  28.3949730  21.3819834  39.7182265  29.0571938  21.0202754  39.5032661
  34.5212368   5.7260696  30.6410969  35.2498528   5.5476651  30.1949126
  34.6107261   6.5678776  30.8518148  34.6419030   5.8244574  30.6064487
  38.5020669  16.6614083  34.5443263  39.2578184  17.0945598  34.5832172
  38.6082993  16.0118853  35.1177900  38.6290839  16.6291567  34.6341289
  41.5400840  20.4887361  35.2945666  41.1036072  20.4924103  36.0504638
  41.2063755  21.1692860  34.8625244  41.4263460  20.5899816  35.3426499
  24.4816929  17.2023374  39.5032661  24.2155344  16.3862490  39.6623651
  24.4955493  17.2476529  38.6328176  24.4441651  17.0880278  39.3986143
  28.3874676  12.0008458  26.1184419  27.6732853  11.7146637  26.5306851
  28.8718645  12.3405084  26.7590806  28.3534039  12.0090108  26.2740054
  29.2315535  10.7401752  42.1499668  28.5387332  10.2698732  42.3960400
  29.8475863  10.5140056  42.7241375  29.2200065  10.6368884  42.2708821
  36.2700307  24.4405795  40.2655272  35.4715553  24.2005296  40.5229141
  36.7186318  24.4920188  41.0122320  36.2174918  24.4128187  40.4140197
  44.6745186  17.2068280  34.1865304  45.3361620  16.6458949  34.0861212
  44.0336598  16.7120311  34.5117995  44.6774054  17.0504690  34.2197644
  35.5621994  20.5038412  26.4946227  35.9773142  20.1723436  25.8030723
  34.7313923  20.2707314  26.3666364  35.5010003  20.4209668  26.3737074
  24.8910343  17.9882153  36.7844405  24.7085916  17.9629039  35.9316697
  25.6260011  18.4581091  36.8233314  24.9724406  18.0543515  36.6642323
  40.9610017  18.2233663  33.9277292  41.1965606  18.3678862  33.1004143
  41.1099580  18.9876071  34.3208806  41.0175820  18.3572717  33.8640896
  27.9556094  14.7067156  43.2926514  28.6796067  14.6920186  43.7791408
  28.0572231  15.4162511  42.7948482  28.0774303  14.8091859  43.2905300
  42.7900473  17.0635329  31.7646896  43.1208691  17.5962969  31.1586991
  43.3633562  17.1174217  32.4208847  42.9234153  17.1504898  31.7724678
  38.0032363  14.9100232  32.4470476  38.0979217  15.6489526  32.9010102
  37.3791206  14.4817707  32.8805041  37.9241393  14.9561552  32.5778624
  36.2584836  18.0886444  43.0960757  36.8323698  17.4513688  43.2509321
  36.1799640  18.0890527  42.2270415  36.3318071  17.9951556  42.9907168
  24.8581253  14.8675654  36.9343471  25.4354756  14.7312104  37.5735717
  24.1595315  14.4111438  37.1889056  24.8402274  14.7797920  37.0665761
  38.2555384  16.7548971  25.6807428  38.1735546  16.8251158  26.5462415
  38.8935104  17.3178715  25.4891169  38.3375221  16.8487942  25.7797378
  31.6148555  16.5209709  35.1481955  31.3567799  15.6881444  35.1213254
  31.6697038  16.7467322  34.3074455  31.5848333  16.4307481  35.0202091
  36.6949605   8.6238160  35.2486047  35.9905932   8.1347345  35.4069967
  36.7434580   8.6360634  34.3774492  36.5979657   8.5527808  35.1425387
  30.5883267  14.0747472  35.6346849  30.0132858  14.2339640  36.2710810
  30.2118944  13.4382881  35.1715300  30.4486080  14.0045285  35.6601408
  34.2556556  12.5470821  40.4939228  33.8670989  12.1225039  39.8391419
  33.5911254  12.7952971  41.0016255  34.1003484  12.5209542  40.4727096
  43.8979825  12.3045826  33.2687058  43.6416390  11.4925767  33.0784941
  44.7409139  12.3123393  33.0417245  43.9845850  12.1857823  33.2071875
  20.3340086  13.7187546  33.6491290  20.4200338  13.3419415  34.4304820
  20.9615884  13.3447992  33.1711248  20.4396637  13.6073029  33.6936767
  35.3595494  16.7769426  28.6916035  36.1736133  17.0684318  28.5798806
  35.2954635  16.1229288  28.1174328  35.4698233  16.7234620  28.5904872
  31.2303402  20.2490943  33.8188347  31.8677349  20.0102691  34.3640140
  31.6558474  20.4528102  33.0841508  31.3879569  20.2441953  33.7905504
  25.9216045  22.4879280  37.7022651  25.9620190  22.7594131  36.8742430
  26.4810569  23.0121188  38.1180439  26.0099391  22.6055035  37.6414539
  31.8706217  15.4693233  28.1563236  32.2551370  15.2500940  28.9079781
  31.6217838  16.2956178  28.2864313  31.8908290  15.5591379  28.2864313
  42.6041405  19.2439870  39.1673905  42.2987222  19.9767927  39.5287221
  41.8847621  18.8377800  38.8866691  42.4528747  19.2921603  39.1787042
  33.6124874  20.7263366  35.4982133  33.6863883  20.5638538  36.3523983
  34.4294381  20.9153555  35.2542615  33.7441233  20.7300108  35.5880159
  27.3730631  21.0721228  32.5276577  26.5468749  21.3182966  32.4010855
  27.4342622  20.9933309  33.3938635  27.2604798  21.0966177  32.6365521
  29.5906655   7.1390170  33.4872017  28.7229080   7.2112769  33.5529626
  29.8781859   7.9412248  33.6759992  29.5046403   7.2684317  33.5246783
  32.1529460  23.6898109  30.2295607  32.4427758  23.2987090  29.5054833
  32.8832941  23.8714814  30.6700882  32.3036344  23.6591923  30.1878414
  32.7424205  18.4915855  41.3148737  32.2435899  19.2031622  41.3933626
  33.5524430  18.8116521  41.2766899  32.7880312  18.6442703  41.3205306
  30.0935376  25.6665491  33.2955756  29.8735671  25.3762846  34.0882423
  29.8729898  25.0080446  32.7673669  30.0282970  25.5265200  33.3344665
  29.0052323  17.7538808  35.5611458  28.7165571  17.1276279  36.0957185
  29.8735671  17.6959095  35.6276138  29.0912575  17.6526352  35.6502413
  39.7930221  12.8973591  35.8793440  39.4494986  12.1763926  36.2300690
  39.8923263  12.6887442  35.0371798  39.7572263  12.7597794  35.8065120
  32.2603331  27.0394881  32.0786449  32.9127389  26.5071323  32.3077475
  31.5628940  26.6863533  32.4654323  32.2534049  26.9084404  32.1698616
  29.2084596  19.3934059  31.4853823  29.9630564  19.7747098  31.6989286
  28.6155209  19.8445202  31.9400520  29.2321310  19.5162886  31.5836701
  40.2543250  19.3599295  31.4217428  40.8201282  20.0192505  31.3375971
  39.6071153  19.7048993  31.8933830  40.2422006  19.5081236  31.4790184
  31.6691263  11.3496899  46.6111035  30.8591039  11.6554679  46.5000878
  32.1465950  12.0702481  46.7263619  31.6194742  11.5011500  46.6118106
  30.5282823  20.5642620  36.8593938  30.0063576  20.7042912  37.5445803
  30.9156843  19.8053284  37.0496056  30.5086524  20.4728144  36.9895015
  27.5174007  10.6148429  30.9288893  27.2298803  10.2449699  30.1920840
  28.2044475  11.0843284  30.6672598  27.5762904  10.6295398  30.7803969
  36.7249828  22.3038079  30.8454507  36.4836504  21.5705940  30.4381572
  36.9051161  22.8524936  30.1920841  36.7157452  22.2760470  30.6884730
  31.9549148  17.5946639  32.2575429  31.7591931  18.2021374  31.6635732
  32.1783494  16.9014583  31.7767103  31.9583789  17.5824165  32.0991510
  30.3527678  14.4801377  32.3756298  31.0750330  14.6442535  31.9160104
  29.8735671  15.2011042  32.2695638  30.3891409  14.6099607  32.2921912
  38.3121186  10.8165176  37.7552983  37.4732287  10.8426455  37.5191246
  38.3825553  11.4635911  38.3358329  38.1989579  10.9161302  37.8062100
  28.0035295  16.8859449  41.4810438  28.5156392  17.1643703  40.8319197
  27.7171638  17.6248743  41.8473251  28.0370158  17.0361803  41.4400316
  36.7590464   7.7150553  32.4880599  37.4616817   7.5158301  32.0100557
  36.4934653   6.9426495  32.7949442  36.8237097   7.5713519  32.4626040
  42.1878710  16.0233163  35.0414225  42.1012684  16.1788589  35.8949003
  41.7329190  16.6671238  34.6673630  42.1081966  16.1408918  35.1121331
  25.0902201  11.3929641  31.7774174  25.1918338  12.1955803  32.1055150
  25.8858088  11.1916977  31.4797255  25.2230107  11.4815540  31.7809530
  31.5219021   8.9785838  41.5411479  31.3302218   8.9940972  42.3910903
  32.3717616   9.1749512  41.5178134  31.6194742   9.0100189  41.6634774
  25.9065934  11.5076819  39.5195296  25.7651425  10.6560760  39.6439804
  26.1906497  11.5505480  38.6957502  25.9273780  11.3876569  39.4162920
  36.0604526  13.3443910  33.6639784  35.8139240  13.2639661  34.4976573
  36.3889649  12.5597378  33.4702312  36.0725769  13.2170175  33.7587307
  39.9552575  20.0527269  37.4526565  39.8166934  20.7508315  37.9575308
  39.1752573  19.8975925  37.0962747  39.8195802  20.1327436  37.4752839
  38.2930660  16.3523644  43.7048947  38.2878698  15.4803461  43.7091373
  38.9991654  16.5511814  43.2318403  38.3975664  16.2527519  43.6355982
  32.0201553  16.0800628  43.0762767  32.1644929  16.6601836  42.4405877
  32.3677202  16.4576925  43.7812622  32.0929015  16.2221332  43.0861762
  34.1921471  15.2790797  40.8587899  33.4444785  15.4721811  40.4536177
  34.3462996  14.4536016  40.6212020  34.1043898  15.1855908  40.7633305
  31.0929308  24.2703400  39.9423794  31.2418872  23.7106316  39.2897198
  31.8729310  24.3495402  40.3256313  31.2303402  24.1988966  39.9020743
  41.4505948  19.4105523  28.2143064  41.0712756  18.6242661  28.2072354
  40.7872193  19.9592380  28.0714709  41.2964422  19.3750347  28.1923861
  33.6182609  24.4418043  41.2208285  33.5426280  23.7726854  41.7759073
  33.5472468  25.1435831  41.7348951  33.5963216  24.4462950  41.3785133
  34.4323248   9.1741347  41.7483302  34.8895862   9.9065322  41.8756095
  34.5079576   8.7507813  42.5070558  34.5114217   9.2198585  41.8784379
  26.6756239   9.4207167  42.8372746  26.1398428   8.8087525  43.1533513
  26.7374004   9.9955303  43.4906413  26.6051871   9.4154095  42.9808173
  34.2752856  22.9619042  32.0531891  35.0402747  22.6928686  31.7314555
  34.1730946  22.4769052  32.7701954  34.3734351  22.8508606  32.1111718
  32.3105625  11.1643451  38.5925126  31.5201700  10.9834911  38.9142462
  32.7066248  10.3870404  38.5755421  32.2522502  11.0230912  38.6377675
  36.7971516  19.9931226  24.0331840  37.5644501  20.0531351  23.6237692
  36.3502825  19.4211667  23.5488159  36.8444943  19.9167801  23.9009550
  37.6949312  18.7985881  36.3184572  37.0194314  18.5671114  36.8197959
  37.7041688  18.1907064  35.6926677  37.5967816  18.6744807  36.3000725
  34.8243456  13.6403710  43.0748625  34.7602597  14.5013667  42.9468762
  34.9640643  13.3235704  42.2744177  34.8358926  13.7203877  42.9376838
  39.6966046  21.6551014  28.5494750  39.7785884  22.4618000  28.2256201
  40.1815789  21.6746973  29.2735524  39.7803204  21.7771676  28.6081649
  33.5062550  16.3335850  37.2164828  33.0824799  16.5340349  36.4803847
  33.3307405  15.4864698  37.3289128  33.4173430  16.2384631  37.1238518
  33.0074243  27.8486363  39.6786286  33.4970173  27.1497152  39.4961950
  32.4358475  27.5510233  40.2662343  32.9958773  27.7012586  39.7387326
  28.7944995  16.8287901  32.6492801  28.9509614  16.7634704  33.5048793
  29.1345588  17.6036454  32.4371480  28.8678229  16.9337099  32.7447395
  35.3324139  16.2045785  31.5186164  35.8739685  15.7016166  31.9824785
  35.6470698  16.1510979  30.7075649  35.4588536  16.1225206  31.4669976
  33.5010589  21.5963136  28.8026192  33.5703409  20.7377675  28.9419192
  34.2799044  21.8135017  28.4745217  33.6263439  21.5016000  28.7743349
  36.4813409  11.0982089  41.5708464  36.6955378  10.4593003  41.0171818
  35.8647308  11.5427913  41.1416326  36.4218738  11.0692233  41.4258896
  37.8918077  24.0200838  33.0162685  37.4997868  23.7167553  32.2985552
  38.0471149  24.8569928  32.8267639  37.8571666  24.0984674  32.8819182
  25.3679256  14.0122852  32.9653568  25.7478221  14.4307397  32.3013835
  24.7934621  14.5936307  33.2722411  25.3390581  14.1600710  32.9130309
  38.0557751  20.5850826  32.9568716  37.6972406  20.7565469  33.7332748
  37.5696462  21.0464032  32.3996714  37.9316448  20.6789797  32.9893985
  35.8728137   4.2082025  36.5595807  35.0021695   4.1820746  36.5129117
  36.1268479   4.0359217  35.7421653  35.7821697   4.1792169  36.4315944
  32.8446117  16.2649992  25.4968950  33.1338642  17.0414874  25.7712525
  32.9317916  15.7538723  26.1983450  32.9000373  16.3041910  25.6411448
  32.8977278   6.2188253  38.0169278  32.3815766   5.5268445  38.1420857
  32.3371207   6.8859030  37.9631876  32.7383791   6.2151511  38.0275344
  34.9669511   6.7581213  39.8462130  34.5801264   6.7830245  40.6275660
  34.4802449   6.1922892  39.3936647  34.8382020   6.6776964  39.8950034
  39.2162491  21.4754722  43.9035917  39.8542211  20.9814918  43.5698373
  38.5736582  21.4032123  43.3188144  39.2156717  21.3913731  43.7678272
  40.9419491  13.3243868  38.4701832  40.5147099  13.2370217  37.7149932
  40.3045544  13.4321644  39.0556676  40.7849098  13.3276528  38.4447274
  39.2716747  22.1674531  40.5441274  40.0609125  21.8163595  40.6643355
  39.4460345  22.9810919  40.2817907  39.4137029  22.2360388  40.5229142
  29.0110058  15.5783256  37.5969062  28.1698064  15.4787131  37.8047956
  29.2200066  16.3478737  37.9483383  28.9174750  15.6775300  37.6796377
  26.4885625  13.2002793  35.4253813  26.0942322  13.2745805  34.6503923
  25.9325741  13.5860740  35.9762175  26.3488437  13.2684568  35.3921473
  38.1250571   6.1784087  35.1057692  38.3300165   6.1106395  35.9514689
  37.7976995   6.9842909  35.0378869  38.1065819   6.2870028  35.2217347
  32.8226723  13.5064656  36.8466660  32.5189860  12.9520644  37.4477068
  32.1206143  13.6856866  36.3594694  32.6742932  13.4509438  36.8636366
  31.8792820  10.8165175  31.4111362  32.1552554  10.0984088  30.9988929
  32.4791489  11.4150095  31.2032468  32.0086084  10.7985546  31.3192123
  30.8845074  20.7214376  41.5538758  30.7765428  20.7316438  42.4200816
  31.0940855  21.5469157  41.3643711  30.8995185  20.8455451  41.6542849
  41.3784259   6.7315852  34.5860457  40.7658573   7.2186254  34.9714189
  41.4748434   6.0559342  35.1298109  41.3022157   6.7034160  34.7239316
  35.3803340   8.4878693  29.6857957  35.8347087   8.6589253  30.4105801
  35.8543386   7.8746803  29.2855732  35.5171660   8.4229578  29.7331718
  28.9018866  17.9727019  39.0160695  28.3106799  18.6136517  38.9863710
  29.6639889  18.3964636  38.9891995  28.9267126  18.1302857  39.0075842
  29.2979488   9.1329016  39.6828713  29.7580970   9.2067946  40.4203837
  29.3435595   9.9310270  39.3328534  29.3730044   9.2623164  39.7401469
  30.9462838   9.7995711  44.2500740  30.5548403   9.1529058  44.6856518
  31.1148701  10.3907147  44.8694995  30.9133748   9.7909979  44.4063446
  38.6608382  23.4236330  36.4492720  38.4628070  23.9127145  35.7548931
  38.0396093  23.6277572  37.0276853  38.5395946  23.5252869  36.4315943
  32.7216360  15.1921227  30.7902964  33.4658405  15.5795503  31.0285914
  32.8677056  14.3478652  30.9543452  32.8526945  15.1251700  30.8496934
  34.6395936   6.9871486  35.8234825  33.7931981   7.1594294  35.6976175
  34.6367068   6.1820830  36.1600654  34.5143086   6.8932515  35.8545952
  35.7094236  10.7646700  36.6896883  35.2354190  10.2388462  37.2002194
  36.0812372  10.2176173  36.1211745  35.6944125  10.6062697  36.6812031
  26.0867266  12.7618207  42.0580429  26.9492879  12.6613916  41.9717759
  25.7559049  12.1812916  41.4966001  26.1652462  12.6609834  41.9625835
  41.9730967  15.8249076  38.1003664  41.7329189  14.9855491  38.1046090
  42.4522974  15.9049243  38.8244437  42.0083150  15.7130476  38.2078466
  37.6377736  11.6583255  29.7522637  37.1100754  11.7411999  29.0628346
  38.0973444  12.4001126  29.7487282  37.6279586  11.7803917  29.6497332
  43.9736154  12.6050533  36.0532923  43.7345924  12.5646367  35.2153708
  44.1370055  13.4521685  36.1798644  43.9626457  12.7242618  35.9486405
  40.5782184  16.9900483  41.9837968  41.3016383  16.5373009  41.8048988
  40.3132146  17.2705148  41.2010296  40.6463457  16.9651451  41.8416683
  29.4469052  11.5860656  38.7190847  28.8222122  11.5979048  38.1116800
  29.1114647  12.0620831  39.3682087  29.3054544  11.6579173  38.7247416
  29.6310801   9.9285775  24.7763532  29.2823605  10.5805500  25.2395082
  29.1507247   9.9142888  24.0487403  29.5081045  10.0228828  24.7374624
  26.1594728  19.6461116  40.1594612  25.6294652  18.9553555  40.2089586
  26.4319821  19.6371302  39.3307320  26.1219450  19.5428248  40.0442028
  37.1914818  20.2286819  28.8832294  37.9149017  20.6944932  28.7396867
  36.7515409  20.2960428  28.1329891  37.2330510  20.3070655  28.7517076
  36.3600973  17.0884361  40.1332983  35.7457966  16.5442411  40.4281618
  36.8768258  16.5748597  39.6538799  36.3456636  16.9320770  40.1057212
  35.5997270  18.1588631  37.8677282  35.1724878  17.5338349  37.4342717
  35.5922215  17.8763553  38.6936289  35.5356412  18.0241411  37.9257109
  28.7159797  13.1953804  40.9365716  28.8753284  12.4397128  41.3417438
  28.5352691  13.7444743  41.5906453  28.7125156  13.1647618  41.0928422
  33.9282980   9.0357385  38.0819816  33.9525467   8.5017498  37.3932596
  34.1794454   8.5274694  38.7445406  33.9692899   8.8818289  38.0784460
  21.4390570  16.3188880  37.5162960  21.3334019  16.2735725  36.6515044
  20.6890790  16.6642661  37.7977245  21.3126173  16.3629789  37.4300290
  30.2084302   7.7628204  37.4625560  30.2482674   8.2637410  38.1760268
  29.3833967   7.8538597  37.1931483  30.0923828   7.8510020  37.5276098
  32.3913915  17.3288944  45.5645855  31.5409546  17.4660658  45.7003500
  32.5542043  16.5952722  46.0093556  32.2897779  17.2403045  45.6501454
  31.6298666  14.2788713  39.7599459  30.7990595  14.4462531  39.5534707
  31.5750183  13.9024664  40.5448344  31.4988081  14.2478445  39.8447987
  30.0034709  12.5544305  30.2889577  30.1437671  13.0516769  30.9918218
  30.5017242  11.8530599  30.4303790  30.0975790  12.5246284  30.4141156
  30.0334932  13.4211416  27.6182154  30.6680011  14.0171841  27.5531615
  30.1160543  13.1214874  28.4328024  30.1391483  13.4652324  27.7285240
  31.6113915   9.3525391  27.5927596  31.9329756   8.8728474  26.9386858
  31.8740858  10.1625037  27.4018407  31.6979940   9.4015289  27.4683088
  34.8410888  20.3744266  41.1126412  34.3335979  20.9280113  41.5567042
  34.5437534  20.4352556  40.2945186  34.7215772  20.4650577  41.0574868
  37.0073070   8.7397585  39.9551075  37.4328141   8.2870112  39.3434601
  36.3930063   8.1857656  40.2315862  36.9801715   8.5911562  39.9056100
  26.5387920  15.6179257  30.8871700  27.0480149  16.2143764  31.2683005
  27.0122192  15.3505230  30.2048119  26.6831295  15.6665072  30.8426222
  37.4518668  24.2907523  29.0430355  36.7347978  24.1168386  28.5777593
  38.1025405  24.0560096  28.5105841  37.4420518  24.2303316  28.8959573
  35.4467293   5.2112685  33.3641652  34.8035611   5.0610332  33.9326790
  35.1066700   4.9655030  32.5990756  35.3012370   5.1524808  33.3344667
  40.0366639  13.1672112  32.7871660  39.3657829  13.7101814  32.6584726
  40.7306389  13.6366967  32.5453355  40.0395507  13.3170383  32.7327188
  34.0853373  25.3068824  38.0183419  33.8619027  24.5487653  38.3867445
  33.5963216  25.3366845  37.2963858  33.9796822  25.1991049  37.9660160
  40.1994767   9.6227996  35.6962034  40.5522377   9.1957719  36.3707832
  39.3409568   9.5378839  35.8263110  40.1244211   9.5472736  35.8157044
  28.8978452  12.2535515  33.7544880  28.1790441  12.6699648  34.0217744
  29.2690814  12.8189754  33.2036518  28.8470383  12.3984797  33.7127687
  38.1978032  12.8863364  39.6446876  38.1775960  12.7046659  40.4981655
  38.2457233  13.7575383  39.6206459  38.2012673  12.9879903  39.7670171
  36.1424362  19.4750556  45.5695352  36.1020217  18.8300233  44.9840508
  36.9547680  19.4187174  45.8820764  36.2567516  19.3709523  45.5292302
  32.7331830  25.5269282  35.4720503  32.3192228  24.8643412  35.0824345
  33.4179204  25.6747141  34.9516197  32.7730201  25.4509940  35.3377000
  36.0997124  24.6859367  36.2244120  35.7013407  24.7961638  35.4564940
  35.4848343  24.8941434  36.8070680  35.9496013  24.7332935  36.1975419
  34.6725026  11.2933515  29.0918260  34.0789865  11.6150512  28.5402827
  34.7100304  10.4474611  28.8839366  34.5899415  11.2157843  28.9801031
  37.5482842  11.2513020  32.5220010  37.3196535  11.2745721  31.6798368
  37.8080919  10.4270487  32.6415020  37.5529030  11.1329100  32.4145207
  31.8302071  13.1047493  42.1245110  31.3180974  12.4968676  42.4830141
  31.6581567  13.8204085  42.5919086  31.7291708  13.1210792  42.2461334
  26.6767786  11.5485068  44.7747472  26.5070376  12.2086443  44.2295678
  26.2333735  11.7591629  45.4959961  26.5867119  11.6771050  44.8009101
  30.6027605   9.7889566  33.8174205  31.0784971  10.1506646  33.1824387
  30.1016205  10.4446034  34.0974348  30.5992964   9.9383755  33.7650946
  43.8338967  19.2611334  29.6087210  44.2172572  20.0102690  29.8385307
  43.0383080  19.5077154  29.3499200  43.7732749  19.4081028  29.6044784
  23.5769850  14.4531934  40.0335962  23.0296570  13.7832579  40.1516830
  24.3662228  14.0861782  40.0979429  23.6122034  14.2996920  40.0604662
  33.4254259  14.1139391  45.5299373  34.1765585  14.4291068  45.8438927
  33.6176835  13.9118562  44.7033294  33.5645673  14.1306773  45.4542768
  32.6454258  11.9330766  27.1847589  33.0253223  11.9510395  26.3998704
  31.9046854  12.3784755  27.0638437  32.5923096  12.0012540  27.0511158
  40.2739549  10.2412957  32.7723168  40.2733775  10.0861614  33.6307444
  40.0695729  11.0875944  32.7164554  40.2439326  10.3433578  32.8911107
  22.3356820  13.6652741  37.1881985  22.1578581  13.2129350  37.9136900
  22.0475842  14.4678903  37.3720462  22.2669773  13.7175299  37.3225488
  37.9980401  14.9210459  36.4259375  38.4934066  14.2033454  36.3863395
  37.1880176  14.6181257  36.3113862  37.9524294  14.7708105  36.4033101
  33.4439012  18.7708272  28.5756379  32.6350335  18.4474946  28.5289689
  33.9513921  18.0641494  28.5084628  33.3988679  18.6189588  28.5586674
  24.0729289  16.1980465  34.3003744  23.2074809  16.1866156  34.1886515
  24.1728105  16.0110688  35.1474883  23.9603456  16.1686526  34.4092688
  40.0632220  17.6714146  39.1136504  40.4887291  17.1488568  38.5606929
  39.6989139  18.2694984  38.5925127  40.0718822  17.6824373  38.9545513
  29.6986299  25.9678364  37.8733849  30.0132858  26.7814752  37.8811631
  30.1079713  25.5828583  38.5416008  29.8054397  26.0307066  37.9737941
  36.6510819  21.3848411  35.4437661  37.1221997  22.0988673  35.6127646
  36.9870998  20.7847161  35.9797531  36.7705934  21.4019875  35.5470037
  37.2884765  21.1766345  42.2065354  36.7405711  20.5524228  41.9385419
  37.7497794  21.3660617  41.4909433  37.2751975  21.1125395  42.0615785
  32.6373429   8.1592294  29.8675221  33.4589123   8.3290607  29.6256916
  32.1743080   8.3139555  29.1441519  32.6904591   8.2074027  29.7246865
  31.2268761   6.1535056  40.6473650  31.7713174   5.8126183  41.2377991
  31.2805696   7.0120518  40.7894934  31.3157880   6.2290316  40.7555523
  27.0399319  19.9151472  37.5212458  27.6444177  19.8747306  36.8926278
  26.8326632  20.7622624  37.5516513  27.0988217  20.0339475  37.4328574
  36.8543092  22.1817417  38.7374695  37.6741465  22.0380383  38.9990990
  36.5737169  22.8063616  39.2791133  36.9339835  22.2527769  38.8562634
  22.2750602  18.8986090  37.3911381  22.1774880  18.0882361  37.7001437
  23.0579471  18.8777883  37.0057649  22.3766738  18.7753180  37.3798244
  40.9097567  38.4620638  32.2207733  40.1580466  38.0836176  31.9923778
  41.3583578  38.4939072  31.4726544  40.8647233  38.4106245  32.0765236
  35.6847367  34.4959317  34.1122840  35.4497551  33.6626969  34.0055108
  35.8233008  34.7763982  33.2984041  35.6703029  34.4142820  33.9765195
  37.9837454  26.6645047  37.0107147  37.3642486  26.0737695  36.8417162
  37.8821318  27.2556483  36.3771470  37.8775130  26.6649130  36.8912137
  43.0303642  36.4028594  31.2605224  43.3519483  36.9433802  30.6566532
  43.6775739  35.8325366  31.3927513  43.1729697  36.3987769  31.1912259
  45.0805350  28.4044589  31.3439610  45.7785515  28.5832717  31.8361074
  45.3957683  27.8814929  30.7210000  45.2300687  28.3538361  31.3241620
  37.7106587  30.2097329  39.2550716  37.5865284  30.7959775  39.8900535
  38.3624872  29.7157525  39.5562991  37.7880237  30.2236134  39.3936646
  45.2693285  34.7915034  31.3319402  45.7086921  34.1832135  31.7774175
  45.1197948  34.4122408  30.5604867  45.3114751  34.6453505  31.2838569
  43.2532214  23.7736986  35.4260885  42.9235544  24.2248129  34.7564584
  42.5777215  23.6953149  35.9733891  43.1042650  23.8288121  35.4084108
  41.6920663  33.6590226  28.5855374  41.1077878  34.1640258  28.9921238
  41.2890758  33.4332613  27.8451966  41.5459967  33.6998475  28.5360399
  37.2464692  39.3744988  35.3879046  36.7632270  40.0995477  35.3638629
  38.0588010  39.6721118  35.4989203  37.2955439  39.5247341  35.4006325
  41.4588168  21.8349274  30.9083833  42.2134136  22.2027591  30.6700883
  41.2815702  22.2088829  31.6763012  41.5442646  21.9447462  30.9868721
  39.8145232  24.2419593  27.6061946  39.6320806  24.4591474  26.7802938
  40.6770845  24.3558606  27.6620560  39.9149822  24.2909491  27.4916433
  39.4259664  36.0807515  35.0484934  40.2648564  36.3130448  35.0958695
  39.4571434  35.2111827  34.9791969  39.5541382  35.9864462  35.0449578
  35.4549512  32.7208681  39.5032661  35.1887928  31.9047798  39.6623651
  35.4688077  32.7661837  38.6328176  35.4174235  32.6065586  39.3986143
  39.3607259  27.5193766  26.1184419  38.6465437  27.2331945  26.5306851
  39.8451228  27.8590392  26.7590806  39.3266623  27.5275416  26.2740054
  35.8642926  33.5067461  36.7844405  35.6818499  33.4814347  35.9316697
  36.5992595  33.9766399  36.8233314  35.9456990  33.5728823  36.6642323
  35.8313836  30.3860962  36.9343471  36.4087339  30.2497412  37.5735717
  35.1327898  29.9296746  37.1889056  35.8134858  30.2983228  37.0665761
  42.5881139  32.0395017  35.1481955  42.3300383  31.2066752  35.1213254
  42.6429621  32.2652630  34.3074455  42.5580916  31.9492788  35.0202091
  41.5615851  29.5932780  35.6346849  40.9865442  29.7524948  36.2710810
  41.1851527  28.9568189  35.1715300  41.4218663  29.5230593  35.6601408
  31.3072670  29.2372854  33.6491290  31.3932921  28.8604723  34.4304820
  31.9348467  28.8633300  33.1711248  31.4129221  29.1258337  33.6936767
  42.2035986  35.7676251  33.8188347  42.8409933  35.5287999  34.3640140
  42.6291058  35.9713410  33.0841508  42.3612152  35.7627261  33.7905504
  42.8438801  30.9878541  28.1563236  43.2283954  30.7686247  28.9079781
  42.5950421  31.8141486  28.2864313  42.8640874  31.0776687  28.2864313
  38.3463215  36.5906536  32.5276577  37.5201332  36.8368274  32.4010855
  38.4075206  36.5118617  33.3938635  38.2337382  36.6151485  32.6365521
  40.5639238  22.6575477  33.4872017  39.6961664  22.7298077  33.5529626
  40.8514443  23.4597556  33.6759992  40.4778986  22.7869625  33.5246783
  43.1262044  39.2083417  30.2295607  43.4160342  38.8172398  29.5054833
  43.8565524  39.3900122  30.6700882  43.2768928  39.1777230  30.1878414
  39.9784906  33.2724116  35.5611458  39.6898155  32.6461587  36.0957185
  40.8468254  33.2144403  35.6276138  40.0645158  33.1711660  35.6502413
  40.1817180  34.9119367  31.4853823  40.9363148  35.2932406  31.6989286
  39.5887792  35.3630510  31.9400520  40.2053893  35.0348194  31.5836701
  38.4906590  26.1333737  30.9288893  38.2031386  25.7635007  30.1920840
  39.1777059  26.6028592  30.6672598  38.5495488  26.1480706  30.7803969
  42.9281732  33.1131947  32.2575429  42.7324515  33.7206682  31.6635732
  43.1516078  32.4199891  31.7767103  42.9316373  33.1009473  32.0991510
  41.3260262  29.9986685  32.3756298  42.0482914  30.1627843  31.9160104
  40.8468255  30.7196350  32.2695638  41.3623993  30.1284915  32.2921912
  36.0634785  26.9114949  31.7774174  36.1650921  27.7141111  32.1055150
  36.8590672  26.7102285  31.4797255  36.1962691  27.0000848  31.7809530
  42.4951604  24.4971146  41.5411479  42.3034801  24.5126280  42.3910903
  43.3450200  24.6934820  41.5178134  42.5927326  24.5285497  41.6634774
  36.8798517  27.0262127  39.5195296  36.7384009  26.1746068  39.6439804
  37.1639080  27.0690788  38.6957502  36.9006363  26.9061877  39.4162920
  37.6488822  24.9392475  42.8372746  37.1131012  24.3272833  43.1533513
  37.7106587  25.5140611  43.4906413  37.5784455  24.9339403  42.9808173
  45.2485439  38.4804350  32.0531891  46.0135330  38.2113994  31.7314555
  45.1463529  37.9954360  32.7701954  45.3466935  38.3693914  32.1111718
  43.2838209  26.6828759  38.5925126  42.4934284  26.5020219  38.9142462
  43.6798832  25.9055712  38.5755421  43.2255085  26.5416220  38.6377675
  44.4795133  31.8521158  37.2164828  44.0557382  32.0525657  36.4803847
  44.3039988  31.0050006  37.3289128  44.3906014  31.7569939  37.1238518
  39.7677578  32.3473209  32.6492801  39.9242197  32.2820012  33.5048793
  40.1078171  33.1221762  32.4371480  39.8410813  32.4522407  32.7447395
  44.4743173  37.1148444  28.8026192  44.5435993  36.2562983  28.9419192
  45.2531628  37.3320325  28.4745217  44.5996023  37.0201308  28.7743349
  36.3411840  29.5308160  32.9653568  36.7210805  29.9492705  32.3013835
  35.7667204  30.1121615  33.2722411  36.3123165  29.6786018  32.9130309
  43.8178700  31.7835300  25.4968950  44.1071225  32.5600182  25.7712525
  43.9050499  31.2724031  26.1983450  43.8732957  31.8227218  25.6411448
  43.8709861  21.7373561  38.0169278  43.3548350  21.0453753  38.1420857
  43.3103790  22.4044338  37.9631876  43.7116375  21.7336819  38.0275344
  45.9402095  22.2766521  39.8462130  45.5533848  22.3015553  40.6275660
  45.4535032  21.7108200  39.3936647  45.8114604  22.1962272  39.8950034
  39.9842641  31.0968564  37.5969062  39.1430648  30.9972439  37.8047956
  40.1932649  31.8664045  37.9483383  39.8907334  31.1960608  37.6796377
  37.4618208  28.7188101  35.4253813  37.0674906  28.7931113  34.6503923
  36.9058325  29.1046048  35.9762175  37.3221021  28.7869876  35.3921473
  43.7959306  29.0249964  36.8466660  43.4922444  28.4705952  37.4477068
  43.0938727  29.2042173  36.3594694  43.6475516  28.9694746  36.8636366
  42.8525403  26.3350483  31.4111362  43.1285138  25.6169396  30.9988929
  43.4524073  26.9335403  31.2032468  42.9818668  26.3170854  31.3192123
  40.2712072  24.6514324  39.6828713  40.7313553  24.7253254  40.4203837
  40.3168179  25.4495578  39.3328534  40.3462627  24.7808471  39.7401469
  43.6948944  30.7106535  30.7902964  44.4390989  31.0980811  31.0285914
  43.8409640  29.8663960  30.9543452  43.8259529  30.6437008  30.8496934
  45.6128519  22.5056794  35.8234825  44.7664564  22.6779602  35.6976175
  45.6099652  21.7006138  36.1600654  45.4875669  22.4117823  35.8545952
  37.0599850  28.2803515  42.0580429  37.9225463  28.1799224  41.9717759
  36.7291633  27.6998224  41.4966001  37.1385046  28.1795142  41.9625835
  40.4201636  27.1045964  38.7190847  39.7954706  27.1164356  38.1116800
  40.0847231  27.5806139  39.3682087  40.2787128  27.1764481  38.7247416
  40.6043384  25.4471083  24.7763532  40.2556189  26.0990808  25.2395082
  40.1239830  25.4328196  24.0487403  40.4813628  25.5414136  24.7374624
  44.9015564  24.5542693  38.0819816  44.9258051  24.0202806  37.3932596
  45.1527037  24.0460002  38.7445406  44.9425482  24.4003597  38.0784460
  32.4123153  31.8374188  37.5162960  32.3066603  31.7921033  36.6515044
  31.6623373  32.1827969  37.7977245  32.2858756  31.8815096  37.4300290
  41.1816886  23.2813512  37.4625560  41.2215257  23.7822718  38.1760268
  40.3566551  23.3723905  37.1931483  41.0656412  23.3695328  37.5276098
  40.9767293  28.0729613  30.2889577  41.1170254  28.5702077  30.9918218
  41.4749826  27.3715907  30.4303790  41.0708374  28.0431592  30.4141156
  41.0067515  28.9396724  27.6182154  41.6412595  29.5357149  27.5531615
  41.0893126  28.6400182  28.4328024  41.1124066  28.9837632  27.7285240
  42.5846498  24.8710699  27.5927596  42.9062339  24.3913782  26.9386858
  42.8473442  25.6810345  27.4018407  42.6712524  24.9200597  27.4683088
  37.5120503  31.1364565  30.8871700  38.0212733  31.7329072  31.2683005
  37.9854776  30.8690538  30.2048119  37.6563879  31.1850380  30.8426222
  39.8711035  27.7720823  33.7544880  39.1523024  28.1884956  34.0217744
  40.2423397  28.3375062  33.2036518  39.8202967  27.9170105  33.7127687
  45.6457609  26.8118823  29.0918260  45.0522449  27.1335820  28.5402827
  45.6832887  25.9659919  28.8839366  45.5631999  26.7343151  28.9801031
  41.5760189  25.3074874  33.8174205  42.0517555  25.6691954  33.1824387
  41.0748788  25.9631342  34.0974348  41.5725548  25.4569063  33.7650946
  34.5502434  29.9717242  40.0335962  34.0029153  29.3017887  40.1516830
  35.3394812  29.6047089  40.0979429  34.5854617  29.8182228  40.0604662
  43.6186842  27.4516074  27.1847589  43.9985807  27.4695703  26.3998704
  42.8779438  27.8970063  27.0638437  43.5655679  27.5197848  27.0511158
  33.3089403  29.1838049  37.1881985  33.1311164  28.7314658  37.9136900
  33.0208425  29.9864211  37.3720462  33.2402356  29.2360607  37.3225488
  44.4171596  34.2893580  28.5756379  43.6082919  33.9660254  28.5289689
  44.9246505  33.5826802  28.5084628  44.3721263  34.1374896  28.5586674
  35.0461873  31.7165773  34.3003744  34.1807393  31.7051464  34.1886515
  35.1460689  31.5295996  35.1474883  34.9336040  31.6871834  34.4092688
  43.6106012  23.6777602  29.8675221  44.4321707  23.8475915  29.6256916
  43.1475663  23.8324863  29.1441519  43.6637175  23.7259335  29.7246865
  42.2001344  21.6720364  40.6473650  42.7445757  21.3311491  41.2377991
  42.2538280  22.5305826  40.7894934  42.2890464  21.7475624  40.7555523
  38.0131903  35.4336780  37.5212458  38.6176760  35.3932614  36.8926278
  37.8059216  36.2807932  37.5516513  38.0720800  35.5524783  37.4328574
  33.2483185  34.4171398  37.3911381  33.1507463  33.6067669  37.7001437
  34.0312055  34.3963191  37.0057649  33.3499322  34.2938488  37.3798244
  31.0501303   4.8109443  22.8225409  31.6938758   5.2522607  23.2121567
  31.3757558   4.0062869  22.7355667  31.1933131   4.7574637  22.8670886
  25.9682932   0.7937811  22.3219093  25.4850510   1.5188300  22.2978676
  26.7806250   1.0913941  22.4329250  26.0173680   0.9440165  22.3346372
  29.7886200   2.6043622  20.2295803  29.5686495   2.3140977  21.0222470
  29.5680722   1.9458577  19.7013715  29.7233794   2.4643331  20.2684712
  31.9554155   3.9773012  19.0126496  32.6078213   3.4449455  19.2417522
  31.2579764   3.6241665  19.3994370  31.9484873   3.8462535  19.1038663
  32.7025067   4.7864494  26.6126332  33.1920997   4.0875283  26.4301997
  32.1309299   4.4888364  27.2002390  32.6909597   4.6390718  26.6727373
  29.3937123   2.9056495  24.8073896  29.7083682   3.7192883  24.8151678
  29.8030537   2.5206714  25.4756055  29.5005221   2.9685197  24.9077988
  40.6048391  15.3998769  19.1547780  39.8531290  15.0214308  18.9263825
  41.0534402  15.4317203  18.4066590  40.5598057  15.3484376  19.0105282
  45.5977642  17.7738407  20.5244439  45.9817021  18.3425306  19.9849214
  45.5336783  17.0487918  20.0450255  45.6451069  17.7513871  20.3738301
  42.1833147  15.4117161  21.4210553  42.2843510  14.6017515  21.7307680
  41.5874892  15.3174108  20.7910231  42.1105685  15.2782189  21.3736791
  42.0233886  20.3294751  22.8225409  42.6671342  20.7707915  23.2121567
  42.3490142  19.5248177  22.7355667  42.1665715  20.2759945  22.8670886
  35.3798191  11.4337448  21.0462886  35.1448375  10.6005100  20.9395155
  35.5183832  11.7142114  20.2324087  35.3653853  11.3520951  20.9105241
  42.7254466  13.3406725  18.1945270  43.0470307  13.8811933  17.5906579
  43.3726563  12.7703497  18.3267560  42.8680521  13.3365901  18.1252306
  37.4057411   7.1475460  26.1890763  37.2816108   7.7337906  26.8240582
  38.0575696   6.6535656  26.4903038  37.4831061   7.1614265  26.3276692
  44.9644109  11.7293165  18.2659449  45.4037745  11.1210266  18.7114221
  44.8148772  11.3500539  17.4944914  45.0065575  11.5831636  18.2178616
  42.4315752  10.3237177  25.4678274  43.0764755   9.8309620  25.1489223
  42.6717529  10.4661964  26.2944352  42.5626338  10.2714619  25.5427807
  44.9701844  13.1692083  25.1185167  45.2525087  12.3743489  24.8971923
  45.6988004  13.6472671  25.1390228  45.1191408  13.1226680  25.0888182
  41.3871487  10.5968358  15.5195421  40.8028702  11.1018389  15.9261285
  40.9841582  10.3710745  14.7792013  41.2410791  10.6376606  15.4700446
  36.9415516  16.3123119  22.3219093  36.4583094  17.0373608  22.2978676
  37.7538834  16.6099249  22.4329250  36.9906263  16.4625472  22.3346372
  43.0129670  15.1055299  24.9268907  42.4956611  14.7462714  24.3230215
  43.7104061  14.5817474  24.9374973  43.0395251  14.9752987  24.8399166
  44.2363721  14.8381273  29.8702742  43.6734556  14.4253883  30.3942403
  44.9984745  14.7634179  30.2895885  44.2658170  14.7658674  30.0095743
  39.7959713  16.8279295  22.4739372  40.4980292  16.3131284  22.5312129
  39.7157196  17.1553446  23.2786247  39.8883473  16.7993521  22.6012165
  40.8438619   7.0654882  31.6019787  41.0159123   6.9560776  32.4505069
  41.3807977   7.7109287  31.3650980  40.9483623   7.1446883  31.6924884
  39.1210488  13.0185647  21.9824980  39.9599388  13.2508579  22.0298742
  39.1522257  12.1489958  21.9132016  39.2492206  12.9242593  21.9789625
  39.7463191  13.4386522  26.2838286  40.2861416  13.2957653  26.9541658
  39.0633138  13.8383273  26.6522312  39.7255345  13.4766193  26.4372708
  35.1500336   9.6586813  26.4372707  34.8838752   8.8425929  26.5963698
  35.1638901   9.7039968  25.5668223  35.1125059   9.5443717  26.3326189
  35.5593750  10.4445592  23.7184452  35.3769323  10.4192478  22.8656744
  36.2943419  10.9144530  23.7573360  35.6407814  10.5106954  23.5982370
  38.6239502   7.1630595  30.2266560  39.3479474   7.1483626  30.7131455
  38.7255638   7.8725950  29.7288529  38.7457711   7.2655298  30.2245347
  35.5264660   7.3239093  23.8683518  36.1038163   7.1875543  24.5075764
  34.8278722   6.8674877  24.1229103  35.5085682   7.2361359  24.0005808
  42.2831963   8.9773148  22.0822002  42.0251207   8.1444883  22.0553301
  42.3380445   9.2030761  21.2414502  42.2531740   8.8870920  21.9542138
  41.2566675   6.5310911  22.5686896  40.6816266   6.6903079  23.2050857
  40.8802351   5.8946320  22.1055347  41.1169487   6.4608724  22.5941455
  31.0023494   6.1750986  20.5831337  31.0883745   5.7982854  21.3644867
  31.6299291   5.8011431  20.1051295  31.1080045   6.0636468  20.6276814
  41.8986810  12.7054382  20.7528394  42.5360757  12.4666130  21.2980187
  42.3241881  12.9091541  20.0181554  42.0562976  12.7005392  20.7245551
  36.5899452  14.9442719  24.6362698  36.6303598  15.2157570  23.8082477
  37.1493976  15.4684627  25.0520485  36.6782798  15.0618474  24.5754586
  42.5389625   7.9256672  15.0903283  42.9234778   7.7064379  15.8419828
  42.2901245   8.7519617  15.2204360  42.5591698   8.0154818  15.2204360
  44.2808282  13.1826805  22.4322180  44.3547290  13.0201977  23.2864030
  45.0977788  13.3716994  22.1882662  44.4124640  13.1863547  22.5220206
  38.0414039  13.5284668  19.4616624  37.2152156  13.7746405  19.3350902
  38.1026030  13.4496748  20.3278682  37.9288206  13.5529617  19.5705568
  42.8212868  16.1461548  17.1635653  43.1111166  15.7550529  16.4394880
  43.5516348  16.3278253  17.6040929  42.9719752  16.1155362  17.1218460
  43.4107613  10.9479294  28.2488784  42.9119306  11.6595061  28.3273672
  44.2207837  11.2679960  28.2106946  43.4563719  11.1006142  28.2545352
  40.7618783  18.1228930  20.2295803  40.5419079  17.8326285  21.0222470
  40.5413305  17.4643885  19.7013715  40.6966377  17.9828639  20.2684712
  39.6735730  10.2102247  22.4951505  39.3848979   9.5839718  23.0297232
  40.5419078  10.1522534  22.5616185  39.7595982  10.1089791  22.5842459
  42.9286739  19.4958320  19.0126496  43.5810797  18.9634762  19.2417522
  42.2312348  19.1426973  19.3994370  42.9217457  19.3647843  19.1038663
  39.8768004  11.8497498  18.4193870  40.6313972  12.2310537  18.6329332
  39.2838616  12.3008641  18.8740566  39.9004717  11.9726325  18.5176748
  41.1966230  13.0206059  23.7933985  40.6746984  13.1606351  24.4785850
  41.5840251  12.2616723  23.9836103  41.1769931  12.9291583  23.9235062
  42.6232556  10.0510078  19.1915476  42.4275339  10.6584813  18.5975779
  42.8466902   9.3578022  18.7107150  42.6267197  10.0387604  19.0331557
  41.0211086   6.9364816  19.3096345  41.7433738   7.1005974  18.8500151
  40.5419079   7.6574481  19.2035684  41.0574817   7.0663046  19.2261959
  38.6718703   9.3422888  28.4150484  39.1839800   9.6207142  27.7659244
  38.3855045  10.0812183  28.7813298  38.7053566   9.4925242  28.3740363
  35.7585609   3.8493080  18.7114221  35.8601745   4.6519242  19.0395196
  36.5541496   3.6480416  18.4137302  35.8913515   3.9378979  18.7149576
  42.6884961   8.5364067  30.0102814  42.8328336   9.1165276  29.3745924
  43.0360609   8.9140364  30.7152669  42.7612422   8.6784771  30.0201809
  44.8604878   7.7354236  27.7927946  44.1128192   7.9285250  27.3876224
  45.0146403   6.9099455  27.5552067  44.7727306   7.6419347  27.6973351
  41.7612716  16.7266839  26.8763841  41.9102279  16.1669755  26.2237245
  42.5412718  16.8058841  27.2596360  41.8986809  16.6552405  26.8360790
  44.2866016  16.8981482  28.1548332  44.2109687  16.2290293  28.7099120
  44.2155875  17.5999270  28.6688998  44.2646623  16.9026389  28.3125180
  44.9436263  15.4182481  18.9871938  45.7086154  15.1492125  18.6654602
  44.8414353  14.9332491  19.7042000  45.0417759  15.3072046  19.0451765
  44.1745957   8.7899289  24.1504875  43.7508206   8.9903788  23.4143893
  43.9990812   7.9428137  24.2629175  44.0856838   8.6948070  24.0578565
  43.6757651  20.3049802  26.6126332  44.1653581  19.6060591  26.4301997
  43.1041883  20.0073672  27.2002390  43.6642181  20.1576025  26.6727373
  39.4628402   9.2851340  19.5832848  39.6193021   9.2198143  20.4388840
  39.8028995  10.0599893  19.3711527  39.5361637   9.3900538  19.6787442
  44.1693996  14.0526575  15.7366239  44.2386817  13.1941114  15.8759239
  44.9482452  14.2698456  15.4085263  44.2946847  13.9579439  15.7083396
  36.0362664   6.4686291  19.8993615  36.4161628   6.8870836  19.2353882
  35.4618028   7.0499746  20.2062458  36.0073989   6.6164150  19.8470356
  43.5129524   8.7213431  12.4308997  43.8022049   9.4978313  12.7052571
  43.6001323   8.2102162  13.1323496  43.5683780   8.7605349  12.5751495
  39.6793465   8.0346695  24.5309109  38.8381472   7.9350570  24.7388003
  39.8883473   8.8042176  24.8823430  39.5858158   8.1338739  24.6136424
  37.1569032   5.6566232  22.3593860  36.7625730   5.7309244  21.5843969
  36.6009149   6.0424179  22.9102222  37.0171844   5.7248007  22.3261520
  41.5528481  13.1777815  28.4878804  41.4448836  13.1879878  29.3540863
  41.7624263  14.0032596  28.2983758  41.5678592  13.3018890  28.5882896
  39.5702273  10.4290458  25.9500742  38.9790206  11.0699956  25.9203757
  40.3323297  10.8528075  25.9232042  39.5950534  10.5866296  25.9415889
  43.3899768   7.6484666  17.7243011  44.1341813   8.0358943  17.9625961
  43.5360464   6.8042092  17.8883499  43.5210353   7.5815139  17.7836981
  36.7550674   5.2181646  28.9920476  37.6176287   5.1177355  28.9057806
  36.4242457   4.6376356  28.4306048  36.8335870   5.1173273  28.8965882
  36.8278135  12.1024555  27.0934658  36.2978060  11.4116994  27.1429633
  37.1003229  12.0934741  26.2647367  36.7902857  11.9991687  26.9782074
  39.3843205   5.6517243  27.8705763  39.5436692   4.8960567  28.2757485
  39.2036099   6.2008183  28.5246500  39.3808564   5.6211057  28.0268469
  32.1073977   8.7752319  24.4503007  32.0017426   8.7299164  23.5855091
  31.3574197   9.1206100  24.7317292  31.9809580   8.8193228  24.3640336
  43.0597323   9.7852383  32.4985901  42.2092953   9.9224097  32.6343546
  43.2225450   9.0516161  32.9433603  42.9581186   9.6966484  32.5841501
  42.2982073   6.7352153  26.6939506  41.4674003   6.9025971  26.4874754
  42.2433590   6.3588103  27.4788391  42.1671488   6.7041884  26.7788034
  40.7018339   5.8774855  14.5522200  41.3363419   6.4735280  14.4871662
  40.7843950   5.5778313  15.3668071  40.8074890   5.9215763  14.6625287
  45.5094295  12.8307705  28.0466459  45.0019386  13.3843552  28.4907089
  45.2120941  12.8915995  27.2285233  45.3899180  12.9214016  27.9914915
  37.2071327   8.0742696  17.8211746  37.7163557   8.6707203  18.2023052
  37.6805600   7.8068670  17.1388166  37.3514703   8.1228511  17.7766269
  44.7536780  17.7632263  24.9523465  44.5302435  17.0051092  25.3207492
  44.2646624  17.7930284  24.2303905  44.6480229  17.6554488  24.9000206
  39.5661859   4.7098954  20.6884927  38.8473848   5.1263087  20.9557790
  39.9374221   5.2753193  20.1376565  39.5153791   4.8548236  20.6467734
  43.4015237  17.9832721  22.4060550  42.9875636  17.3206851  22.0164392
  44.0862611  18.1310580  21.8856244  43.4413609  17.9073379  22.2717047
  37.3451193   4.0048507  31.7087519  37.1753783   4.6649882  31.1635725
  36.9017143   4.2155068  32.4300008  37.2550527   4.1334489  31.7349148
  34.2453258   6.9095373  26.9676008  33.6979977   6.2396018  27.0856877
  35.0345636   6.5425221  27.0319476  34.2805441   6.7560359  26.9944709
  44.0937666   6.5702830  32.4639419  44.8448993   6.8854507  32.7778974
  44.2860242   6.3682001  31.6373341  44.2329080   6.5870212  32.3882815
  33.0040227   6.1216181  24.1222031  32.8261988   5.6692790  24.8476947
  32.7159249   6.9242342  24.3060509  32.9353180   6.1738738  24.2565534
  44.1122420  11.2271711  15.5096426  43.3033742  10.9038385  15.4629736
  44.6197329  10.5204933  15.4424675  44.0672087  11.0753028  15.4926721
  34.7412697   8.6543904  21.2343791  33.8758216   8.6429595  21.1226562
  34.8411513   8.4674127  22.0814930  34.6286864   8.6249966  21.3432735
  40.3669707  18.4241803  24.8073896  40.6816266  19.2378191  24.8151678
  40.7763120  18.0392022  25.4756055  40.4737805  18.4870505  24.9077988
  37.7082727  12.3714911  24.4552504  38.3127584  12.3310746  23.8266325
  37.5010040  13.2186063  24.4856560  37.7671624  12.4902914  24.3668621
  32.9434009  11.3549529  24.3251428  32.8458287  10.5445800  24.6341484
  33.7262879  11.3341322  23.9397696  33.0450146  11.2316619  24.3138291
  46.1232920  25.1772121  26.4372707  45.8571335  24.3611237  26.5963698
  46.1371484  25.2225276  25.5668223  46.0857642  25.0629025  26.3326189
  41.9756077  21.6936294  20.5831337  42.0616329  21.3168162  21.3644867
  42.6031875  21.3196739  20.1051295  42.0812628  21.5821776  20.6276814
  43.0806561  24.2937627  24.4503007  42.9750010  24.2484472  23.5855091
  42.3306781  24.6391408  24.7317292  42.9542164  24.3378536  24.3640336
  45.2185841  22.4280681  26.9676008  44.6712561  21.7581326  27.0856877
  46.0078219  22.0610529  27.0319476  45.2538025  22.2745667  26.9944709
  43.9772811  21.6401489  24.1222031  43.7994572  21.1878097  24.8476947
  43.6891833  22.4427650  24.3060509  43.9085764  21.6924046  24.2565534
  45.7145281  24.1729212  21.2343791  44.8490800  24.1614903  21.1226562
  45.8144096  23.9859435  22.0814930  45.6019448  24.1435273  21.3432735
  43.9166593  26.8734837  24.3251428  43.8190871  26.0631108  24.6341484
  44.6995463  26.8526630  23.9397696  44.0182729  26.7501927  24.3138291
   9.8191941  14.0463616  31.4282932   9.7885945  14.9008253  31.6001201
  10.4173290  13.7458909  31.9869075   9.9029099  14.1280113  31.5357734
   3.0191626  13.1339267  36.1835862   2.1629521  13.2947766  36.2344979
   3.0659280  12.2631331  36.2040923   2.8990737  13.0290069  36.1941928
   2.8557725  23.0927355  27.3758641   2.5209094  23.7704276  26.9402863
   3.3684596  22.7032666  26.7875513   2.8823307  23.1351933  27.2245432
   2.3962017  25.0441623  33.3169753   2.7801396  25.6128522  32.7774528
   2.3321158  24.3191134  32.8375569   2.4435444  25.0217087  33.1663615
   5.8643447  15.1931311  38.8267514   6.4099407  15.8716398  38.8861484
   5.8060323  15.0518772  37.9669095   5.9359361  15.2723313  38.7079574
   7.6408516  16.6215918  29.7001242   7.5248041  17.3723605  30.1293380
   8.4364402  16.3639872  29.9497329   7.7413105  16.6950765  29.8005333
   1.5740549  12.6125936  31.0704971   2.2720714  12.7914064  31.5626434
   1.8892882  12.0896276  30.4475360   1.7235886  12.5619709  31.0506981
   1.7628484  18.9996381  31.0584762   2.2022120  18.3913482  31.5039535
   1.6133147  18.6203755  30.2870227   1.8049950  18.8534853  31.0103930
   1.7686219  20.4395299  37.9110480   2.0509462  19.6446705  37.6897236
   2.4972379  20.9175887  37.9315541   1.9175783  20.3929896  37.8813496
   5.3637821  17.3523563  28.0115532   5.2789116  18.2084529  28.1565100
   5.8522204  17.0767887  28.6797691   5.4226718  17.4380884  28.1317613
   6.2956254  13.9708357  29.5113267   5.7667726  14.1867990  30.1710573
   6.8181274  14.6644495  29.4314236   6.2944707  14.1051494  29.5968866
  11.7504307  19.5454661  34.8846311  10.9202010  19.7565305  35.0479728
  11.7013559  18.7191716  34.6088595  11.6211043  19.4544268  34.8683677
   2.6433076  14.1137226  26.7889655   2.8829080  14.3215210  25.9764998
   2.9648917  13.3094734  26.8978600   2.7270234  14.0251327  26.6850208
  11.2458265  12.1925062  38.6796732  10.4086687  12.2627249  38.9144327
  11.2146496  12.1949557  37.8071035  11.1176548  12.2035289  38.5856280
   5.9688451  16.3880739  34.2708624   6.7245966  16.8212253  34.3097533
   6.0750776  15.7385508  34.8443260   6.0958622  16.3558222  34.3606650
   9.0068622  20.2154016  35.0211027   8.5703854  20.2190758  35.7769998
   8.6731538  20.8959515  34.5890604   8.8931242  20.3166472  35.0691859
   3.7368089  24.1672451  39.9920633   2.9383335  23.9271951  40.2494501
   4.1854101  24.2186844  40.7387680   3.6842701  24.1394842  40.1405557
  12.1412969  16.9334936  33.9130664  12.8029403  16.3725604  33.8126573
  11.5004381  16.4386966  34.2383355  12.1441836  16.7771345  33.9463004
   3.0289776  20.2305067  26.2211587   3.4440925  19.8990091  25.5296083
   2.1981706  19.9973969  26.0931724   2.9677785  20.1476323  26.1002435
   8.4277799  17.9500318  33.6542653   8.6633388  18.0945517  32.8269504
   8.5767363  18.7142726  34.0474167   8.4843603  18.0839372  33.5906257
  10.2568256  16.7901984  31.4912257  10.5876473  17.3229624  30.8852352
  10.8301344  16.8440872  32.1474208  10.3901935  16.8771553  31.4990038
   5.4700145  14.6366887  32.1735837   5.5647000  15.3756181  32.6275462
   4.8458989  14.2084362  32.6070401   5.3909175  14.6828207  32.3043984
   5.7223166  16.4815627  25.4072789   5.6403329  16.5517814  26.2727776
   6.3602887  17.0445370  25.2156530   5.8043004  16.5754598  25.5062738
  11.3647608  12.0312481  32.9952418  11.1084172  11.2192422  32.8050301
  12.2076922  12.0390048  32.7682606  11.4513633  11.9124478  32.9337235
   2.8263277  16.5036081  28.4181395   3.6403915  16.7950974  28.3064167
   2.7622418  15.8495943  27.8439688   2.9366016  16.4501276  28.3170233
  10.0709187  18.9706526  38.8939265   9.7655005  19.7034583  39.2552581
   9.3515403  18.5644455  38.6132052   9.9196530  19.0188259  38.9052403
   1.0792657  20.4530021  35.2247494   1.1531665  20.2905193  36.0789344
   1.8962163  20.6420210  34.9807975   1.2109015  20.4566763  35.3145519
  15.7710980  15.6099526  38.2207610  15.7035480  15.6295486  37.3510196
  15.7566642  16.4529854  38.4463280  15.7589736  15.7373261  38.1260087
  13.5569597  14.3843913  36.4954204  14.1077518  13.7511982  36.7351296
  13.5413712  14.9159305  37.1869708  13.6354793  14.3692861  36.6333062
   7.2598003  12.6240246  35.6058800   6.9162769  11.9030581  35.9566050
   7.3591046  12.4154097  34.7637159   7.2240046  12.4864450  35.5330480
   7.7211032  19.0865950  31.1482788   8.2869065  19.7459160  31.0641331
   7.0738936  19.4315648  31.6199191   7.7089789  19.2347892  31.2055545
   4.1917610  22.0304735  30.5719868   3.9504286  21.2972595  30.1646933
   4.3718943  22.5791591  29.9186201   4.1825234  22.0027126  30.4150091
   4.2258247   7.4417208  32.2145959   4.9284600   7.2424956  31.7365917
   3.9602436   6.6693150  32.5214803   4.2904879   7.2980174  32.1891401
   9.6546492  15.7499818  34.7679585   9.5680467  15.9055244  35.6214364
   9.1996972  16.3937893  34.3938990   9.5749749  15.8675573  34.8386692
   3.5272308  13.0710565  33.3905144   3.2807023  12.9906316  34.2241933
   3.8557432  12.2864033  33.1967672   3.5393552  12.9436830  33.4852668
   7.4220357  19.7793924  37.1791926   7.2834717  20.4774970  37.6840668
   6.6420355  19.6242581  36.8228107   7.2863584  19.8594091  37.2018200
   8.9173730  19.1372178  27.9408425   8.5380539  18.3509316  27.9337714
   8.2539976  19.6859035  27.7980069   8.7632205  19.1017002  27.9189222
   1.7420638  22.6885697  31.7797251   2.5070529  22.4195341  31.4579915
   1.6398728  22.2035707  32.4967314   1.8402134  22.5775262  31.8377079
   4.2639299  19.7197881  23.7597200   5.0312284  19.7798006  23.3503052
   3.8170608  19.1478322  23.2753519   4.3112726  19.6434457  23.6274911
   5.1617094  18.5252537  36.0449933   4.4862096  18.2937769  36.5463320
   5.1709470  17.9173720  35.4192038   5.0635599  18.4011462  36.0266085
   7.1633829  21.3817669  28.2760111   7.2453666  22.1884655  27.9521562
   7.6483571  21.4013628  29.0000884   7.2470987  21.5038331  28.3347009
   0.9730332  16.0602505  36.9430189   0.5492581  16.2607004  36.2069207
   0.7975187  15.2131353  37.0554489   0.8841213  15.9651286  36.8503879
   2.7991922  15.9312440  31.2451524   3.3407467  15.4282821  31.7090145
   3.1138481  15.8777635  30.4341010   2.9256319  15.8491861  31.1935337
   0.9678371  21.3229792  28.5291552   1.0371192  20.4644330  28.6684553
   1.7466827  21.5401672  28.2010577   1.0931222  21.2282655  28.5008710
   5.3585859  23.7467493  32.7428046   4.9665651  23.4434208  32.0250912
   5.5138931  24.5836583  32.5533000   5.3239449  23.8251329  32.6084543
   5.5225534  20.3117482  32.6834076   5.1640189  20.4832124  33.4598109
   5.0364245  20.7730687  32.1262075   5.3984231  20.4056453  32.7159345
   8.4087273  13.0510524  38.1967193   7.9814881  12.9636872  37.4415292
   7.7713326  13.1588299  38.7822037   8.2516881  13.0543183  38.1712634
   6.7384530  21.8941186  40.2706634   7.5276908  21.5430251  40.3908716
   6.9128128  22.7077574  40.0083268   6.8804811  21.9627043  40.2494502
   8.8452042   6.4582507  34.3125818   8.2326355   6.9452909  34.6979550
   8.9416217   5.7825998  34.8563469   8.7689939   6.4300816  34.4504676
   2.8471123   8.2145348  29.4123317   3.3014869   8.3855908  30.1371162
   3.3211168   7.6013459  29.0121093   2.9839443   8.1496233  29.4597079
  12.4877070  17.5299444  39.7403334  12.5460193  17.9786092  40.4863310
  11.8543537  17.9398256  39.3033414  12.4028365  17.6573178  39.7855882
   6.1276164  23.1502985  36.1758080   5.9295853  23.6393800  35.4814292
   5.5063875  23.3544227  36.7542214   6.0063729  23.2519524  36.1581303
   9.4398749  15.5515731  37.8269024   9.1996972  14.7122146  37.8311451
   9.9190756  15.6315898  38.5509798   9.4750933  15.4397131  37.9343827
   5.1045518  11.3849910  29.4787998   4.5768537  11.4678654  28.7893706
   5.5641226  12.1267782  29.4752642   5.0947369  11.5070573  29.3762693
  11.4403936  12.3317188  35.7798283  11.2013706  12.2913023  34.9419068
  11.6037837  13.1788341  35.9064005  11.4294240  12.4509273  35.6751765
   4.6582601  19.9553474  28.6097655   5.3816800  20.4211587  28.4662228
   4.2183192  20.0227083  27.8595252   4.6998293  20.0337310  28.4782436
   3.0665053  17.8855286  37.5942642   2.6392661  17.2605005  37.1608078
   3.0589997  17.6030208  38.4201649   3.0024194  17.7508067  37.6522470
  10.4785280  15.6793549  40.2133878  11.0703120  16.3190799  40.2452076
  10.9144275  14.9816585  40.5025945  10.6303711  15.6711899  40.2614711
   4.9186450  24.0174179  28.7695716   4.2015760  23.8435041  28.3042953
   5.5693188  23.7826751  28.2371202   4.9088301  23.9569971  28.6224934
   7.5034422  12.8938767  32.5137021   6.8325611  13.4368469  32.3850086
   8.1974172  13.3633623  32.2718716   7.5063289  13.0437038  32.4592549
   1.5521155  25.0335479  37.7448779   1.3286810  24.2754309  38.1132805
   1.0630999  25.0633500  37.0229219   1.4464604  24.9257704  37.6925520
   7.6662549   9.3494651  35.4227394   8.0190159   8.9224374  36.0973193
   6.8077351   9.2645494  35.5528470   7.5911994   9.2739392  35.5422404
   3.5664906  24.4126023  35.9509480   3.1681190  24.5228293  35.1830301
   2.9516126  24.6208089  36.5336040   3.4163796  24.4599591  35.9240780
   2.1392808  11.0200170  28.8183620   1.5457648  11.3417167  28.2668187
   2.1768086  10.1741266  28.6104726   2.0567198  10.9424499  28.7066391
   5.0150625  10.9779675  32.2485370   4.7864318  11.0012376  31.4063728
   5.2748701  10.1537142  32.3680381   5.0196813  10.8595755  32.1410568
  11.3006749  18.9877989  29.3352571  11.6840355  19.7369345  29.5650668
  10.5050862  19.2343809  29.0764560  11.2400531  19.1347683  29.3310144
   7.7407331   9.9679612  32.4988529   7.7401558   9.8128269  33.3572805
   7.5363511  10.8142599  32.4429914   7.7107109  10.0700233  32.6176468
   5.4648183  14.6477114  36.1524735   5.9601849  13.9300109  36.1128756
   4.6547959  14.3447912  36.0379222   5.4192077  14.4974760  36.1298461
   7.5300002  17.3980802  38.8401864   7.9555074  16.8755223  38.2872289
   7.1656922  17.9961639  38.3190487   7.5386605  17.4091029  38.6810874
   4.1178602  21.1115066  35.1703022   4.5889780  21.8255328  35.3393007
   4.4538780  20.5113816  35.7062891   4.2373717  21.1286530  35.2735398
   4.7552548  20.9033000  41.9330714   4.2073494  20.2790884  41.6650780
   5.2165577  21.0927272  41.2174794   4.7419757  20.8392050  41.7881145
   4.3210874  21.9084073  38.4640056   5.1409248  21.7647039  38.7256351
   4.0404952  22.5330272  39.0056493   4.4007618  21.9794425  38.5827995
  20.7924525  29.5648924  31.4282932  20.7618529  30.4193561  31.6001201
  21.3905873  29.2644217  31.9869075  20.8761682  29.6465421  31.5357734
  13.9924209  28.6524575  36.1835862  13.1362105  28.8133074  36.2344979
  14.0391863  27.7816639  36.2040923  13.8723321  28.5475377  36.1941928
   8.3765349  38.1887293  31.9473094   7.6248249  37.8102832  31.7189139
   8.8251361  38.2205727  31.1991904   8.3315016  38.1372900  31.8030596
  17.3017926  34.9211101  45.7896318  18.0084693  34.4263132  45.9183253
  17.4905861  35.3620182  45.0598976  17.4345832  34.9129451  45.7005364
  13.8290309  38.6112663  27.3758641  13.4941677  39.2889584  26.9402863
  14.3417179  38.2217974  26.7875513  13.8555890  38.6537241  27.2245432
  13.3694600  40.5626931  33.3169753  13.7533980  41.1313830  32.7774528
  13.3053742  39.8376442  32.8375569  13.4168028  40.5402395  33.1663615
  16.8376030  30.7116619  38.8267514  17.3831990  31.3901706  38.8861484
  16.7792907  30.5704080  37.9669095  16.9091945  30.7908621  38.7079574
   9.9550105  38.2005685  34.2135866  10.0560468  37.3906039  34.5232994
   9.3591851  38.1062632  33.5835545   9.8822644  38.0670713  34.1662105
  18.6141099  32.1401226  29.7001242  18.4980625  32.8908912  30.1293380
  19.4096986  31.8825180  29.9497329  18.7145689  32.2136073  29.8005333
   3.1515150  34.2225972  33.8388200   2.9165334  33.3893624  33.7320469
   3.2900790  34.5030638  33.0249401   3.1370812  34.1409475  33.7030555
   5.4505237  26.3911703  36.7372508   4.8310269  25.8004350  36.5682522
   5.3489101  26.9823138  36.1036831   5.3442913  26.3915785  36.6177497
  10.4971425  36.1295249  30.9870584  10.8187266  36.6700457  30.3831892
  11.1443521  35.5592021  31.1192874  10.6397480  36.1254425  30.9177619
  12.5473133  28.1311244  31.0704971  13.2453297  28.3099372  31.5626434
  12.8625465  27.6081584  30.4475360  12.6968470  28.0805016  31.0506981
   5.1774370  29.9363984  38.9816077   5.0533067  30.5226430  39.6165896
   5.8292655  29.4424180  39.2828352   5.2548019  29.9502789  39.1202006
  12.7361068  34.5181689  31.0584762  13.1754704  33.9098790  31.5039535
  12.5865731  34.1389063  30.2870227  12.7782534  34.3720161  31.0103930
  10.2032711  33.1125701  38.2603588  10.8481714  32.6198144  37.9414536
  10.4434488  33.2550488  39.0869666  10.3343296  33.0603143  38.3353121
  12.7418802  35.9580607  37.9110480  13.0242045  35.1632013  37.6897236
  13.4704963  36.4361195  37.9315541  12.8908366  35.9115204  37.8813496
  10.7199996  23.5003641  35.1526245  10.3903326  23.9514785  34.4829944
  10.0444998  23.4219804  35.6999252  10.5710433  23.5554776  35.1349469
  16.3370405  32.8708871  28.0115532  16.2521700  33.7269837  28.1565100
  16.8254788  32.5953195  28.6797691  16.3959302  32.9566192  28.1317613
  17.9276404  19.4889164  33.3975856  17.6129845  20.1792643  33.8296278
  17.4103346  19.4333946  32.6961357  17.8040874  19.5824052  33.3572805
  22.7236891  35.0639969  34.8846311  21.8934594  35.2750613  35.0479728
  22.6746143  34.2377024  34.6088595  22.5943626  34.9729576  34.8683677
   9.1588446  33.3856882  28.3120735   8.5745661  33.8906913  28.7186599
   8.7558541  33.1599269  27.5717327   9.0127749  33.4265130  28.2625760
   4.7132474  39.1011643  35.1144406   4.2300053  39.8262132  35.0903990
   5.5255793  39.3987773  35.2254564   4.7623222  39.2513996  35.1271685
  10.7846628  37.8943823  37.7194221  10.2673570  37.5351238  37.1155529
  11.4821020  37.3705998  37.7300287  10.8112209  37.7641511  37.6324479
  14.4410220  38.3438638  43.6810394  14.5293566  38.1564778  44.5288604
  14.8699933  37.6976067  43.2815240  14.5172323  38.2201645  43.7482145
   8.9255950  21.5615929  30.6349193   9.6801918  21.9294246  30.3966243
   8.7483485  21.9355484  31.4028373   9.0110429  21.6714117  30.7134082
   7.5676672  39.6167819  35.2664686   8.2697251  39.1019808  35.3237443
   7.4874155  39.9441970  36.0711561   7.6600432  39.5882045  35.3937478
  22.2190849  27.7110370  38.6796732  21.3819270  27.7812557  38.9144327
  22.1879080  27.7134865  37.8071035  22.0909131  27.7220597  38.5856280
   7.2813015  23.9686248  27.3327306   7.0988588  24.1858129  26.5068299
   8.1438628  24.0825261  27.3885921   7.3817604  24.0176146  27.2181793
   6.8927447  35.8074171  34.7750294   7.7316346  36.0397103  34.8224056
   6.9239216  34.9378482  34.7057329   7.0209165  35.7131117  34.7714939
  12.9612734  20.9712659  30.3676330  13.6898895  20.7928614  29.9214486
  13.0507627  21.8130739  30.5783508  13.0819396  21.0696537  30.3329848
  16.9421035  31.9066046  34.2708624  17.6978550  32.3397561  34.3097533
  17.0483359  31.2570816  34.8443260  17.0691205  31.8743530  34.3606650
  19.9801206  35.7339324  35.0211027  19.5436438  35.7376066  35.7769998
  19.6464121  36.4144823  34.5890604  19.8663826  35.8351780  35.0691859
  19.8998689  22.7753152  37.2640455  20.5424597  22.8451256  37.8502370
  20.1521710  22.1082374  36.7619997  20.0320821  22.6879500  37.2767734
   6.8275042  27.2460421  25.8449779   6.1133219  26.9598601  26.2572212
   7.3119011  27.5857047  26.4856167   6.7934405  27.2542071  26.0005414
   7.6715901  25.9853715  41.8765029   6.9787698  25.5150695  42.1225760
   8.2876229  25.7592019  42.4506736   7.6600431  25.8820847  41.9974181
  14.7100673  39.6857759  39.9920633  13.9115919  39.4457259  40.2494501
  15.1586684  39.7372151  40.7387680  14.6575284  39.6580150  40.1405557
  23.1145552  32.4520244  33.9130664  23.7761986  31.8910912  33.8126573
  22.4736964  31.9572274  34.2383355  23.1174420  32.2956653  33.9463004
  14.0022360  35.7490375  26.2211587  14.4173508  35.4175399  25.5296083
  13.1714290  35.5159277  26.0931724  13.9410369  35.6661631  26.1002435
   3.3310709  33.2334116  36.5109765   3.1486282  33.2081002  35.6582058
   4.0660378  33.7033054  36.5498674   3.4124773  33.2995478  36.3907684
  19.4010383  33.4685626  33.6542653  19.6365972  33.6130825  32.8269504
  19.5499947  34.2328034  34.0474167  19.4576186  33.6024680  33.5906257
  21.2300840  32.3087292  31.4912257  21.5609057  32.8414932  30.8852352
  21.8033928  32.3626180  32.1474208  21.3634519  32.3956861  31.4990038
  16.4432729  30.1552195  32.1735837  16.5379583  30.8941489  32.6275462
  15.8191572  29.7269670  32.6070401  16.3641759  30.2013515  32.3043984
  14.6985203  33.3338407  42.8226118  15.2724064  32.6965651  42.9774682
  14.6200006  33.3342490  41.9535775  14.7718437  33.2403519  42.7172529
   3.2981619  30.1127617  36.6608832   3.8755122  29.9764067  37.3001077
   2.5995681  29.6563401  36.9154416   3.2802640  30.0249883  36.7931122
  16.6955750  32.0000934  25.4072789  16.6135913  32.0703122  26.2727776
  17.3335471  32.5630678  25.2156530  16.7775587  32.0939906  25.5062738
  10.0548921  31.7661672  34.8747315   9.7968165  30.9333407  34.8478615
  10.1097404  31.9919285  34.0339816  10.0248699  31.6759444  34.7467452
  15.1349971  23.8690123  34.9751408  14.4306298  23.3799309  35.1335327
  15.1834946  23.8812598  34.1039852  15.0380023  23.7979771  34.8690748
   9.0283633  29.3199435  35.3612210   8.4533225  29.4791603  35.9976171
   8.6519310  28.6834844  34.8980660   8.8886446  29.2497248  35.3866768
  12.6956922  27.7922784  40.2204588  12.3071355  27.3677002  39.5656780
  12.0311620  28.0404934  40.7281615  12.5403850  27.7661505  40.1992456
  22.3380191  27.5497789  32.9952418  22.0816756  26.7377730  32.8050301
  23.1809505  27.5575356  32.7682606  22.4246217  27.4309786  32.9337235
  16.5183284  21.4897413  37.7328573  16.8993795  20.8075584  38.1196447
  15.7146568  21.2007015  37.5504237  16.4559745  21.3464461  37.7632628
  13.7995860  32.0221389  28.4181395  14.6136499  32.3136282  28.3064167
  13.7355002  31.3681251  27.8439688  13.9098599  31.9686583  28.3170233
  20.0205350  34.7047385  42.8310971  19.7843988  33.8735450  42.7123032
  20.6648579  34.6532992  43.4165815  20.0800021  34.5745073  42.8996865
   9.6703769  35.4942906  33.5453707  10.3077715  35.2554654  34.0905501
  10.0958840  35.6980065  32.8106868   9.8279935  35.4893916  33.5170865
  10.3106584  30.7145196  27.8828597  10.6951736  30.4952903  28.6345142
  10.0618204  31.5408141  28.0129673  10.3308656  30.8043342  28.0129673
  21.0441771  34.4891834  38.8939265  20.7387588  35.2219890  39.2552581
  20.3247987  34.0829763  38.6132052  20.8929113  34.5373567  38.9052403
  12.0525240  35.9715329  35.2247494  12.1264249  35.8090501  36.0789344
  12.8694747  36.1605518  34.9807975  12.1841599  35.9752071  35.3145519
  26.7443563  31.1284834  38.2207610  26.6768063  31.1480793  37.3510196
  26.7299226  31.9715162  38.4463280  26.7322320  31.2558569  38.1260087
   5.8130997  36.3173192  32.2541937   4.9869115  36.5634929  32.1276216
   5.8742988  36.2385272  33.1203995   5.7005164  36.3418141  32.3630882
   8.0307021  22.3842133  33.2137377   7.1629446  22.4564732  33.2794987
   8.3182225  23.1864212  33.4025352   7.9446769  22.5136280  33.2512144
  17.1539910  22.5319992  41.5448699  17.8993502  22.3429802  41.1312125
  16.7377214  23.0578230  40.9862555  17.2024884  22.5822137  41.4013272
  10.5929826  38.9350072  29.9560967  10.8828125  38.5439053  29.2320194
  11.3233307  39.1166777  30.3966242  10.7436710  38.9043886  29.9143774
  24.5302181  29.9029221  36.4954204  25.0810102  29.2697290  36.7351296
  24.5146296  30.4344613  37.1869708  24.6087377  29.8878169  36.6333062
  11.1824571  33.7367818  41.0414098  10.6836265  34.4483585  41.1198986
  11.9924796  34.0568484  41.0032260  11.2280678  33.8894666  41.0470666
   8.5335742  40.9117454  33.0221117   8.3136037  40.6214809  33.8147784
   8.3130264  40.2532409  32.4939029   8.4683336  40.7717163  33.0610025
   7.4452689  32.9990771  35.2876818   7.1565938  32.3728242  35.8222546
   8.3136037  32.9411058  35.3541499   7.5312941  32.8978315  35.3767773
  18.2330587  28.1425554  35.6058800  17.8895353  27.4215889  35.9566050
  18.3323629  27.9339405  34.7637159  18.1972630  28.0049757  35.5330480
  10.7003697  42.2846844  31.8051809  11.3527756  41.7523287  32.0342835
  10.0029306  41.9315497  32.1919683  10.6934415  42.1536367  31.8963977
   7.6484962  34.6386022  31.2119183   8.4030930  35.0199061  31.4254646
   7.0555575  35.0897165  31.6665880   7.6721676  34.7614849  31.3102062
  18.6943616  34.6051258  31.1482788  19.2601648  35.2644468  31.0641331
  18.0471519  34.9500956  31.6199191  18.6822372  34.7533200  31.2055545
  10.1091629  26.5948862  46.3376396   9.2991405  26.9006642  46.2266238
  10.5866316  27.3154445  46.4528980  10.0595108  26.7463463  46.3383467
   8.9683189  35.8094583  36.5859299   8.4463942  35.9494875  37.2711164
   9.3557209  35.0505247  36.7761416   8.9486890  35.7180107  36.7160375
   5.9574373  25.8600392  30.6554254   5.6699169  25.4901662  29.9186201
   6.6444841  26.3295247  30.3937958   6.0163270  25.8747361  30.5069329
  15.1650194  37.5490042  30.5719868  14.9236870  36.8157903  30.1646933
  15.3451527  38.0976899  29.9186201  15.1557818  37.5212434  30.4150091
  10.3949515  32.8398602  31.9840790  10.1992297  33.4473337  31.3901093
  10.6183860  32.1466546  31.5032464  10.3984156  32.8276128  31.8256871
   8.7928045  29.7253340  32.1021658   9.5150696  29.8894498  31.6425464
   8.3136037  30.4463005  31.9960998   8.8291775  29.8551570  32.0187272
  16.7521552  26.0617139  37.4818343  15.9132653  26.0878418  37.2456606
  16.8225919  26.7087874  38.0623690  16.6389946  26.1613265  37.5327460
  15.1990830  22.9602516  32.2145959  15.9017183  22.7610264  31.7365917
  14.9335019  22.1878458  32.5214803  15.2637463  22.8165482  32.1891401
  20.6279076  31.2685126  34.7679585  20.5413051  31.4240552  35.6214364
  20.1729556  31.9123201  34.3938990  20.5482333  31.3860881  34.8386692
   3.5302568  26.6381604  31.5039535   3.6318704  27.4407766  31.8320510
   4.3258454  26.4368940  31.2062615   3.6630473  26.7267503  31.5074890
   9.9619387  24.2237801  41.2676840   9.7702584  24.2392936  42.1176263
  10.8117983  24.4201475  41.2443495  10.0595109  24.2552152  41.3900134
   4.3466300  26.7528783  39.2460656   4.2051791  25.9012723  39.3705164
   4.6306863  26.7957443  38.4222862   4.3674146  26.6328533  39.1428280
  14.5004892  28.5895873  33.3905144  14.2539606  28.5091624  34.2241933
  14.8290015  27.8049341  33.1967672  14.5126136  28.4622138  33.4852668
  18.3952941  35.2979232  37.1791926  18.2567300  35.9960278  37.6840668
  17.6152939  35.1427889  36.8228107  18.2596168  35.3779399  37.2018200
  16.7331026  31.5975608  43.4314307  16.7279064  30.7255424  43.4356734
  17.4392020  31.7963777  42.9583763  16.8376030  31.4979482  43.3621343
  10.4601919  31.3252591  42.8028128  10.6045295  31.9053800  42.1671238
  10.8077568  31.7028888  43.5077982  10.5329381  31.4673295  42.8127122
  12.6321837  30.5242760  40.5853259  11.8845151  30.7173774  40.1801537
  12.7863362  29.6987979  40.3477380  12.5444264  30.4307871  40.4898665
   9.5329674  39.5155363  39.6689154   9.6819238  38.9558279  39.0162559
  10.3129676  39.5947365  40.0521673   9.6703768  39.4440929  39.6286104
  19.8906314  34.6557486  27.9408425  19.5113122  33.8694624  27.9337714
  19.2272559  35.2044343  27.7980069  19.7364788  34.6202310  27.9189222
  12.8723614  24.4193310  41.4748663  13.3296228  25.1517285  41.6021455
  12.9479942  23.9959776  42.2335919  12.9514584  24.4650549  41.6049739
   5.1156605  24.6659130  42.5638107   4.5798794  24.0539488  42.8798874
   5.1774370  25.2407266  43.2171773   5.0452238  24.6606058  42.7073533
  17.3450940  17.5983186  35.3442506  17.4634508  18.0559649  34.6109809
  17.1713115  16.7928447  35.0578723  17.3370111  17.5476958  35.1943439
  12.7153222  38.2071005  31.7797251  13.4803113  37.9380649  31.4579915
  12.6131312  37.7221015  32.4967314  12.8134717  38.0960570  31.8377079
  10.7505992  26.4095414  38.3190487   9.9602066  26.2286875  38.6407823
  11.1466614  25.6322367  38.3020781  10.6922868  26.2682875  38.3643035
  15.2371882  35.2383189  23.7597200  16.0044868  35.2983314  23.3503052
  14.7903191  34.6663630  23.2753519  15.2845310  35.1619764  23.6274911
  16.1349678  34.0437845  36.0449933  15.4594680  33.8123077  36.5463320
  16.1442054  33.4359028  35.4192038  16.0368182  33.9196770  36.0266085
  13.2643822  28.8855674  42.8013986  13.2002963  29.7465630  42.6734123
  13.4041010  28.5687667  42.0009537  13.2759292  28.9655840  42.6642199
  18.1366412  36.9002977  28.2760111  18.2186250  37.7069963  27.9521562
  18.6216155  36.9198936  29.0000884  18.2203570  37.0223639  28.3347009
  11.9462916  31.5787813  36.9430189  11.5225165  31.7792312  36.2069207
  11.7707771  30.7316661  37.0554489  11.8573796  31.4836594  36.8503879
   7.2345361  32.0739864  32.3758161   7.3909980  32.0086667  33.2314153
   7.5745954  32.8488417  32.1636841   7.3078596  32.1789062  32.4712755
  13.7724505  31.4497748  31.2451524  14.3140051  30.9468129  31.7090145
  14.0871064  31.3962943  30.4341010  13.8988902  31.3677169  31.1935337
  11.9410955  36.8415099  28.5291552  12.0103775  35.9829638  28.6684553
  12.7199410  37.0586980  28.2010577  12.0663805  36.7467963  28.5008710
  14.9213775  26.3434052  41.2973825  15.1355744  25.7044967  40.7437179
  14.3047674  26.7879876  40.8681687  14.8619104  26.3144196  41.1524256
  16.3318443  39.2652801  32.7428046  15.9398234  38.9619516  32.0250912
  16.4871515  40.1021891  32.5533000  16.2972032  39.3436637  32.6084543
   3.8079622  29.2574815  32.6918928   4.1878587  29.6759360  32.0279196
   3.2334987  29.8388270  32.9987772   3.7790947  29.4052674  32.6395669
  17.0852863  27.9523118  42.2357132  16.2729544  27.6449008  42.3170305
  17.5442797  27.4722118  42.7999844  17.0333248  27.8359610  42.3311726
  16.4958117  35.8302790  32.6834076  16.1372772  36.0017432  33.4598109
  16.0096828  36.2915995  32.1262075  16.3716814  35.9241761  32.7159345
  14.3128503  19.4533988  36.2861168  13.4422061  19.4272709  36.2394477
  14.5668845  19.2811180  35.4687013  14.2222063  19.4244132  36.1581304
  11.2846483  31.5101955  25.2234311  11.5739008  32.2866837  25.4977885
  11.3718282  30.9990686  25.9248810  11.3400739  31.5493873  25.3676809
  14.1806370  29.3583189  47.0185834  14.6506001  29.9825305  47.4053708
  14.2268250  28.6900165  47.5779049  14.2574246  29.3517869  47.1585906
  11.3377644  21.4640216  37.7434638  10.8216132  20.7720408  37.8686217
  10.7771573  22.1310994  37.6897237  11.1784157  21.4603474  37.7540704
  13.4069877  22.0033177  39.5727491  13.0201630  22.0282208  40.3541021
  12.9202815  21.4374855  39.1202007  13.2782386  21.9228927  39.6215394
  17.6562857  36.7206686  43.6301277  18.2942577  36.2266881  43.2963733
  17.0136948  36.6484086  43.0453504  17.6557083  36.6365694  43.4943632
  19.3819857  28.5695831  38.1967193  18.9547465  28.4822180  37.4415292
  18.7445910  28.6773607  38.7822037  19.2249464  28.5728491  38.1712634
  13.0727019  18.8900162  41.8637751  13.7020137  19.4260462  41.5858821
  13.2412882  18.7977521  42.7151316  13.1904814  18.9561524  41.9486279
  12.8740934  23.6771357  44.1364162  13.7014363  23.4056506  44.1922777
  12.8948780  24.4732198  44.4927980  12.9993784  23.7551111  44.1979345
  17.7117113  37.4126494  40.2706634  18.5009492  37.0615559  40.3908716
  17.8860711  38.2262882  40.0083268  17.8537395  37.4812351  40.2494502
   7.4510424  30.8235220  37.3234423   6.6098430  30.7239094  37.5313317
   7.6600432  31.5930700  37.6748743   7.3575116  30.9227263  37.4061738
   4.9285991  28.4454756  35.1519173   4.5342688  28.5197768  34.3769283
   4.3726108  28.8312703  35.7027535   4.7888803  28.5136531  35.1186833
  16.5650938  21.4236050  34.8323052  16.7700531  21.3558358  35.6780050
  16.2377362  22.2294872  34.7644230  16.5466185  21.5321991  34.9482708
  11.2627089  28.7516619  36.5732020  10.9590226  28.1972607  37.1742428
  10.5606509  28.9308829  36.0860055  11.1143298  28.6961401  36.5901726
  10.3193186  26.0617139  31.1376722  10.5952920  25.3436051  30.7254290
  10.9191855  26.6602058  30.9297828  10.4486450  26.0437509  31.0457483
  19.8184625  21.9767815  34.3125818  19.2058939  22.4638217  34.6979550
  19.9148800  21.3011306  34.8563469  19.7422523  21.9486123  34.4504676
  13.8203706  23.7330656  29.4123317  14.2747453  23.9041216  30.1371162
  14.2943752  23.1198767  29.0121093  13.9572026  23.6681541  29.4597079
   7.3419232  33.2178982  38.7426056   6.7507165  33.8588480  38.7129071
   8.1040255  33.6416599  38.7157355   7.3667492  33.3754820  38.7341203
   7.7379854  24.3780980  39.4094073   8.1981336  24.4519909  40.1469197
   7.7835961  25.1762234  39.0593895   7.8130410  24.5075127  39.4666830
   9.3863204  25.0447674  43.9766100   8.9948769  24.3981022  44.4121878
   9.5549067  25.6359110  44.5960356   9.3534115  25.0361942  44.1328806
  23.4609653  33.0484752  39.7403334  23.5192777  33.4971400  40.4863310
  22.8276121  33.4583564  39.3033414  23.3760948  33.1758486  39.7855882
  17.1008748  38.6688293  36.1758080  16.9028437  39.1579108  35.4814292
  16.4796459  38.8729535  36.7542214  16.9796312  38.7704832  36.1581303
  11.1616726  30.4373190  30.5168324  11.9058771  30.8247467  30.7551274
  11.3077422  29.5930616  30.6808812  11.2927311  30.3703663  30.5762294
  13.0796302  22.2323449  35.5500186  12.2332347  22.4046257  35.4241536
  13.0767434  21.4272793  35.8866014  12.9543452  22.1384478  35.5811313
  14.1494602  26.0098664  36.4162244  13.6754556  25.4840426  36.9267555
  14.5212738  25.4628136  35.8477105  14.1344491  25.8514660  36.4077391
   4.5267632  28.0070170  41.7845790   5.3893245  27.9065879  41.6983119
   4.1959415  27.4264880  41.2231362   4.6052829  27.9061797  41.6891195
  20.4131333  31.0701039  37.8269024  20.1729556  30.2307454  37.8311451
  20.8923340  31.1501206  38.5509798  20.4483516  30.9582439  37.9343827
  22.4136520  27.8502496  35.7798283  22.1746290  27.8098331  34.9419068
  22.5770421  28.6973648  35.9064005  22.4026823  27.9694581  35.6751765
  19.0182550  32.2352446  41.7103329  19.7416749  31.7824972  41.5314348
  18.7532512  32.5157111  40.9275656  19.0863823  32.2103414  41.5682044
   7.8869418  26.8312619  38.4456208   7.2622488  26.8431011  37.8382160
   7.5515013  27.3072794  39.0947448   7.7454910  26.9031136  38.4512776
   8.0711167  25.1737738  24.5028893   7.7223971  25.8257463  24.9660442
   7.5907613  25.1594851  23.7752764   7.9481411  25.2680791  24.4639984
  15.6315184  35.4738782  28.6097655  16.3549383  35.9396895  28.4662228
  15.1915775  35.5412391  27.8595252  15.6730876  35.5522618  28.4782436
  14.8001339  32.3336324  39.8598344  14.1858332  31.7894374  40.1546979
  15.3168624  31.8200560  39.3804160  14.7857002  32.1772733  39.8322572
  14.0397637  33.4040594  37.5942642  13.6125245  32.7790313  37.1608078
  14.0322581  33.1215516  38.4201649  13.9756778  33.2693375  37.6522470
   7.1560164  28.4405767  40.6631076   7.3153650  27.6849091  41.0682798
   6.9753057  28.9896707  41.3171814   7.1525523  28.4099581  40.8193782
  15.0980467  20.6067003  41.2181866  14.6021028  20.8030677  40.5273432
  15.8549529  21.0059671  41.0470667  15.1367291  20.6944736  41.0902002
  12.3683346  24.2809349  37.8085176  12.3925833  23.7469461  37.1197956
  12.6194820  23.7726657  38.4710767  12.4093265  24.1270252  37.8049821
   8.6484668  23.0080167  37.1890921   8.6883040  23.5089373  37.9025628
   7.8234333  23.0990560  36.9196844   8.5324194  23.0961983  37.2541459
  10.0699032  29.5240677  39.4864820   9.2390961  29.6914495  39.2800068
  10.0150549  29.1476627  40.2713705   9.9388447  29.4930408  39.5713348
   8.4435076  27.7996268  30.0154937   8.5838037  28.2968732  30.7183579
   8.9417608  27.0982563  30.1569151   8.5376157  27.7698247  30.1406516
   8.4735298  28.6663379  27.3447514   9.1080377  29.2623804  27.2796976
   8.5560909  28.3666837  28.1593384   8.5791849  28.7104287  27.4550601
  21.4517864  31.1978857  40.2133878  22.0435704  31.8376107  40.2452076
  21.8876858  30.5001893  40.5025945  21.6036295  31.1897207  40.2614711
  10.0514281  24.5977355  27.3192956  10.3730122  24.1180437  26.6652218
  10.3141225  25.4077001  27.1283768  10.1380306  24.6467252  27.1948448
  13.2811254  35.6196229  40.8391772  12.7736345  36.1732076  41.2832403
  12.9837900  35.6804519  40.0210547  13.1616139  35.7102540  40.7840229
  15.4473436  23.9849549  39.6816435  15.8728507  23.5322075  39.0699962
  14.8330429  23.4309619  39.9581223  15.4202081  23.8363525  39.6321460
   4.9788286  30.8631220  30.6137060   5.4880515  31.4595727  30.9948366
   5.4522558  30.5957194  29.9313480   5.1231662  30.9117035  30.5691583
  15.8919034  39.5359487  28.7695716  15.1748344  39.3620349  28.3042953
  16.5425772  39.3012059  28.2371202  15.8820884  39.4755279  28.6224934
  13.8867659  20.4564648  33.0907012  13.2435977  20.3062295  33.6592151
  13.5467066  20.2106994  32.3256117  13.7412736  20.3976771  33.0610027
  12.5253739  40.5520787  37.7448779  12.3019393  39.7939616  38.1132805
  12.0363582  40.5818808  37.0229219  12.4197188  40.4443012  37.6925520
  18.6395133  24.8679959  35.4227394  18.9922743  24.4409682  36.0973193
  17.7809934  24.7830802  35.5528470  18.5644577  24.7924699  35.5422404
   7.3378818  27.4987478  33.4810241   6.6190807  27.9151611  33.7483104
   7.7091180  28.0641717  32.9301879   7.2870749  27.6436760  33.4393048
  16.6378398  28.1315327  39.3712236  16.6176326  27.9498623  40.2247015
  16.6857599  29.0027346  39.3471820  16.6413039  28.2331866  39.4935531
  14.5824728  34.7202519  45.2960713  14.5420583  34.0752196  44.7105869
  15.3948047  34.6639137  45.6086125  14.6967882  34.6161486  45.2557662
  11.1732196  40.7721245  35.1985864  10.7592594  40.1095376  34.8089705
  11.8579570  40.9199104  34.6781558  11.2130568  40.6961903  35.0642361
  14.5397490  39.9311331  35.9509480  14.1413773  40.0413601  35.1830301
  13.9248710  40.1393397  36.5336040  14.3896379  39.9784899  35.9240780
  13.1125392  26.5385478  28.8183620  12.5190231  26.8602475  28.2668187
  13.1500670  25.6926574  28.6104726  13.0299781  26.4609807  28.7066391
  20.0719193  19.9898371  36.3511707  19.5650057  19.2827510  36.2832884
  20.8686626  19.6591559  36.4812783  20.1146432  19.8371522  36.3610701
  10.2702437  28.3499456  41.8510470   9.7581340  27.7420639  42.2095502
  10.0981933  29.0656048  42.3184446  10.1692074  28.3662755  41.9726694
   9.0427971  25.0341529  33.5439566   9.5185337  25.3958609  32.9089747
   8.5416571  25.6897997  33.8239709   9.0393330  25.1835718  33.4916307
  22.2739333  34.5063297  29.3352571  22.6572938  35.2554653  29.5650668
  21.4783446  34.7529117  29.0764560  22.2133115  34.6532991  29.3310144
  14.1471507  26.2723701  44.2912726  14.7042938  26.0437510  43.6591191
  13.8232572  27.0329366  44.0147938  14.1817918  26.3507537  44.1569223
  11.8654625  29.3591354  45.2564733  12.6165952  29.6743031  45.5704287
  12.0577201  29.1570525  44.4298655  12.0046039  29.3758736  45.1808129
  11.0854624  27.1782729  26.9112950  11.4653589  27.1962358  26.1264065
  10.3447220  27.6236718  26.7903797  11.0323462  27.2464504  26.7776518
   0.7757186  28.9104705  36.9147345   0.5978947  28.4581314  37.6402261
   0.4876208  29.7130866  37.0985823   0.7070139  28.9627262  37.0490848
  16.4380767  30.1662422  36.1524735  16.9334432  29.4485417  36.1128756
  15.6280543  29.8633220  36.0379222  16.3924660  30.0160068  36.1298461
  11.8839378  34.0160235  28.3021740  11.0750701  33.6926909  28.2555049
  12.3914287  33.3093457  28.2349989  11.8389045  33.8641552  28.2852034
   2.5129656  31.4432428  34.0269104   1.6475175  31.4318119  33.9151875
   2.6128471  31.2562651  34.8740243   2.4003823  31.4138490  34.1358049
  18.5032586  32.9166109  38.8401864  18.9287657  32.3940531  38.2872289
  18.1389506  33.5146947  38.3190487  18.5119188  32.9276337  38.6810874
  15.0911185  36.6300374  35.1703022  15.5622363  37.3440636  35.3393007
  15.4271364  36.0299124  35.7062891  15.2106300  36.6471838  35.2735398
  12.0080680  21.4027844  42.1261116  12.1408586  20.6058838  42.4542092
  12.3925833  21.9294247  42.7059392  12.0837009  21.3627761  42.2604619
  15.7285131  36.4218308  41.9330714  15.1806077  35.7976192  41.6650780
  16.1898160  36.6112580  41.2174794  15.7152341  36.3577358  41.7881145
  15.0813035  18.3258170  38.7242210  14.2758999  18.2155900  39.0410048
  14.9519771  18.4270626  37.8672076  14.9433168  18.3241841  38.6450250
  18.5378996  24.4903662  39.3181907  17.9541985  24.9912869  38.9059474
  18.8583290  23.9833219  38.6846230  18.4992171  24.4895497  39.1640414
  11.0773795  23.4044257  29.5940581  11.8989489  23.5742570  29.3522276
  10.6143446  23.5591518  28.8706879  11.1304957  23.4525990  29.4512226
   9.6669127  21.3987019  40.3739010  10.2113540  21.0578146  40.9643352
   9.7206063  22.2572481  40.5160295   9.7558246  21.4742279  40.4820884
   5.4799686  35.1603435  37.2477818   6.0844543  35.1199270  36.6191639
   5.2726998  36.0074587  37.2781874   5.5388583  35.2791438  37.1593935
  15.2943458  37.4269381  38.4640056  16.1141832  37.2832347  38.7256351
  15.0137535  38.0515579  39.0056493  15.3740201  37.4979733  38.5827995
  31.7657108  45.0834232  31.4282932  31.7351112  45.9378869  31.6001201
  32.3638457  44.7829525  31.9869075  31.8494266  45.1650729  31.5357734
  24.9656793  44.1709883  36.1835862  24.1094688  44.3318382  36.2344979
  25.0124447  43.3001947  36.2040923  24.8455904  44.0660685  36.1941928
  29.5873683  47.6586534  29.7001242  29.4713209  48.4094220  30.1293380
  30.3829569  47.4010488  29.9497329  29.6878272  47.7321381  29.8005333
  16.4237821  41.9097011  36.7372508  15.8042852  41.3189658  36.5682522
  16.3221684  42.5008446  36.1036831  16.3175496  41.9101093  36.6177497
  23.5205716  43.6496552  31.0704971  24.2185881  43.8284680  31.5626434
  23.8358049  43.1266892  30.4475360  23.6701053  43.5990324  31.0506981
  21.6932580  39.0188949  35.1526245  21.3635910  39.4700093  34.4829944
  21.0177582  38.9405112  35.6999252  21.5443016  39.0740084  35.1349469
  28.9008988  35.0074472  33.3975856  28.5862429  35.6977950  33.8296278
  28.3835929  34.9519254  32.6961357  28.7773458  35.1009360  33.3572805
  28.2421421  45.0078973  29.5113267  27.7132893  45.2238606  30.1710573
  28.7646441  45.7015111  29.4314236  28.2409874  45.1422110  29.5968866
  24.5898244  45.1507842  26.7889655  24.8294247  45.3585825  25.9764998
  24.9114085  44.3465350  26.8978600  24.6735402  45.0621943  26.6850208
  19.8988534  37.0801237  30.6349193  20.6534502  37.4479554  30.3966243
  19.7216068  37.4540792  31.4028373  19.9843012  37.1899425  30.7134082
  18.2545599  39.4871556  27.3327306  18.0721172  39.7043437  26.5068299
  19.1171212  39.6010569  27.3885921  18.3550188  39.5361454  27.2181793
  23.9345318  36.4897967  30.3676330  24.6631478  36.3113922  29.9214486
  24.0240211  37.3316047  30.5783508  24.0551980  36.5881845  30.3329848
  27.9153618  47.4251354  34.2708624  28.6711133  47.8582869  34.3097533
  28.0215943  46.7756124  34.8443260  28.0423789  47.3928838  34.3606650
  30.8731272  38.2938459  37.2640455  31.5157181  38.3636564  37.8502370
  31.1254293  37.6267682  36.7619997  31.0053405  38.2064808  37.2767734
  17.8007626  42.7645729  25.8449779  17.0865803  42.4783908  26.2572212
  18.2851594  43.1042355  26.4856167  17.7666989  42.7727379  26.0005414
  32.2033423  47.8272600  31.4912257  32.5341640  48.3600240  30.8852352
  32.7766511  47.8811488  32.1474208  32.3367102  47.9142169  31.4990038
  27.4165312  45.6737503  32.1735837  27.5112167  46.4126797  32.6275462
  26.7924156  45.2454978  32.6070401  27.3374342  45.7198823  32.3043984
  27.6688334  47.5186242  25.4072789  27.5868496  47.5888430  26.2727776
  28.3068054  48.0815986  25.2156530  27.7508171  47.6125213  25.5062738
  26.1082555  39.3875431  34.9751408  25.4038882  38.8984617  35.1335327
  26.1567529  39.3997905  34.1039852  26.0112606  39.3165079  34.8690748
  20.0016217  44.8384743  35.3612210  19.4265808  44.9976911  35.9976171
  19.6251893  44.2020152  34.8980660  19.8619029  44.7682556  35.3866768
  33.3112775  43.0683097  32.9952418  33.0549340  42.2563038  32.8050301
  34.1542089  43.0760664  32.7682606  33.3978800  42.9495094  32.9337235
  27.4915867  37.0082721  37.7328573  27.8726379  36.3260892  38.1196447
  26.6879151  36.7192323  37.5504237  27.4292329  36.8649769  37.7632628
  24.7728444  47.5406697  28.4181395  25.5869083  47.8321589  28.3064167
  24.7087585  46.8866559  27.8439688  24.8831183  47.4871891  28.3170233
  19.0039604  37.9027441  33.2137377  18.1362030  37.9750040  33.2794987
  19.2914809  38.7049519  33.4025352  18.9179353  38.0321588  33.2512144
  29.2063170  43.6610862  35.6058800  28.8627936  42.9401197  35.9566050
  29.3056213  43.4524713  34.7637159  29.1705213  43.5235065  35.5330480
  16.9306957  41.3785700  30.6554254  16.6431752  41.0086970  29.9186201
  17.6177425  41.8480555  30.3937958  16.9895854  41.3932669  30.5069329
  19.7660628  45.2438648  32.1021658  20.4883280  45.4079806  31.6425464
  19.2868621  45.9648313  31.9960998  19.8024359  45.3736878  32.0187272
  27.7254136  41.5802447  37.4818343  26.8865236  41.6063726  37.2456606
  27.7958503  42.2273182  38.0623690  27.6122529  41.6798573  37.5327460
  26.1723414  38.4787824  32.2145959  26.8749767  38.2795572  31.7365917
  25.9067603  37.7063766  32.5214803  26.2370046  38.3350790  32.1891401
  14.5035151  42.1566912  31.5039535  14.6051288  42.9593074  31.8320510
  15.2991038  41.9554248  31.2062615  14.6363057  42.2452811  31.5074890
  20.9351970  39.7423109  41.2676840  20.7435167  39.7578243  42.1176263
  21.7850566  39.9386783  41.2443495  21.0327692  39.7737460  41.3900134
  15.3198883  42.2714091  39.2460656  15.1784375  41.4198031  39.3705164
  15.6039447  42.3142751  38.4222862  15.3406729  42.1513841  39.1428280
  25.4737476  44.1081181  33.3905144  25.2272190  44.0276932  34.2241933
  25.8022599  43.3234649  33.1967672  25.4858719  43.9807446  33.4852668
  16.0889188  40.1844438  42.5638107  15.5531378  39.5724796  42.8798874
  16.1506953  40.7592574  43.2171773  16.0184821  40.1791366  42.7073533
  28.3183523  33.1168494  35.3442506  28.4367091  33.5744957  34.6109809
  28.1445699  32.3113755  35.0578723  28.3102694  33.0662266  35.1943439
  21.7238575  41.9280722  38.3190487  20.9334650  41.7472182  38.6407823
  22.1199198  41.1507675  38.3020781  21.6655451  41.7868183  38.3643035
  24.7457089  46.9683056  31.2451524  25.2872634  46.4653437  31.7090145
  25.0603648  46.9148251  30.4341010  24.8721486  46.8862477  31.1935337
  25.2861087  34.9719296  36.2861168  24.4154645  34.9458017  36.2394477
  25.5401428  34.7996488  35.4687013  25.1954647  34.9429440  36.1581304
  22.3110227  36.9825524  37.7434638  21.7948716  36.2905716  37.8686217
  21.7504156  37.6496301  37.6897237  22.1516741  36.9788782  37.7540704
  24.3802461  37.5218484  39.5727491  23.9934214  37.5467516  40.3541021
  23.8935398  36.9560163  39.1202007  24.2514970  37.4414235  39.6215394
  24.0459603  34.4085470  41.8637751  24.6752721  34.9445770  41.5858821
  24.2145465  34.3162829  42.7151316  24.1637397  34.4746832  41.9486279
  15.9018574  43.9640064  35.1519173  15.5075272  44.0383076  34.3769283
  15.3458691  44.3498011  35.7027535  15.7621387  44.0321839  35.1186833
  27.5383521  36.9421358  34.8323052  27.7433114  36.8743666  35.6780050
  27.2109945  37.7480180  34.7644230  27.5198769  37.0507299  34.9482708
  22.2359672  44.2701927  36.5732020  21.9322810  43.7157915  37.1742428
  21.5339093  44.4494137  36.0860055  22.0875882  44.2146709  36.5901726
  21.2925769  41.5802446  31.1376722  21.5685504  40.8621359  30.7254290
  21.8924439  42.1787366  30.9297828  21.4219034  41.5622817  31.0457483
  30.7917209  37.4953123  34.3125818  30.1791522  37.9823525  34.6979550
  30.8881384  36.8196614  34.8563469  30.7155106  37.4671431  34.4504676
  24.7936290  39.2515964  29.4123317  25.2480036  39.4226524  30.1371162
  25.2676336  38.6384074  29.0121093  24.9304610  39.1866849  29.4597079
  18.7112438  39.8966287  39.4094073  19.1713920  39.9705217  40.1469197
  18.7568545  40.6947542  39.0593895  18.7862993  40.0260435  39.4666830
  22.1349310  45.9558498  30.5168324  22.8791355  46.3432774  30.7551274
  22.2810006  45.1115924  30.6808812  22.2659895  45.8888971  30.5762294
  24.0528885  37.7508757  35.5500186  23.2064930  37.9231565  35.4241536
  24.0500018  36.9458101  35.8866014  23.9276035  37.6569786  35.5811313
  25.1227186  41.5283971  36.4162244  24.6487140  41.0025734  36.9267555
  25.4945321  40.9813444  35.8477105  25.1077075  41.3699968  36.4077391
  15.5000216  43.5255478  41.7845790  16.3625829  43.4251187  41.6983119
  15.1691999  42.9450187  41.2231362  15.5785412  43.4247105  41.6891195
  27.0510685  42.4220526  29.4787998  26.5233704  42.5049270  28.7893706
  27.5106393  43.1638398  29.4752642  27.0412536  42.5441188  29.3762693
  18.8602002  42.3497927  38.4456208  18.2355072  42.3616319  37.8382160
  18.5247597  42.8258102  39.0947448  18.7187494  42.4216444  38.4512776
  19.0443750  40.6923046  24.5028893  18.6956555  41.3442771  24.9660442
  18.5640196  40.6780159  23.7752764  18.9213994  40.7866099  24.4639984
  26.0713050  36.1252311  41.2181866  25.5753611  36.3215985  40.5273432
  26.8282112  36.5244979  41.0470667  26.1099875  36.2130044  41.0902002
  23.3415930  39.7994656  37.8085176  23.3658417  39.2654769  37.1197956
  23.5927403  39.2911965  38.4710767  23.3825848  39.6455560  37.8049821
  19.6217252  38.5265475  37.1890921  19.6615624  39.0274681  37.9025628
  18.7966917  38.6175868  36.9196844  19.5056778  38.6147291  37.2541459
  19.4167659  43.3181576  30.0154937  19.5570620  43.8154040  30.7183579
  19.9150192  42.6167870  30.1569151  19.5108740  43.2883555  30.1406516
  19.4467882  44.1848687  27.3447514  20.0812961  44.7809112  27.2796976
  19.5293492  43.8852145  28.1593384  19.5524433  44.2289595  27.4550601
  21.0246864  40.1162662  27.3192956  21.3462706  39.6365745  26.6652218
  21.2873808  40.9262309  27.1283768  21.1112890  40.1652560  27.1948448
  26.4206019  39.5034856  39.6816435  26.8461091  39.0507383  39.0699962
  25.8063013  38.9494927  39.9581223  26.3934665  39.3548833  39.6321460
  24.8600242  35.9749956  33.0907012  24.2168560  35.8247603  33.6592151
  24.5199649  35.7292302  32.3256117  24.7145320  35.9162079  33.0610027
  29.4499589  43.9309383  32.5137021  28.7790779  44.4739085  32.3850086
  30.1439339  44.4004238  32.2718716  29.4528456  44.0807654  32.4592549
  29.6127716  40.3865267  35.4227394  29.9655326  39.9594990  36.0973193
  28.7542518  40.3016110  35.5528470  29.5377161  40.3110007  35.5422404
  18.3111401  43.0172786  33.4810241  17.5923390  43.4336919  33.7483104
  18.6823764  43.5827025  32.9301879  18.2603333  43.1622068  33.4393048
  24.0857976  42.0570786  28.8183620  23.4922815  42.3787783  28.2668187
  24.1233253  41.2111882  28.6104726  24.0032365  41.9795115  28.7066391
  31.0451776  35.5083679  36.3511707  30.5382641  34.8012818  36.2832884
  31.8419210  35.1776867  36.4812783  31.0879016  35.3556830  36.3610701
  26.9615792  42.0150291  32.2485370  26.7329485  42.0382992  31.4063728
  27.2213868  41.1907758  32.3680381  26.9661980  41.8966371  32.1410568
  20.0160555  40.5526837  33.5439566  20.4917921  40.9143917  32.9089747
  19.5149154  41.2083305  33.8239709  20.0125914  40.7021026  33.4916307
  22.0587208  42.6968037  26.9112950  22.4386173  42.7147666  26.1264065
  21.3179804  43.1422026  26.7903797  22.0056046  42.7649812  26.7776518
  29.6872498  41.0050228  32.4988529  29.6866725  40.8498885  33.3572805
  29.4828678  41.8513215  32.4429914  29.6572276  41.1070849  32.6176468
  27.4113350  45.6847730  36.1524735  27.9067016  44.9670725  36.1128756
  26.6013126  45.3818528  36.0379222  27.3657244  45.5345376  36.1298461
  22.9813264  36.9213152  42.1261116  23.1141169  36.1244146  42.4542092
  23.3658416  37.4479555  42.7059392  23.0569593  36.8813069  42.2604619
  26.0545619  33.8443478  38.7242210  25.2491583  33.7341208  39.0410048
  25.9252354  33.9455934  37.8672076  25.9165752  33.8427148  38.6450250
  22.0506379  38.9229565  29.5940581  22.8722073  39.0927878  29.3522276
  21.5876029  39.0776826  28.8706879  22.1037541  38.9711298  29.4512226
  20.6401710  36.9172327  40.3739010  21.1846123  36.5763454  40.9643352
  20.6938646  37.7757789  40.5160295  20.7290830  36.9927587  40.4820884
  20.4875349   6.5027056  18.3622979  20.4569353   7.3571692  18.5341248
  21.0856697   6.2022348  18.9209122  20.5712506   6.5843552  18.4697781
  13.6875033   5.5902707  23.1175909  12.8312929   5.7511205  23.1685026
  13.7342687   4.7194771  23.1380970  13.5674145   5.4853508  23.1281975
   8.0716173  15.1265424  18.8813141   7.3199073  14.7480963  18.6529186
   8.5202185  15.1583858  18.1331951   8.0265840  15.0751032  18.7370643
  16.9968750  11.8589232  32.7236365  17.7035517  11.3641263  32.8523300
  17.1856685  12.2998314  31.9939023  17.1296656  11.8507583  32.6345411
  13.5241133  15.5490794  14.3098688  13.1892501  16.2267716  13.8742910
  14.0368003  15.1596105  13.7215559  13.5506714  15.5915372  14.1585479
  13.0645424  17.5005063  20.2509799  13.4484804  18.0691961  19.7114575
  13.0004565  16.7754573  19.7715615  13.1118851  17.4780526  20.1003662
  16.5326854   7.6494750  25.7607561  17.0782814   8.3279837  25.8201530
  16.4743731   7.5082211  24.9009142  16.6042769   7.7286752  25.6419621
   9.6500929  15.1383817  21.1475913   9.7511292  14.3284171  21.4573041
   9.0542674  15.0440763  20.5175592   9.5773468  15.0048845  21.1002152
  18.3091923   9.0779358  16.6341289  18.1931449   9.8287044  17.0633427
  19.1047810   8.8203311  16.8837376  18.4096512   9.1514204  16.7345380
   9.4901669  20.0561406  22.5490769  10.1339124  20.4974570  22.9386928
   9.8157924  19.2514832  22.4621028   9.6333498  20.0026600  22.5936246
   2.8465974  11.1604103  20.7728247   2.6116158  10.3271756  20.6660516
   2.9851614  11.4408769  19.9589448   2.8321636  11.0787607  20.6370602
  10.1922249  13.0673381  17.9210631  10.5138090  13.6078588  17.3171939
  10.8394345  12.4970152  18.0532921  10.3348304  13.0632556  17.8517666
  12.2423957   5.0689376  18.0045018  12.9404121   5.2477503  18.4966481
  12.5576289   4.5459715  17.3815407  12.3919294   5.0183148  17.9847028
   4.8725194   6.8742115  25.9156124   4.7483891   7.4604561  26.5505942
   5.5243479   6.3802311  26.2168398   4.9498843   6.8880920  26.0542053
  12.4311892  11.4559821  17.9924809  12.8705527  10.8476921  18.4379582
  12.2816555  11.0767194  17.2210274  12.4733358  11.3098292  17.9443976
   9.8983535  10.0503832  25.1943635  10.5432538   9.5576276  24.8754583
  10.1385312  10.1928619  26.0209713  10.0294120   9.9981275  25.2693168
  12.4369626  12.8958738  24.8450527  12.7192869  12.1010144  24.6237283
  13.1655787  13.3739326  24.8655588  12.5859190  12.8493335  24.8153542
  10.4150820   0.4381772  22.0866292  10.0854150   0.8892916  21.4169991
   9.7395822   0.3597936  22.6339299  10.2661257   0.4932907  22.0689516
  16.0321229   9.8087002  14.9455578  15.9472524  10.6647969  15.0905147
  16.5205612   9.5331326  15.6137737  16.0910126   9.8944323  15.0657660
  16.9639662   6.4271796  16.4453313  16.4351133   6.6431430  17.1050620
  17.4864682   7.1207934  16.3654283  16.9628115   6.5614933  16.5308913
  22.4187715  12.0018100  21.8186358  21.5885418  12.2128744  21.9819774
  22.3696967  11.1755155  21.5428642  22.2894450  11.9107707  21.8023723
   8.8539270  10.3235013  15.2460781   8.2696485  10.8285044  15.6526645
   8.4509365  10.0977400  14.5057373   8.7078573  10.3643261  15.1965807
   4.4083298  16.0389774  22.0484453   3.9250876  16.7640264  22.0244037
   5.2206616  16.3365904  22.1594611   4.4574046  16.1892128  22.0611732
  10.4797452  14.8321955  24.6534267   9.9624394  14.4729370  24.0495576
  11.1771844  14.3084129  24.6640334  10.5063033  14.7019643  24.5664526
  14.1361044  15.2816769  30.6150440  14.2244390  15.0942909  31.4628651
  14.5650757  14.6354198  30.2155287  14.2123147  15.1579776  30.6822192
  11.7031504  14.5647929  29.5968103  11.1402339  14.1520538  30.1207764
  12.4652528  14.4900834  30.0161246  11.7325953  14.4925329  29.7361103
  13.3116484   6.5700665  13.7229702  13.5512488   6.7778649  12.9105045
  13.6332325   5.7658174  13.8318647  13.3953642   6.4814766  13.6190255
   7.2627495  16.5545950  22.2004733   7.9648075  16.0397939  22.2577489
   7.1824979  16.8820101  23.0051608   7.3551256  16.5260176  22.3277525
  21.9141673   4.6488501  25.6136779  21.0770094   4.7190688  25.8484374
  21.8829904   4.6512996  24.7411082  21.7859955   4.6598728  25.5196327
   8.3106402   6.7921537  31.3285148   8.4826906   6.6827431  32.1770429
   8.8475760   7.4375942  31.0916340   8.4151406   6.8713538  31.4190245
   6.5878271  12.7452302  21.7090341   7.4267170  12.9775235  21.7564102
   6.6190040  11.8756613  21.6397376   6.7159988  12.6509248  21.7054986
   7.2130974  13.1653177  26.0103646   7.7529199  13.0224308  26.6807019
   6.5300920  13.5649928  26.3787673   7.1923128  13.2032848  26.1638068
  16.6371859   8.8444178  21.2048671  17.3929374   9.2775692  21.2437579
  16.7434183   8.1948947  21.7783307  16.7642029   8.8121661  21.2946696
  19.6752030  12.6717455  21.9551074  19.2387262  12.6754197  22.7110045
  19.3414945  13.3522954  21.5230651  19.5614650  12.7729911  22.0031906
  14.2481104  14.7125788  33.2794224  15.0321520  14.8256636  33.6449966
  14.0477698  13.8866925  33.4752910  14.3347129  14.6072507  33.3628610
   2.6168119   9.3853468  26.1638068   2.3506534   8.5692585  26.3229058
   2.6306683   9.4306623  25.2933583   2.5792841   9.2710373  26.0591550
  19.5949513  -0.2868717  24.1980502  20.2375421  -0.2170613  24.7842417
  19.8472534  -0.9539494  23.6960044  19.7271645  -0.3742369  24.2107781
  14.4051497  16.6235890  26.9260680  13.6066743  16.3835390  27.1834548
  14.8537508  16.6750283  27.6727727  14.3526108  16.5958281  27.0745604
  22.8096376   9.3898375  20.8470711  23.4712810   8.8289043  20.7466619
  22.1687788   8.8950406  21.1723402  22.8125244   9.2334784  20.8803051
  13.6973184  12.6868506  13.1551634  14.1124332  12.3553530  12.4636130
  12.8665113  12.4537408  13.0271771  13.6361193  12.6039762  13.0342482
   3.0261533  10.1712247  23.4449812   2.8437106  10.1459133  22.5922104
   3.7611202  10.6411185  23.4838721   3.1075597  10.2373609  23.3247731
  19.0961207  10.4063757  20.5882700  19.3316796  10.5508956  19.7609550
  19.2450770  11.1706165  20.9814213  19.1527010  10.5402812  20.5246304
   6.0907284   6.8897250  29.9531921   6.8147257   6.8750281  30.4396816
   6.1923421   7.5992605  29.4553889   6.2125493   6.9921953  29.9510708
  20.9251664   9.2465423  18.4252304  21.2559881   9.7793063  17.8192398
  21.4984752   9.3004311  19.0814255  21.0585343   9.3334992  18.4330085
  13.4652234  10.3696335  34.8180868  12.6725214  10.6839847  35.0033488
  13.5801161  10.5847803  33.9801652  13.3647644  10.4480171  34.7219203
  16.1383553   7.0930326  19.1075884  16.2330407   7.8319620  19.5615509
  15.5142396   6.6647801  19.5410448  16.0592583   7.1391646  19.2384031
  14.3936027  10.2716538  29.7566165  14.9674888   9.6343783  29.9114728
  14.3150830  10.2720621  28.8875822  14.4669261  10.1781650  29.6512575
   2.9932443   7.0505748  23.5948879   3.5705946   6.9142199  24.2341124
   2.2946505   6.5941532  23.8494463   2.9753464   6.9628014  23.7271168
  16.3906574   8.9379066  12.3412836  16.3086737   9.0081253  13.2067823
  17.0286294   9.5008810  12.1496576  16.4726411   9.0318037  12.4402785
   9.7499745   8.7039804  21.8087362   9.4918989   7.8711538  21.7818661
   9.8048228   8.9297417  20.9679862   9.7199523   8.6137575  21.6807499
  14.8300795   0.8068254  21.9091455  14.1257122   0.3177440  22.0675374
  14.8785770   0.8190729  21.0379899  14.7330847   0.7357902  21.8030794
   8.7234457   6.2577566  22.2952257   8.1484049   6.4169734  22.9316218
   8.3470134   5.6212975  21.8320707   8.5837270   6.1875379  22.3206815
  12.3907746   4.7300915  27.1544635  12.0022179   4.3055133  26.4996826
  11.7262444   4.9783065  27.6621662  12.2354674   4.7039636  27.1332503
  22.0331015   4.4875920  19.9292465  21.7767580   3.6755861  19.7390348
  22.8760329   4.4953487  19.7022653  22.1197040   4.3687917  19.8677282
  16.2134107  -1.5724456  24.6668619  16.5944619  -2.2546285  25.0536494
  15.4097392  -1.8614854  24.4844284  16.1510569  -1.7157407  24.6972675
  13.4946684   8.9599520  15.3521442  14.3087323   9.2514413  15.2404213
  13.4305825   8.3059382  14.7779735  13.6049423   8.9064715  15.2510279
  19.7156174  11.6425516  29.7651018  19.4794812  10.8113581  29.6463078
  20.3599403  11.5911123  30.3505862  19.7750845  11.5123204  29.8336911
   9.3654592  12.4321037  20.4793754  10.0028539  12.1932785  21.0245548
   9.7909664  12.6358196  19.7446915   9.5230759  12.4272048  20.4510912
   4.0567235  14.6709374  24.3628058   4.0971380  14.9424225  23.5347838
   4.6161759  15.1951282  24.7785846   4.1450581  14.7885129  24.3019946
  10.0057407   7.6523327  14.8168644  10.3902560   7.4331034  15.5685189
   9.7569028   8.4786273  14.9469720  10.0259480   7.7421473  14.9469720
  20.7392595  11.4269965  25.8279312  20.4338412  12.1598022  26.1892628
  20.0198811  11.0207894  25.5472098  20.5879937  11.4751698  25.8392449
  11.7476064  12.9093460  22.1587540  11.8215073  12.7468632  23.0129390
  12.5645571  13.0983650  21.9148022  11.8792423  12.9130202  22.2485566
  26.4394387   8.0662965  25.1547656  26.3718887   8.0858925  24.2850243
  26.4250050   8.9093293  25.3803327  26.4273144   8.1936700  25.0600133
   5.5081821  13.2551323  19.1881984   4.6819939  13.5013060  19.0616263
   5.5693812  13.1763404  20.0544042   5.3955988  13.2796272  19.2970928
  16.8490734  -0.5301877  28.4788746  17.5944326  -0.7192066  28.0652171
  16.4328038  -0.0043639  27.9202602  16.8975708  -0.4799731  28.3353319
  10.2880650  15.8728203  16.8901014  10.5778949  15.4817184  16.1660240
  11.0184131  16.0544908  17.3306289  10.4387534  15.8422017  16.8483821
  24.2253004   6.8407352  23.4294251  24.7760926   6.2075421  23.6691343
  24.2097120   7.3722744  24.1209755  24.3038201   6.8256300  23.5673109
  10.8775395  10.6745949  27.9754144  10.3787089  11.3861717  28.0539033
  11.6875620  10.9946616  27.9372307  10.9231502  10.8272798  27.9810713
   8.2286566  17.8495585  19.9561164   8.0086861  17.5592940  20.7487831
   8.0081088  17.1910541  19.4279076   8.1634160  17.7095294  19.9950072
   7.1403513   9.9368902  22.2216865   6.8516762   9.3106373  22.7562593
   8.0086861   9.8789189  22.2881546   7.2263765   9.8356446  22.3107820
  17.9281411   5.0803685  22.5398847  17.5846177   4.3594021  22.8906097
  18.0274453   4.8717537  21.6977205  17.8923454   4.9427889  22.4670527
  10.3954521  19.2224975  18.7391856  11.0478579  18.6901418  18.9682882
   9.6980130  18.8693628  19.1259730  10.3885239  19.0914498  18.8304024
   7.3435786  11.5764153  18.1459230   8.0981754  11.9577192  18.3594693
   6.7506399  12.0275297  18.6005927   7.3672500  11.6992980  18.2442109
  18.3894440  11.5429389  18.0822835  18.9552472  12.2022599  17.9981378
  17.7422343  11.8879088  18.5539237  18.3773196  11.6911331  18.1395592
   9.8042453   3.5326993  33.2716443   8.9942229   3.8384773  33.1606285
  10.2817140   4.2532576  33.3869027   9.7545932   3.6841595  33.2723514
   8.6634013  12.7472714  23.5199346   8.1414766  12.8873006  24.2051210
   9.0508033  11.9883379  23.7101463   8.6437714  12.6558238  23.6500422
  14.8601018  14.4868174  17.5059914  14.6187694  13.7536034  17.0986979
  15.0402351  15.0355031  16.8526248  14.8508642  14.4590565  17.3490137
  10.0900338   9.7776733  18.9180837   9.8943121  10.3851468  18.3241140
  10.3134684   9.0844677  18.4372511  10.0934980   9.7654259  18.7596918
   8.4878868   6.6631471  19.0361705   9.2101520   6.8272629  18.5765511
   8.0086861   7.3841136  18.9301045   8.5242599   6.7929701  18.9527319
  16.4472376   2.9995270  24.4158390  15.6083477   3.0256549  24.1796653
  16.5176743   3.6466006  24.9963737  16.3340770   3.0991396  24.4667507
   6.1386485   9.0689544  28.1415845   6.6507582   9.3473797  27.4924605
   5.8522828   9.8078838  28.5078658   6.1721348   9.2191897  28.1005723
  14.8941654  -0.1019353  19.1486006  15.5968007  -0.3011605  18.6705964
  14.6285843  -0.8743411  19.4554849  14.9588287  -0.2456387  19.1231448
  20.3229900   8.2063257  21.7019632  20.2363874   8.3618683  22.5554411
  19.8680380   8.8501332  21.3279037  20.2433157   8.3239012  21.7726739
   9.6570211   1.1615932  28.2016887   9.4653408   1.1771067  29.0516310
  10.5068807   1.3579607  28.1783541   9.7545933   1.1930284  28.3240181
  14.1955716   5.5274004  20.3245191  13.9490430   5.4469755  21.1581980
  14.5240839   4.7427472  20.1307719  14.2076960   5.4000269  20.4192714
  18.0903765  12.2357363  24.1131973  17.9518124  12.9338409  24.6180715
  17.3103763  12.0806020  23.7568154  17.9546992  12.3157530  24.1358247
  16.4281850   8.5353739  30.3654354  16.4229888   7.6633555  30.3696781
  17.1342844   8.7341908  29.8923810  16.5326854   8.4357613  30.2961390
  10.1552743   8.2630723  29.7368174  10.2996119   8.8431931  29.1011284
  10.5028392   8.6407019  30.4418029  10.2280205   8.4051427  29.7467169
  12.3272661   7.4620891  27.5193306  11.5795975   7.6551905  27.1141584
  12.4814186   6.6366110  27.2817427  12.2395088   7.3686002  27.4238712
   9.2280498  16.4533494  26.6029201   9.3770062  15.8936410  25.9502606
  10.0080500  16.5325496  26.9861720   9.3654592  16.3819060  26.5626150
  19.5857138  11.5935617  14.8748472  19.2063946  10.8072755  14.8677761
  18.9223383  12.1422474  14.7320116  19.4315612  11.5580441  14.8529269
  11.7533799  16.6248137  27.8813692  11.6777470  15.9556948  28.4364480
  11.6823658  17.3265925  28.3954358  11.7314406  16.6293045  28.0390540
  12.5674438   1.3571442  28.4088710  13.0247052   2.0895416  28.5361502
  12.6430766   0.9337907  29.1675966  12.6465407   1.4028680  28.5389786
  12.4104046  15.1449136  18.7137298  13.1753937  14.8758780  18.3919962
  12.3082136  14.6599146  19.4307361  12.5085541  15.0338701  18.7717126
  10.4456816   3.3473546  25.2530534   9.6552890   3.1665006  25.5747870
  10.8417438   2.5700498  25.2360828  10.3873692   3.2061007  25.2983082
  14.9322706  12.1761320  10.6937247  15.6995691  12.2361445  10.2843099
  14.4854015  11.6041761  10.2093566  14.9796134  12.0997896  10.5614958
  15.8300502  10.9815976  22.9789980  15.1545504  10.7501208  23.4803367
  15.8392878  10.3737159  22.3532085  15.7319006  10.8574901  22.9606132
  12.9594646   5.8233805  29.7354033  12.8953787   6.6843761  29.6074169
  13.0991834   5.5065798  28.9349584  12.9710116   5.9033971  29.5982245
  17.8317236  13.8381108  15.2100158  17.9137074  14.6448094  14.8861608
  18.3166979  13.8577067  15.9340931  17.9154394  13.9601771  15.2687056
  11.6413740   8.5165944  23.8770236  11.2175989   8.7170443  23.1409254
  11.4658595   7.6694792  23.9894535  11.5524620   8.4214726  23.7843926
  11.1425433  20.0316457  26.3391693  11.6321363  19.3327246  26.1567357
  10.5709665  19.7340327  26.9267750  11.1309963  19.8842681  26.3992734
   6.9296185   9.0117996  19.3098208   7.0860804   8.9464798  20.1654200
   7.2696778   9.7866548  19.0976888   7.0029420   9.1167194  19.4052802
  13.4675329   8.3875879  18.1791571  14.0090875   7.8846260  18.6430192
  13.7821888   8.3341074  17.3681057  13.5939726   8.3055300  18.1275383
  17.3392437  12.5978526  35.2918483  18.1527302  12.3263675  35.4523616
  17.1787403  12.2986066  34.4878679  17.4362385  12.5133452  35.1963889
  11.6361779  13.7793231  15.4631599  11.7054599  12.9207769  15.6024600
  12.4150234  13.9965111  15.1350624  11.7614629  13.6846095  15.4348757
  14.6164599   3.2812184  28.2313872  14.8306568   2.6423098  27.6777226
  13.9998498   3.7258007  27.8021733  14.5569928   3.2522327  28.0864303
  16.0269267  16.2030932  19.6768093  15.6349058  15.8997647  18.9590959
  16.1822339  17.0400022  19.4873046  15.9922856  16.2814769  19.5424590
   3.5030446   6.1952946  19.6258975   3.8829411   6.6137491  18.9619243
   2.9285811   6.7766402  19.9327819   3.4741771   6.3430805  19.5735716
  16.7803687   4.8901249  29.1697179  15.9680368   4.5827139  29.2510352
  17.2393621   4.4100249  29.7339891  16.7284071   4.7737741  29.2651773
  16.1908941  12.7680921  19.6174123  15.8323596  12.9395564  20.3938156
  15.7047652  13.2294126  19.0602122  16.0667638  12.8619892  19.6499392
  10.9797307   8.4480086  12.1574358  11.2689832   9.2244969  12.4317932
  11.0669106   7.9368818  12.8588857  11.0351563   8.4872005  12.3016855
  13.8757194   6.2961320  33.9525881  14.3456825   6.9203437  34.3393755
  13.9219074   5.6278296  34.5119096  13.9525070   6.2896000  34.0925953
  13.1020701  -1.0588692  26.5067538  12.7152454  -1.0339661  27.2881067
  12.6153639  -1.6247014  26.0542054  12.9733210  -1.1392941  26.5555441
  17.3513681  13.6584817  30.5641324  17.9893401  13.1645012  30.2303780
  16.7087772  13.5862217  29.9793551  17.3507907  13.5743825  30.4283679
  19.0770681   5.5073963  25.1307240  18.6498289   5.4200311  24.3755339
  18.4396734   5.6151738  25.7162084  18.9200288   5.5106623  25.1052681
  12.5691758   0.6149488  31.0704209  13.3965187   0.3434637  31.1262823
  12.5899604   1.4110330  31.4268027  12.6944608   0.6929242  31.1319392
  17.4067937  14.3504625  27.2046681  18.1960315  13.9993690  27.3248762
  17.5811535  15.1641013  26.9423315  17.5488219  14.4190482  27.1834549
   7.1461248   7.7613351  24.2574470   6.3049254   7.6617225  24.4653364
   7.3551256   8.5308831  24.6088790   7.0525940   7.8605394  24.3401785
   4.6236815   5.3832888  22.0859220   4.2293512   5.4575899  21.3109330
   4.0676932   5.7690834  22.6367582   4.4839627   5.4514662  22.0526880
  16.2601761  -1.6385818  21.7663099  16.4651355  -1.7063510  22.6120096
  15.9328185  -0.8326997  21.6984277  16.2417009  -1.5299878  21.8822754
  10.9577913   5.6894750  23.5072067  10.6541050   5.1350738  24.1082475
  10.2557333   5.8686960  23.0200101  10.8094122   5.6339532  23.5241773
  10.0144010   2.9995270  18.0716769  10.2903744   2.2814182  17.6594337
  10.6142679   3.5980190  17.8637875  10.1437274   2.9815640  17.9797530
   9.0196264  12.9044471  28.2144165   8.9116619  12.9146533  29.0806223
   9.2292045  13.7299251  28.0249119   9.0346375  13.0285545  28.3148257
  19.5135449  -1.0854054  21.2465865  18.9009763  -0.5983652  21.6319597
  19.6099624  -1.7610563  21.7903516  19.4373347  -1.1135745  21.3844723
  13.5154530   0.6708787  16.3463364  13.9698277   0.8419347  17.0711209
  13.9894576   0.0576898  15.9461140  13.6522850   0.6059672  16.3937126
   7.0370056  10.1557113  25.6766103   6.4457989  10.7966611  25.6469118
   7.7991079  10.5794730  25.6497402   7.0618316  10.3132951  25.6681250
   9.0814028   1.9825806  30.9106147   8.6899593   1.3359153  31.3461925
   9.2499891   2.5737241  31.5300403   9.0484938   1.9740073  31.0668853
  23.1560477   9.9862883  26.6743381  23.2143601  10.4349531  27.4203357
  22.5226945  10.3961695  26.2373461  23.0711772  10.1136617  26.7195929
  16.7959572  15.6066425  23.1098127  16.5979260  16.0957239  22.4154338
  16.1747283  15.8107666  23.6882260  16.6747136  15.7082963  23.0921350
  10.8567550   7.3751321  17.4508371  11.6009595   7.7625598  17.6891321
  11.0028246   6.5308747  17.6148859  10.9878135   7.3081794  17.5102341
  12.7747126  -0.8298420  22.4840233  11.9283171  -0.6575612  22.3581583
  12.7718258  -1.6349076  22.8206061  12.6494276  -0.9237391  22.5151360
  13.8445426   2.9476795  23.3502291  13.3705380   2.4218557  23.8607602
  14.2163562   2.4006268  22.7817152  13.8295315   2.7892791  23.3417438
  20.1082157   8.0079170  24.7609071  19.8680380   7.1685586  24.7651498
  20.5874164   8.0879337  25.4849845  20.1434340   7.8960570  24.8683873
  15.7728926   3.8413349  16.4128044  15.2451944   3.9242093  15.7233753
  16.2324634   4.5831221  16.4092689  15.7630776   3.9634012  16.3102740
  22.1087344   4.7880628  22.7138330  21.8697114   4.7476462  21.8759115
  22.2721245   5.6351780  22.8404051  22.0977647   4.9072713  22.6091812
  18.7133374   9.1730577  28.6443375  19.4367573   8.7203103  28.4654395
  18.4483336   9.4535243  27.8615703  18.7814647   9.1481545  28.5022091
   7.5820242   3.7690750  25.3796255   6.9573312   3.7809142  24.7722207
   7.2465837   4.2450926  26.0287495   7.4405734   3.8409267  25.3852823
   4.2945918  11.8291211  26.8200019   3.7645842  11.1383649  26.8694994
   4.5671011  11.8201396  25.9912727   4.2570640  11.7258342  26.7047435
  15.3266008  12.4116913  15.5437701  16.0500207  12.8775026  15.4002275
  14.8866599  12.4790523  14.7935298  15.3681700  12.4900750  15.4122483
  14.4952163   9.2714455  26.7938390  13.8809156   8.7272505  27.0887026
  15.0119448   8.7578692  26.3144207  14.4807826   9.1150864  26.7662619
  13.7348460  10.3418725  24.5282689  13.3076068   9.7168444  24.0948124
  13.7273405  10.0593647  25.3541696  13.6707602  10.2071506  24.5862517
   6.8510988   5.3783898  27.5971123   7.0104474   4.6227222  28.0022845
   6.6703881   5.9274838  28.2511861   6.8476347   5.3477712  27.7533829
  14.7931291  -2.4554866  28.1521913  14.2971852  -2.2591192  27.4613479
  15.5500353  -2.0562198  27.9810714  14.8318115  -2.3677132  28.0242049
  12.0634170   1.2187480  24.7425223  12.0876657   0.6847592  24.0538003
  12.3145644   0.7104789  25.4050814  12.1044089   1.0648384  24.7389868
  10.5265105   9.5119038  32.2251262   9.6760736   9.6490752  32.3608907
  10.6893233   8.7782816  32.6698964  10.4248969   9.4233139  32.3106861
   9.7649856   6.4618808  26.4204866   8.9341785   6.6292626  26.2140115
   9.7101373   6.0854759  27.2053752   9.6339271   6.4308539  26.5053395
   8.1385900   4.7374399  16.9494984   8.2788861   5.2346864  17.6523625
   8.6368432   4.0360694  17.0909198   8.2326980   4.7076378  17.0746563
   8.1686122   5.6041510  14.2787561   8.8031201   6.2001935  14.2137023
   8.2511733   5.3044968  15.0933431   8.2742673   5.6482419  14.3890648
  21.1468688   8.1356988  27.1473925  21.7386528   8.7754238  27.1792123
  21.5827682   7.4380024  27.4365992  21.2987119   8.1275338  27.1954758
   9.7465105   1.5355486  14.2533003  10.0680946   1.0558568  13.5992265
  10.0092049   2.3455132  14.0623815   9.8331130   1.5845384  14.1288495
  12.9762078  12.5574360  27.7731819  12.4687169  13.1110207  28.2172450
  12.6788724  12.6182650  26.9550594  12.8566963  12.6480671  27.7180276
  15.1424260   0.9227680  26.6156482  15.5679331   0.4700206  26.0040008
  14.5281253   0.3687750  26.8921269  15.1152905   0.7741656  26.5661507
   4.6739110   7.8009351  17.5477107   5.1831339   8.3973859  17.9288412
   5.1473382   7.5335325  16.8653527   4.8182486   7.8495167  17.5031630
  15.5869858  16.4737618  15.7035763  14.8699168  16.2998480  15.2383000
  16.2376595  16.2390190  15.1711249  15.5771708  16.4133410  15.5564980
  18.1717829   5.3502206  19.4477068  17.5009019   5.8931909  19.3190133
  18.8657579   5.8197062  19.2058762  18.1746697   5.5000478  19.3932595
  12.2204563  17.4898918  24.6788826  11.9970217  16.7317748  25.0472852
  11.7314406  17.5196940  23.9569266  12.1148012  17.3821143  24.6265567
  18.3345957   1.8058090  22.3567441  18.6873567   1.3787813  23.0313240
  17.4760758   1.7208934  22.4868517  18.2595401   1.7302831  22.4762451
   7.0329642   4.4365610  20.4150287   6.3141631   4.8529742  20.6823151
   7.4042004   5.0019848  19.8641926   6.9821573   4.5814891  20.3733094
  16.3329222   5.0693459  26.3052283  16.3127150   4.8876754  27.1587062
  16.3808423   5.9405477  26.2811867  16.3363863   5.1709997  26.4275578
  14.2775552  11.6580651  32.2300760  14.2371407  11.0130328  31.6445916
  15.0898871  11.6017268  32.5426172  14.3918706  11.5539617  32.1897709
  10.8683020  17.7099376  22.1325911  10.4543418  17.0473507  21.7429752
  11.5530394  17.8577235  21.6121605  10.9081392  17.6340035  21.9982408
  14.2348314  16.8689462  22.8849527  13.8364597  16.9791732  22.1170347
  13.6199534  17.0771528  23.4676087  14.0847203  16.9163030  22.8580826
  12.8076216   3.4763610  15.7523667  12.2141055   3.7980606  15.2008234
  12.8451494   2.6304705  15.5444773  12.7250605   3.3987938  15.6406438
  15.6834033   3.4343114  19.1825417  15.4547726   3.4575816  18.3403775
  15.9432109   2.6100581  19.3020428  15.6880221   3.3159194  19.0750615
   9.9653261   5.2877587  28.7850517   9.4532164   4.6798770  29.1435549
   9.7932757   6.0034180  29.2524493   9.8642898   5.3040886  28.9066741
   8.7378795   1.9719660  20.4779613   9.2136161   2.3336740  19.8429794
   8.2367395   2.6276128  20.7579755   8.7344154   2.1213849  20.4256354
  21.9690157  11.4441428  16.2692618  22.3523762  12.1932785  16.4990715
  21.1734270  11.6907248  16.0104607  21.9083939  11.5911122  16.2650191
  13.8422331   3.2101832  31.2252773  14.3993761   2.9815641  30.5931238
  13.5183396   3.9707497  30.9487985  13.8768741   3.2885668  31.0909270
  11.5605449   6.2969485  32.1904780  12.3116776   6.6121162  32.5044334
  11.7528025   6.0948656  31.3638702  11.6996863   6.3136867  32.1148176
  10.7805448   4.1160860  13.8452997  11.1604413   4.1340489  13.0604111
  10.0398044   4.5614849  13.7243844  10.7274286   4.1842635  13.7116565
  18.4090739   2.4243051  19.4328575  18.4084965   2.2691708  20.2912852
  18.2046919   3.2706038  19.3769961  18.3790517   2.5263672  19.5516515
  16.1331591   7.1040553  23.0864782  16.6285256   6.3863548  23.0468803
  15.3231366   6.8011351  22.9719269  16.0875484   6.9538199  23.0638508
  11.5790202  10.9538366  15.2361787  10.7701525  10.6305040  15.1895096
  12.0865111  10.2471588  15.1690035  11.5339869  10.8019683  15.2192081
   2.2080480   8.3810560  20.9609151   1.3425999   8.3696250  20.8491922
   2.3079295   8.1940782  21.8080290   2.0954647   8.3516621  21.0698095
  18.1983410   9.8544241  25.7741911  18.6238481   9.3318662  25.2212336
  17.8340329  10.4525078  25.2530534  18.2070012   9.8654468  25.6150921
   7.8337489  18.1508458  24.5339257   8.1484048  18.9644847  24.5417038
   8.2430903  17.7658677  25.2021416   7.9405587  18.2137161  24.6343348
  14.7862009  13.5678505  22.1043068  15.2573187  14.2818768  22.2733054
  15.1222188  12.9677255  22.6402938  14.9057124  13.5849969  22.2075444
  16.8738994  15.1779818  34.2835141  16.9835959  14.3888379  34.6391888
  17.2029890  15.0885754  33.4809479  16.9391399  15.0485671  34.2177531
  15.4235955  13.3596439  28.8670761  14.8756901  12.7354323  28.5990826
  15.8848984  13.5490711  28.1514841  15.4103165  13.2955489  28.7221192
  18.2329820   1.4281794  26.2521953  17.6492809   1.9291000  25.8399521
  18.5534114   0.9211350  25.6186277  18.1942995   1.4273629  26.0980461
  10.7724619   0.3422388  16.5280628  11.5940313   0.5120701  16.2862323
  10.3094270   0.4969649  15.8046926  10.8255781   0.3904121  16.3852273
   5.1750510  12.0981567  24.1817865   5.7795367  12.0577401  23.5531686
   4.9677822  12.9452719  24.2121921   5.2339407  12.2169569  24.0933981
  14.9894282  14.3647512  25.3980102  15.8092656  14.2210478  25.6596397
  14.7088359  14.9893711  25.9396540  15.0691025  14.4357864  25.5168042
  31.4607932  22.0212363  18.3622979  31.4301936  22.8757000  18.5341248
  32.0589281  21.7207656  18.9209122  31.5445090  22.1028860  18.4697781
  19.0448757  30.6450732  18.8813141  18.2931656  30.2666271  18.6529186
  19.4934768  30.6769166  18.1331951  18.9998423  30.5936339  18.7370643
  27.9701333  27.3774540  32.7236365  28.6768101  26.8826571  32.8523300
  28.1589269  27.8183622  31.9939023  28.1029239  27.3692890  32.6345411
  24.4973717  31.0676102  14.3098688  24.1625085  31.7453023  13.8742910
  25.0100587  30.6781413  13.7215559  24.5239298  31.1100680  14.1585479
  24.0378008  33.0190371  20.2509799  24.4217387  33.5877269  19.7114575
  23.9737149  32.2939881  19.7715615  24.0851435  32.9965834  20.1003662
  27.5059438  23.1680058  25.7607561  28.0515398  23.8465145  25.8201530
  27.4476314  23.0267519  24.9009142  27.5775352  23.2472060  25.6419621
  20.6233513  30.6569125  21.1475913  20.7243876  29.8469478  21.4573041
  20.0275258  30.5626071  20.5175592  20.5506051  30.5234153  21.1002152
  29.2824507  24.5964665  16.6341289  29.1664033  25.3472352  17.0633427
  30.0780393  24.3388619  16.8837376  29.3829096  24.6699512  16.7345380
  20.4634252  35.5746714  22.5490769  21.1071708  36.0159878  22.9386928
  20.7890508  34.7700140  22.4621028  20.6066081  35.5211908  22.5936246
  13.8198557  26.6789411  20.7728247  13.5848742  25.8457063  20.6660516
  13.9584198  26.9594077  19.9589448  13.8054220  26.5972914  20.6370602
  16.1188645  18.8475142  23.6712555  15.4993676  18.2567789  23.5022569
  16.0172508  19.4386577  23.0376878  16.0126320  18.8479224  23.5517544
  21.1654832  28.5858689  17.9210631  21.4870673  29.1263896  17.3171939
  21.8126929  28.0155460  18.0532921  21.3080887  28.5817864  17.8517666
  15.8457778  22.3927423  25.9156124  15.7216474  22.9789869  26.5505942
  16.4976062  21.8987619  26.2168398  15.9231427  22.4066228  26.0542053
  23.4044476  26.9745128  17.9924809  23.8438111  26.3662229  18.4379582
  23.2549138  26.5952502  17.2210274  23.4465941  26.8283600  17.9443976
  23.4102210  28.4144046  24.8450527  23.6925453  27.6195452  24.6237283
  24.1388370  28.8924634  24.8655588  23.5591774  28.3678643  24.8153542
  21.3883404  15.9567080  22.0866292  21.0586734  16.4078224  21.4169991
  20.7128406  15.8783243  22.6339299  21.2393840  16.0118215  22.0689516
  27.0053812  25.3272310  14.9455578  26.9205107  26.1833276  15.0905147
  27.4938195  25.0516634  15.6137737  27.0642709  25.4129631  15.0657660
  28.5959812  11.9452603  20.3315903  28.2813253  12.6356082  20.7636325
  28.0786753  11.8897385  19.6301404  28.4724282  12.0387492  20.2912852
  33.3920298  27.5203408  21.8186358  32.5618001  27.7314052  21.9819774
  33.3429551  26.6940463  21.5428642  33.2627034  27.4293015  21.8023723
  19.8271853  25.8420321  15.2460781  19.2429068  26.3470352  15.6526645
  19.4241948  25.6162708  14.5057373  19.6811157  25.8828569  15.1965807
  15.3815882  31.5575082  22.0484453  14.8983460  32.2825571  22.0244037
  16.1939200  31.8551212  22.1594611  15.4306629  31.7077436  22.0611732
  21.4530036  30.3507263  24.6534267  20.9356977  29.9914678  24.0495576
  22.1504427  29.8269437  24.6640334  21.4795617  30.2204951  24.5664526
  25.1093628  30.8002077  30.6150440  25.1976974  30.6128217  31.4628651
  25.5383340  30.1539506  30.2155287  25.1855730  30.6765084  30.6822192
  22.6764088  30.0833237  29.5968103  22.1134922  29.6705846  30.1207764
  23.4385111  30.0086142  30.0161246  22.7058536  30.0110637  29.7361103
  19.5939358  14.0179369  17.5689240  20.3485326  14.3857686  17.3306290
  19.4166892  14.3918923  18.3368420  19.6793836  14.1277556  17.6474128
  18.2360079  32.0731258  22.2004733  18.9380658  31.5583247  22.2577489
  18.1557562  32.4005409  23.0051608  18.3283839  32.0445484  22.3277525
  32.8874257  20.1673809  25.6136779  32.0502678  20.2375996  25.8484374
  32.8562487  20.1698304  24.7411082  32.7592539  20.1784036  25.5196327
  17.9496422  16.4249688  14.2667353  17.7671996  16.6421568  13.4408346
  18.8122035  16.5388700  14.3225967  18.0501012  16.4739585  14.1521840
  17.5610854  28.2637610  21.7090341  18.3999754  28.4960543  21.7564102
  17.5922624  27.3941921  21.6397376  17.6892572  28.1694556  21.7054986
  23.6296142  13.4276098  17.3016377  24.3582302  13.2492053  16.8554533
  23.7191035  14.2694178  17.5123555  23.7502804  13.5259977  17.2669894
  30.6484613  28.1902763  21.9551074  30.2119845  28.1939505  22.7110045
  30.3147529  28.8708262  21.5230651  30.5347233  28.2915219  22.0031906
  25.2213687  30.2311096  33.2794224  26.0054104  30.3441943  33.6449966
  25.0210282  29.4052233  33.4752910  25.3079712  30.1257815  33.3628610
  30.5682096  15.2316591  24.1980502  31.2108005  15.3014695  24.7842417
  30.8205117  14.5645814  23.6960044  30.7004228  15.1442939  24.2107781
  17.4958450  19.7023860  12.7789826  16.7816627  19.4162040  13.1912259
  17.9802418  20.0420486  13.4196213  17.4617813  19.7105510  12.9345461
  18.3399309  18.4417154  28.8105076  17.6471106  17.9714134  29.0565807
  18.9559636  18.2155459  29.3846783  18.3283839  18.3384286  28.9314228
  25.3784080  32.1421198  26.9260680  24.5799326  31.9020698  27.1834548
  25.8270092  32.1935591  27.6727727  25.3258692  32.1143589  27.0745604
  33.7828960  24.9083683  20.8470711  34.4445394  24.3474351  20.7466619
  33.1420372  24.4135713  21.1723402  33.7857827  24.7520092  20.8803051
  24.6705767  28.2053814  13.1551634  25.0856916  27.8738838  12.4636130
  23.8397697  27.9722716  13.0271771  24.6093776  28.1225070  13.0342482
  13.9994116  25.6897555  23.4449812  13.8169689  25.6644441  22.5922104
  14.7343785  26.1596493  23.4838721  14.0808180  25.7558917  23.3247731
  30.0693790  25.9249065  20.5882700  30.3049380  26.0694264  19.7609550
  30.2183354  26.6891473  20.9814213  30.1259594  26.0588120  20.5246304
  17.0639868  22.4082558  29.9531921  17.7879840  22.3935589  30.4396816
  17.1656004  23.1177913  29.4553889  17.1858077  22.5107261  29.9510708
  31.8984247  24.7650731  18.4252304  32.2292464  25.2978371  17.8192398
  32.4717335  24.8189619  19.0814255  32.0317926  24.8520300  18.4330085
  24.4384817  25.8881643  34.8180868  23.6457798  26.2025154  35.0033488
  24.5533744  26.1033111  33.9801652  24.3380228  25.9665479  34.7219203
  25.3668610  25.7901846  29.7566165  25.9407472  25.1529091  29.9114728
  25.2883414  25.7905929  28.8875822  25.4401845  25.6966958  29.6512575
  13.9665027  22.5691056  23.5948879  14.5438529  22.4327507  24.2341124
  13.2679088  22.1126840  23.8494463  13.9486048  22.4813322  23.7271168
  27.3639158  24.4564374  12.3412836  27.2819320  24.5266561  13.2067823
  28.0018878  25.0194117  12.1496576  27.4458995  24.5503345  12.4402785
  25.8033379  16.3253562  21.9091455  25.0989706  15.8362748  22.0675374
  25.8518353  16.3376037  21.0379899  25.7063430  16.2543210  21.8030794
  23.3640330  20.2486223  27.1544635  22.9754762  19.8240441  26.4996826
  22.6995028  20.4968373  27.6621662  23.2087257  20.2224944  27.1332503
  33.0063599  20.0061228  19.9292465  32.7500163  19.1941169  19.7390348
  33.8492913  20.0138795  19.7022653  33.0929624  19.8873225  19.8677282
   9.4423860  21.4202949  20.3096697   9.5284112  21.0434817  21.0910227
  10.0699657  21.0463394  19.8316656   9.5480411  21.3088431  20.3542175
  27.1866691  13.9460852  24.6668619  27.5677203  13.2639023  25.0536494
  26.3829975  13.6570454  24.4844284  27.1243153  13.8027901  24.6972675
  30.6888758  27.1610824  29.7651018  30.4527395  26.3298889  29.6463078
  31.3331987  27.1096431  30.3505862  30.7483429  27.0308512  29.8336911
  20.3387176  27.9506345  20.4793754  20.9761123  27.7118093  21.0245548
  20.7642248  28.1543504  19.7446915  20.4963342  27.9457355  20.4510912
  20.9789991  23.1708635  14.8168644  21.3635144  22.9516342  15.5685189
  20.7301611  23.9971580  14.9469720  20.9992064  23.2606781  14.9469720
  21.1458531  16.4515050  34.5331228  20.8311973  17.2214613  34.2700791
  20.8248464  15.8885306  33.9483455  21.0517451  16.4825319  34.4072578
  31.7125179  26.9455273  25.8279312  31.4070996  27.6783330  26.1892628
  30.9931394  26.5393202  25.5472098  31.5612521  26.9937006  25.8392449
  22.7208648  28.4278768  22.1587540  22.7947656  28.2653940  23.0129390
  23.5378154  28.6168957  21.9148022  22.8525007  28.4315510  22.2485566
  37.4126971  23.5848273  25.1547656  37.3451471  23.6044233  24.2850243
  37.3982633  24.4278601  25.3803327  37.4005727  23.7122008  25.0600133
  16.4814405  28.7736631  19.1881984  15.6552522  29.0198368  19.0616263
  16.5426396  28.6948712  20.0544042  16.3688572  28.7981580  19.2970928
  18.6990428  14.8405572  20.1477424  17.8312854  14.9128171  20.2135033
  18.9865633  15.6427651  20.3365399  18.6130177  14.9699719  20.1852191
  27.8223317  14.9883431  28.4788746  28.5676909  14.7993242  28.0652171
  27.4060622  15.5141669  27.9202602  27.8708291  15.0385577  28.3353319
  21.2613234  31.3913511  16.8901014  21.5511532  31.0002492  16.1660240
  21.9916715  31.5730216  17.3306289  21.4120118  31.3607325  16.8483821
  35.1985588  22.3592660  23.4294251  35.7493510  21.7260729  23.6691343
  35.1829703  22.8908052  24.1209755  35.2770784  22.3441608  23.5673109
  19.2019149  33.3680893  19.9561164  18.9819445  33.0778248  20.7487831
  18.9813671  32.7095848  19.4279076  19.1366743  33.2280602  19.9950072
  21.3687105  34.7410283  18.7391856  22.0211163  34.2086726  18.9682882
  20.6712714  34.3878936  19.1259730  21.3617823  34.6099806  18.8304024
  18.3168370  27.0949461  18.1459230  19.0714338  27.4762500  18.3594693
  17.7238983  27.5460605  18.6005927  18.3405083  27.2178288  18.2442109
  29.3627023  27.0614697  18.0822835  29.9285056  27.7207907  17.9981378
  28.7154927  27.4064395  18.5539237  29.3505780  27.2096639  18.1395592
  20.7775037  19.0512301  33.2716443  19.9674813  19.3570081  33.1606285
  21.2549724  19.7717884  33.3869027  20.7278516  19.2026902  33.2723514
  16.6257780  18.3163831  17.5894300  16.3382576  17.9465101  16.8526248
  17.3128249  18.7858686  17.3278005  16.6846678  18.3310800  17.4409376
  25.8333601  30.0053482  17.5059914  25.5920277  29.2721342  17.0986979
  26.0134934  30.5540339  16.8526248  25.8241225  29.9775873  17.3490137
  25.8674238  15.4165955  19.1486006  26.5700591  15.2173703  18.6705964
  25.6018427  14.6441897  19.4554849  25.9320870  15.2728921  19.1231448
  31.2962484  23.7248565  21.7019632  31.2096458  23.8803991  22.5554411
  30.8412963  24.3686640  21.3279037  31.2165740  23.8424320  21.7726739
  14.1985975  19.0945043  18.4379581  14.3002112  19.8971205  18.7660557
  14.9941862  18.8932379  18.1402662  14.3313881  19.1830942  18.4414937
  20.6302794  16.6801240  28.2016887  20.4385991  16.6956375  29.0516310
  21.4801390  16.8764915  28.1783541  20.7278516  16.7115591  28.3240181
  15.0149707  19.2092222  26.1800703  14.8735199  18.3576162  26.3045211
  15.2990271  19.2520882  25.3562909  15.0357553  19.0891972  26.0768327
  29.0636348  27.7542671  24.1131973  28.9250708  28.4523717  24.6180715
  28.2836346  27.5991328  23.7568154  28.9279575  27.8342838  24.1358247
  27.4014434  24.0539047  30.3654354  27.3962472  23.1818863  30.3696781
  28.1075427  24.2527216  29.8923810  27.5059438  23.9542921  30.2961390
  20.2013082  31.9718802  26.6029201  20.3502646  31.4121718  25.9502606
  20.9813084  32.0510804  26.9861720  20.3387175  31.9004368  26.5626150
  30.5589721  27.1120925  14.8748472  30.1796530  26.3258063  14.8677761
  29.8955967  27.6607782  14.7320116  30.4048196  27.0765749  14.8529269
  22.7266382  32.1433445  27.8813692  22.6510054  31.4742256  28.4364480
  22.6556242  32.8451233  28.3954358  22.7046989  32.1478353  28.0390540
  23.5407021  16.8756750  28.4088710  23.9979635  17.6080724  28.5361502
  23.6163350  16.4523215  29.1675966  23.6197991  16.9213988  28.5389786
  15.7840012  17.1222569  29.4978153  15.2482202  16.5102927  29.8138921
  15.8457777  17.6970705  30.1511820  15.7135645  17.1169497  29.6413580
  28.0134347  10.0546625  22.2782553  28.1317915  10.5123088  21.5449855
  27.8396523   9.2491886  21.9918770  28.0053518  10.0040397  22.1283486
  23.3836629  30.6634444  18.7137298  24.1486520  30.3944088  18.3919962
  23.2814719  30.1784454  19.4307361  23.4818125  30.5524009  18.7717126
  21.4189399  18.8658854  25.2530534  20.6285474  18.6850314  25.5747870
  21.8150022  18.0885806  25.2360828  21.3606275  18.7246314  25.2983082
  25.9055290  27.6946628  10.6937247  26.6728275  27.7546753  10.2843099
  25.4586599  27.1227069  10.2093566  25.9528717  27.6183204  10.5614958
  26.8033085  26.5001284  22.9789980  26.1278087  26.2686516  23.4803367
  26.8125462  25.8922467  22.3532085  26.7051590  26.3760209  22.9606132
  23.9327229  21.3419113  29.7354033  23.8686371  22.2029069  29.6074169
  24.0724417  21.0251106  28.9349584  23.9442699  21.4219279  29.5982245
  28.8049820  29.3566416  15.2100158  28.8869657  30.1633402  14.8861608
  29.2899562  29.3762375  15.9340931  28.8886978  29.4787078  15.2687056
  22.1158017  35.5501765  26.3391693  22.6053947  34.8512554  26.1567357
  21.5442249  35.2525635  26.9267750  22.1042547  35.4027989  26.3992734
  17.9028768  24.5303303  19.3098208  18.0593387  24.4650106  20.1654200
  18.2429361  25.3051856  19.0976888  17.9762003  24.6352502  19.4052802
  28.3125020  28.1163834  35.2918483  29.1259886  27.8448983  35.4523616
  28.1519987  27.8171374  34.4878679  28.4094969  28.0318760  35.1963889
  22.6094363  29.2978539  15.4631599  22.6787183  28.4393077  15.6024600
  23.3882818  29.5150419  15.1350624  22.7347213  29.2031402  15.4348757
  25.5897182  18.7997491  28.2313872  25.8039152  18.1608406  27.6777226
  24.9731081  19.2443315  27.8021733  25.5302512  18.7707635  28.0864303
  27.0001850  31.7216240  19.6768093  26.6081642  31.4182955  18.9590959
  27.1554922  32.5585330  19.4873046  26.9655440  31.8000077  19.5424590
  14.4763030  21.7138254  19.6258975  14.8561995  22.1322799  18.9619243
  13.9018395  22.2951710  19.9327819  14.4474355  21.8616113  19.5735716
  27.7536270  20.4086557  29.1697179  26.9412952  20.1012447  29.2510352
  28.2126205  19.9285557  29.7339891  27.7016655  20.2923049  29.2651773
  27.1641525  28.2866229  19.6174123  26.8056180  28.4580872  20.3938156
  26.6780236  28.7479434  19.0602122  27.0400222  28.3805200  19.6499392
  24.9811911  11.9097427  23.2201215  24.1105469  11.8836148  23.1734524
  25.2352252  11.7374619  22.4027060  24.8905471  11.8807571  23.0921351
  21.9529890  23.9665394  12.1574358  22.2422415  24.7430277  12.4317932
  22.0401689  23.4554126  12.8588857  22.0084147  24.0057312  12.3016855
  24.8489778  21.8146628  33.9525881  25.3189409  22.4388745  34.3393755
  24.8951658  21.1463604  34.5119096  24.9257654  21.8081308  34.0925953
  22.0061051  13.9203656  24.6774685  21.4899540  13.2283847  24.8026264
  21.4454980  14.5874433  24.6237284  21.8467565  13.9166913  24.6880751
  24.0753285  14.4596616  26.5067538  23.6885038  14.4845647  27.2881067
  23.5886222  13.8938294  26.0542054  23.9465794  14.3792366  26.5555441
  28.3246264  29.1770125  30.5641324  28.9625985  28.6830320  30.2303780
  27.6820356  29.1047525  29.9793551  28.3240491  29.0929133  30.4283679
  23.7410427  11.3463601  28.7977797  24.3703545  11.8823901  28.5198868
  23.9096289  11.2540960  29.6491363  23.8588221  11.4124963  28.8826326
  23.5424341  16.1334796  31.0704209  24.3697771  15.8619945  31.1262823
  23.5632188  16.9295638  31.4268027  23.6677192  16.2114550  31.1319392
  28.3800521  29.8689933  27.2046681  29.1692899  29.5178998  27.3248762
  28.5544119  30.6826321  26.9423315  28.5220803  29.9375790  27.1834549
  15.5969398  20.9018196  22.0859220  15.2026096  20.9761207  21.3109330
  15.0409515  21.2876142  22.6367582  15.4572211  20.9699970  22.0526880
  27.2334345  13.8799490  21.7663099  27.4383938  13.8121797  22.6120096
  26.9060769  14.6858311  21.6984277  27.2149593  13.9885430  21.8822754
  20.9876593  18.5180578  18.0716769  21.2636328  17.7999490  17.6594337
  21.5875263  19.1165498  17.8637875  21.1169858  18.5000948  17.9797530
  30.4868033  14.4331254  21.2465865  29.8742346  14.9201656  21.6319597
  30.5832208  13.7574745  21.7903516  30.4105930  14.4049563  21.3844723
  24.4887114  16.1894095  16.3463364  24.9430860  16.3604655  17.0711209
  24.9627160  15.5762206  15.9461140  24.6255434  16.1244980  16.3937126
  18.4063262  16.8344419  26.3434120  18.8664744  16.9083348  27.0809244
  18.4519369  17.6325673  25.9933942  18.4813817  16.9638566  26.4006877
  20.0546612  17.5011114  30.9106147  19.6632177  16.8544461  31.3461925
  20.2232474  18.0922549  31.5300403  20.0217522  17.4925381  31.0668853
  34.1293061  25.5048191  26.6743381  34.1876184  25.9534839  27.4203357
  33.4959528  25.9147003  26.2373461  34.0444356  25.6321925  26.7195929
  27.7692155  31.1251733  23.1098127  27.5711844  31.6142547  22.4154338
  27.1479866  31.3292974  23.6882260  27.6479720  31.2268271  23.0921350
  23.7479709  14.6886888  22.4840233  22.9015754  14.8609696  22.3581583
  23.7450842  13.8836232  22.8206061  23.6226859  14.5947917  22.5151360
  15.1951040  20.4633609  28.7185836  16.0576653  20.3629319  28.6323166
  14.8642823  19.8828319  28.1571409  15.2736236  20.3625236  28.6231242
  31.0814740  23.5264478  24.7609071  30.8412963  22.6870893  24.7651498
  31.5606747  23.6064645  25.4849845  31.1166924  23.4145878  24.8683873
  33.0819927  20.3065936  22.7138330  32.8429697  20.2661770  21.8759115
  33.2453828  21.1537088  22.8404051  33.0710231  20.4258021  22.6091812
  29.6865957  24.6915885  28.6443375  30.4100156  24.2388411  28.4654395
  29.4215920  24.9720551  27.8615703  29.7547231  24.6666853  28.5022091
  18.5552826  19.2876058  25.3796255  17.9305896  19.2994450  24.7722207
  18.2198421  19.7636233  26.0287495  18.4138318  19.3594575  25.3852823
  18.7394574  17.6301177  11.4368940  18.3907379  18.2820902  11.9000489
  18.2591020  17.6158290  10.7092811  18.6164818  17.7244230  11.3980031
  26.2998592  27.9302221  15.5437701  27.0232791  28.3960334  15.4002275
  25.8599183  27.9975830  14.7935298  26.3414284  28.0086058  15.4122483
  17.8243571  20.8969206  27.5971123  17.9837058  20.1412530  28.0022845
  17.6436465  21.4460146  28.2511861  17.8208930  20.8663020  27.7533829
  25.7663874  13.0630442  28.1521913  25.2704435  13.2594116  27.4613479
  26.5232936  13.4623110  27.9810714  25.8050699  13.1508176  28.0242049
  23.0366754  16.7372788  24.7425223  23.0609241  16.2032900  24.0538003
  23.2878227  16.2290096  25.4050814  23.0776672  16.5833692  24.7389868
  10.5474344  24.0204283  24.1768367  10.4417793  23.9751127  23.3120451
   9.7974564  24.3658063  24.4582652  10.4209946  24.0645191  24.0905697
  19.3168076  15.4643606  24.1230967  19.3566448  15.9652812  24.8365675
  18.4917741  15.5554000  23.8536890  19.2007602  15.5525422  24.1881506
  18.5466223  15.4713009  32.0561277  19.1718926  14.9275141  32.3290709
  18.0916703  14.9907926  31.4869067  18.5714483  15.3202490  32.0122871
  19.1118483  20.2559707  16.9494984  19.2521444  20.7532171  17.6523625
  19.6101016  19.5546002  17.0909198  19.2059564  20.2261686  17.0746563
  19.1418706  21.1226818  14.2787561  19.7763785  21.7187243  14.2137023
  19.2244316  20.8230276  15.0933431  19.2475257  21.1667726  14.3890648
  32.1201271  23.6542296  27.1473925  32.7119112  24.2939546  27.1792123
  32.5560266  22.9565332  27.4365992  32.2719703  23.6460646  27.1954758
  20.7197688  17.0540794  14.2533003  21.0413529  16.5743876  13.5992265
  20.9824632  17.8640440  14.0623815  20.8063714  17.1030692  14.1288495
  23.9494661  28.0759668  27.7731819  23.4419752  28.6295515  28.2172450
  23.6521307  28.1367958  26.9550594  23.8299546  28.1665979  27.7180276
  26.1156843  16.4412988  26.6156482  26.5411915  15.9885514  26.0040008
  25.5013836  15.8873058  26.8921269  26.0885489  16.2926964  26.5661507
  15.6471693  23.3194659  17.5477107  16.1563923  23.9159167  17.9288412
  16.1205966  23.0520633  16.8653527  15.7915069  23.3680474  17.5031630
  26.5602441  31.9922926  15.7035763  25.8431751  31.8183788  15.2383000
  27.2109179  31.7575498  15.1711249  26.5504292  31.9318718  15.5564980
  24.5551066  12.9128087  20.0247059  23.9119384  12.7625734  20.5932197
  24.2150473  12.6670433  19.2596164  24.4096144  12.8540210  19.9950074
  23.1937146  33.0084226  24.6788826  22.9702801  32.2503056  25.0472852
  22.7046990  33.0382247  23.9569266  23.0880595  32.9006451  24.6265567
  18.0062225  19.9550918  20.4150287  17.2874214  20.3715050  20.6823151
  18.3774587  20.5205156  19.8641926  17.9554157  20.1000199  20.3733094
  25.2508136  27.1765958  32.2300760  25.2103991  26.5315635  31.6445916
  26.0631454  27.1202576  32.5426172  25.3651289  27.0724925  32.1897709
  21.8415603  33.2284684  22.1325911  21.4276002  32.5658815  21.7429752
  22.5262978  33.3762543  21.6121605  21.8813975  33.1525343  21.9982408
  25.2080898  32.3874770  22.8849527  24.8097181  32.4977040  22.1170347
  24.5932117  32.5956836  23.4676087  25.0579787  32.4348338  22.8580826
  30.7402600  12.4461810  23.2851753  30.2333465  11.7390949  23.2172931
  31.5370034  12.1154999  23.4152830  30.7829839  12.2934961  23.2950748
  15.7851559  19.2500470  31.4352879  15.6154150  19.9101845  30.8901086
  15.3417509  19.4607032  32.1565368  15.6950893  19.3786452  31.4614509
  19.7111379  17.4904968  20.4779613  20.1868745  17.8522048  19.8429794
  19.2099978  18.1461436  20.7579755  19.7076738  17.6399157  20.4256354
  32.9422740  26.9626736  16.2692618  33.3256346  27.7118093  16.4990715
  32.1466854  27.2092556  16.0104607  32.8816522  27.1096430  16.2650191
  24.8154915  18.7287140  31.2252773  25.3726345  18.5000949  30.5931238
  24.4915980  19.4892805  30.9487985  24.8501325  18.8070976  31.0909270
  12.6853624  22.1547336  26.6941369  12.1380343  21.4847981  26.8122237
  13.4746002  21.7877184  26.7584836  12.7205807  22.0012322  26.7210069
  22.5338032  21.8154793  32.1904780  23.2849359  22.1306470  32.5044334
  22.7260609  21.6133964  31.3638702  22.6729446  21.8322175  32.1148176
  21.7538032  19.6346168  13.8452997  22.1336997  19.6525797  13.0604111
  21.0130628  20.0800157  13.7243844  21.7006870  19.7027943  13.7116565
  11.4440593  21.3668144  23.8487392  11.2662354  20.9144753  24.5742308
  11.1559615  22.1694305  24.0325869  11.3753546  21.4190702  23.9830895
  22.5522786  26.4723674  15.2361787  21.7434109  26.1490348  15.1895096
  23.0597695  25.7656896  15.1690035  22.5072453  26.3204991  15.2192081
  13.1813063  23.8995867  20.9609151  12.3158583  23.8881558  20.8491922
  13.2811879  23.7126090  21.8080290  13.0687230  23.8701929  21.0698095
  29.1715993  25.3729549  25.7741911  29.5971065  24.8503970  25.2212336
  28.8072913  25.9710386  25.2530534  29.1802596  25.3839776  25.6150921
  18.8070073  33.6693766  24.5339257  19.1216632  34.4830155  24.5417038
  19.2163486  33.2843985  25.2021416  18.9138171  33.7322468  24.6343348
  25.7594593  29.0863813  22.1043068  26.2305771  29.8004075  22.2733054
  26.0954771  28.4862563  22.6402938  25.8789708  29.1035277  22.2075444
  27.8471577  30.6965126  34.2835141  27.9568543  29.9073687  34.6391888
  28.1762474  30.6071062  33.4809479  27.9123983  30.5670979  34.2177531
  22.6764088  13.8591283  29.0601163  22.8091993  13.0622277  29.3882139
  23.0609240  14.3857686  29.6399439  22.7520416  13.8191200  29.1944666
  26.3968539  28.8781747  28.8670761  25.8489485  28.2539631  28.5990826
  26.8581568  29.0676019  28.1514841  26.3835748  28.8140797  28.7221192
  25.7496443  10.7821610  25.6582257  24.9442406  10.6719339  25.9750095
  25.6203178  10.8834065  24.8012122  25.6116576  10.7805280  25.5790297
  29.2062403  16.9467101  26.2521953  28.6225392  17.4476308  25.8399521
  29.5266697  16.4396658  25.6186277  29.1675579  16.9458936  26.0980461
  21.7457202  15.8607696  16.5280628  22.5672897  16.0306009  16.2862323
  21.2826853  16.0154957  15.8046926  21.7988365  15.9089429  16.3852273
  20.3352534  13.8550458  27.3079057  20.8796947  13.5141585  27.8983399
  20.3889470  14.7135920  27.4500342  20.4241654  13.9305718  27.4160930
  25.9626865  29.8832820  25.3980102  26.7825239  29.7395786  25.6596397
  25.6820943  30.5079019  25.9396540  26.0423609  29.9543172  25.5168042
  11.3834375  26.6001492  24.0516788  11.2858653  25.7897764  24.3606845
  12.1663245  26.5793285  23.6663056  11.4850512  26.4768582  24.0403651
  42.4340516  37.5397671  18.3622979  42.4034520  38.3942308  18.5341248
  43.0321864  37.2392964  18.9209122  42.5177674  37.6214168  18.4697781
  35.6340201  36.6273322  23.1175909  34.7778096  36.7881821  23.1685026
  35.6807854  35.7565386  23.1380970  35.5139312  36.5224124  23.1281975
  30.0181340  46.1636040  18.8813141  29.2664240  45.7851579  18.6529186
  30.4667352  46.1954474  18.1331951  29.9731007  46.1121647  18.7370643
  38.9433917  42.8959848  32.7236365  39.6500684  42.4011879  32.8523300
  39.1321852  43.3368930  31.9939023  39.0761823  42.8878198  32.6345411
  38.4792022  38.6865366  25.7607561  39.0247982  39.3650453  25.8201530
  38.4208898  38.5452827  24.9009142  38.5507936  38.7657368  25.6419621
  31.5966096  46.1754432  21.1475913  31.6976459  45.3654786  21.4573041
  31.0007842  46.0811379  20.5175592  31.5238635  46.0419461  21.1002152
  40.2557090  40.1149973  16.6341289  40.1396616  40.8657660  17.0633427
  41.0512977  39.8573927  16.8837376  40.3561680  40.1884820  16.7345380
  24.7931141  42.1974719  20.7728247  24.5581325  41.3642371  20.6660516
  24.9316781  42.4779385  19.9589448  24.7786803  42.1158222  20.6370602
  27.0921228  34.3660450  23.6712555  26.4726260  33.7753097  23.5022569
  26.9905092  34.9571885  23.0376878  26.9858904  34.3664532  23.5517544
  32.1387416  44.1043996  17.9210631  32.4603257  44.6449204  17.3171939
  32.7859512  43.5340768  18.0532921  32.2813471  44.1003172  17.8517666
  34.1889124  36.1059991  18.0045018  34.8869288  36.2848119  18.4966481
  34.5041456  35.5830331  17.3815407  34.3384461  36.0553763  17.9847028
  26.8190361  37.9112731  25.9156124  26.6949058  38.4975177  26.5505942
  27.4708646  37.4172927  26.2168398  26.8964010  37.9251536  26.0542053
  34.3777059  42.4930436  17.9924809  34.8170695  41.8847537  18.4379582
  34.2281722  42.1137810  17.2210274  34.4198525  42.3468908  17.9443976
  31.8448702  41.0874448  25.1943635  32.4897705  40.5946891  24.8754583
  32.0850479  41.2299235  26.0209713  31.9759287  41.0351890  25.2693168
  34.3834794  43.9329354  24.8450527  34.6658036  43.1380760  24.6237283
  35.1120954  44.4109942  24.8655588  34.5324357  43.8863951  24.8153542
  32.3615987  31.4752388  22.0866292  32.0319317  31.9263532  21.4169991
  31.6860989  31.3968551  22.6339299  32.2126424  31.5303523  22.0689516
  37.9786396  40.8457618  14.9455578  37.8937691  41.7018584  15.0905147
  38.4670779  40.5701942  15.6137737  38.0375293  40.9314939  15.0657660
  39.5692395  27.4637911  20.3315903  39.2545836  28.1541390  20.7636325
  39.0519337  27.4082693  19.6301404  39.4456866  27.5572800  20.2912852
  38.9104829  37.4642412  16.4453313  38.3816300  37.6802045  17.1050620
  39.4329849  38.1578550  16.3654283  38.9093282  37.5985549  16.5308913
  30.8004437  41.3605629  15.2460781  30.2161652  41.8655660  15.6526645
  30.3974532  41.1348016  14.5057373  30.6543741  41.4013877  15.1965807
  26.3548465  47.0760390  22.0484453  25.8716044  47.8010879  22.0244037
  27.1671784  47.3736520  22.1594611  26.4039213  47.2262743  22.0611732
  32.4262619  45.8692570  24.6534267  31.9089561  45.5099985  24.0495576
  33.1237011  45.3454745  24.6640334  32.4528201  45.7390258  24.5664526
  36.0826211  46.3187385  30.6150440  36.1709557  46.1313525  31.4628651
  36.5115924  45.6724814  30.2155287  36.1588314  46.1950392  30.6822192
  33.6496671  45.6018545  29.5968103  33.0867506  45.1891154  30.1207764
  34.4117695  45.5271450  30.0161246  33.6791120  45.5295945  29.7361103
  35.2581651  37.6071281  13.7229702  35.4977655  37.8149264  12.9105045
  35.5797492  36.8028789  13.8318647  35.3418809  37.5185382  13.6190255
  30.5671941  29.5364676  17.5689240  31.3217909  29.9042994  17.3306290
  30.3899476  29.9104231  18.3368420  30.6526420  29.6462864  17.6474128
  29.2092663  47.5916566  22.2004733  29.9113242  47.0768555  22.2577489
  29.1290146  47.9190717  23.0051608  29.3016423  47.5630792  22.3277525
  43.8606840  35.6859117  25.6136779  43.0235261  35.7561304  25.8484374
  43.8295071  35.6883612  24.7411082  43.7325123  35.6969344  25.5196327
  30.2571569  37.8292153  31.3285148  30.4292073  37.7198047  32.1770429
  30.7940927  38.4746558  31.0916340  30.3616573  37.9084154  31.4190245
  28.9229006  31.9434995  14.2667353  28.7404579  32.1606876  13.4408346
  29.7854619  32.0574008  14.3225967  29.0233596  31.9924893  14.1521840
  28.5343438  43.7822918  21.7090341  29.3732337  44.0145850  21.7564102
  28.5655207  42.9127229  21.6397376  28.6625156  43.6879864  21.7054986
  29.1596141  44.2023793  26.0103646  29.6994366  44.0594924  26.6807019
  28.4766087  44.6020544  26.3787673  29.1388295  44.2403464  26.1638068
  34.6028725  28.9461406  17.3016377  35.3314886  28.7677361  16.8554533
  34.6923618  29.7879486  17.5123555  34.7235387  29.0445285  17.2669894
  38.5837026  39.8814793  21.2048671  39.3394541  40.3146308  21.2437579
  38.6899350  39.2319563  21.7783307  38.7107197  39.8492277  21.2946696
  24.5633286  40.4224084  26.1638068  24.2971701  39.6063200  26.3229058
  24.5771850  40.4677239  25.2933583  24.5258008  40.3080988  26.0591550
  41.5414680  30.7501899  24.1980502  42.1840588  30.8200003  24.7842417
  41.7937701  30.0831121  23.6960044  41.6736812  30.6628247  24.2107781
  28.4691033  35.2209168  12.7789826  27.7549210  34.9347348  13.1912259
  28.9535002  35.5605794  13.4196213  28.4350396  35.2290818  12.9345461
  29.3131892  33.9602462  28.8105076  28.6203689  33.4899442  29.0565807
  29.9292220  33.7340766  29.3846783  29.3016422  33.8569594  28.9314228
  35.6438351  43.7239122  13.1551634  36.0589499  43.3924146  12.4636130
  34.8130281  43.4908024  13.0271771  35.5826360  43.6410378  13.0342482
  24.9726700  41.2082863  23.4449812  24.7902273  41.1829749  22.5922104
  25.7076369  41.6781801  23.4838721  25.0540764  41.2744225  23.3247731
  41.0426374  41.4434373  20.5882700  41.2781963  41.5879572  19.7609550
  41.1915938  42.2076781  20.9814213  41.0992177  41.5773427  20.5246304
  28.0372451  37.9267866  29.9531921  28.7612424  37.9120897  30.4396816
  28.1388588  38.6363221  29.4553889  28.1590661  38.0292569  29.9510708
  42.8716831  40.2836039  18.4252304  43.2025048  40.8163679  17.8192398
  43.4449919  40.3374927  19.0814255  43.0050510  40.3705608  18.4330085
  35.4117401  41.4066951  34.8180868  34.6190382  41.7210462  35.0033488
  35.5266328  41.6218419  33.9801652  35.3112811  41.4850787  34.7219203
  38.0848720  38.1300942  19.1075884  38.1795574  38.8690236  19.5615509
  37.4607563  37.7018417  19.5410448  38.0057750  38.1762262  19.2384031
  36.3401194  41.3087154  29.7566165  36.9140055  40.6714398  29.9114728
  36.2615997  41.3091237  28.8875822  36.4134429  41.2152266  29.6512575
  24.9397610  38.0876364  23.5948879  25.5171113  37.9512815  24.2341124
  24.2411672  37.6312148  23.8494463  24.9218632  37.9998630  23.7271168
  38.3371741  39.9749681  12.3412836  38.2551904  40.0451869  13.2067823
  38.9751462  40.5379425  12.1496576  38.4191579  40.0688653  12.4402785
  31.6964912  39.7410419  21.8087362  31.4384157  38.9082154  21.7818661
  31.7513395  39.9668032  20.9679862  31.6664690  39.6508191  21.6807499
  36.7765962  31.8438870  21.9091455  36.0722289  31.3548056  22.0675374
  36.8250937  31.8561345  21.0379899  36.6796014  31.7728518  21.8030794
  30.6699624  37.2948182  22.2952257  30.0949216  37.4540350  22.9316218
  30.2935301  36.6583591  21.8320707  30.5302437  37.2245995  22.3206815
  34.3372913  35.7671531  27.1544635  33.9487346  35.3425749  26.4996826
  33.6727611  36.0153681  27.6621662  34.1819841  35.7410252  27.1332503
  43.9796182  35.5246536  19.9292465  43.7232747  34.7126477  19.7390348
  44.8225496  35.5324103  19.7022653  44.0662208  35.4058533  19.8677282
  20.4156443  36.9388257  20.3096697  20.5016695  36.5620125  21.0910227
  21.0432241  36.5648702  19.8316656  20.5212994  36.8273739  20.3542175
  38.1599275  29.4646160  24.6668619  38.5409786  28.7824331  25.0536494
  37.3562559  29.1755762  24.4844284  38.0975736  29.3213208  24.6972675
  35.4411851  39.9970136  15.3521442  36.2552490  40.2885029  15.2404213
  35.3770993  39.3429998  14.7779735  35.5514590  39.9435330  15.2510279
  31.3119760  43.4691653  20.4793754  31.9493707  43.2303401  21.0245548
  31.7374831  43.6728812  19.7446915  31.4695926  43.4642663  20.4510912
  26.0032402  45.7079990  24.3628058  26.0436547  45.9794841  23.5347838
  26.5626926  46.2321898  24.7785846  26.0915748  45.8255745  24.3019946
  31.9522575  38.6893943  14.8168644  32.3367727  38.4701650  15.5685189
  31.7034195  39.5156888  14.9469720  31.9724647  38.7792089  14.9469720
  32.1191115  31.9700358  34.5331228  31.8044556  32.7399921  34.2700791
  31.7981048  31.4070614  33.9483455  32.0250034  32.0010627  34.4072578
  33.6941232  43.9464076  22.1587540  33.7680240  43.7839248  23.0129390
  34.5110738  44.1354265  21.9148022  33.8257590  43.9500818  22.2485566
  27.4546988  44.2921939  19.1881984  26.6285106  44.5383676  19.0616263
  27.5158979  44.2134020  20.0544042  27.3421155  44.3166888  19.2970928
  29.6723012  30.3590880  20.1477424  28.8045437  30.4313479  20.2135033
  29.9598216  31.1612959  20.3365399  29.5862760  30.4885027  20.1852191
  38.7955901  30.5068739  28.4788746  39.5409493  30.3178549  28.0652171
  38.3793205  31.0326977  27.9202602  38.8440875  30.5570884  28.3353319
  32.2345817  46.9098819  16.8901014  32.5244116  46.5187800  16.1660240
  32.9649298  47.0915524  17.3306289  32.3852701  46.8792633  16.8483821
  32.8240562  41.7116565  27.9754144  32.3252256  42.4232333  28.0539033
  33.6340787  42.0317231  27.9372307  32.8696669  41.8643413  27.9810713
  30.1751733  48.8866201  19.9561164  29.9552028  48.5963556  20.7487831
  29.9546255  48.2281156  19.4279076  30.1099327  48.7465910  19.9950072
  29.0868680  40.9739518  22.2216865  28.7981929  40.3476989  22.7562593
  29.9552028  40.9159805  22.2881546  29.1728932  40.8727062  22.3107820
  39.8746578  36.1174301  22.5398847  39.5311344  35.3964636  22.8906097
  39.9739620  35.9088152  21.6977205  39.8388621  35.9798504  22.4670527
  29.2900953  42.6134769  18.1459230  30.0446921  42.9947808  18.3594693
  28.6971566  43.0645913  18.6005927  29.3137667  42.7363596  18.2442109
  31.7507620  34.5697609  33.2716443  30.9407396  34.8755389  33.1606285
  32.2282307  35.2903192  33.3869027  31.7011099  34.7212210  33.2723514
  30.6099180  43.7843330  23.5199346  30.0879934  43.9243622  24.2051210
  30.9973200  43.0253995  23.7101463  30.5902881  43.6928854  23.6500422
  27.5990364  33.8349139  17.5894300  27.3115160  33.4650409  16.8526248
  28.2860832  34.3043994  17.3278005  27.6579261  33.8496108  17.4409376
  32.0365506  40.8147349  18.9180837  31.8408288  41.4222084  18.3241140
  32.2599851  40.1215293  18.4372511  32.0400147  40.8024875  18.7596918
  30.4344036  37.7002087  19.0361705  31.1566688  37.8643245  18.5765511
  29.9552028  38.4211752  18.9301045  30.4707766  37.8300317  18.9527319
  38.3937543  34.0365886  24.4158390  37.5548644  34.0627165  24.1796653
  38.4641911  34.6836621  24.9963737  38.2805937  34.1362012  24.4667507
  28.0851652  40.1060160  28.1415845  28.5972749  40.3844413  27.4924605
  27.7987995  40.8449454  28.5078658  28.1186515  40.2562513  28.1005723
  36.8406822  30.9351263  19.1486006  37.5433174  30.7359011  18.6705964
  36.5751010  30.1627205  19.4554849  36.9053454  30.7914229  19.1231448
  42.2695067  39.2433873  21.7019632  42.1829042  39.3989299  22.5554411
  41.8145547  39.8871948  21.3279037  42.1898324  39.3609628  21.7726739
  25.1718559  34.6130351  18.4379581  25.2734695  35.4156513  18.7660557
  25.9674445  34.4117687  18.1402662  25.3046464  34.7016250  18.4414937
  31.6035378  32.1986548  28.2016887  31.4118575  32.2141683  29.0516310
  32.4533974  32.3950222  28.1783541  31.7011100  32.2300899  28.3240181
  25.9882291  34.7277530  26.1800703  25.8467783  33.8761470  26.3045211
  26.2722854  34.7706190  25.3562909  26.0090137  34.6077280  26.0768327
  36.1420883  36.5644620  20.3245191  35.8955597  36.4840371  21.1581980
  36.4706006  35.7798088  20.1307719  36.1542127  36.4370885  20.4192714
  38.3747017  39.5724355  30.3654354  38.3695056  38.7004171  30.3696781
  39.0808011  39.7712524  29.8923810  38.4792021  39.4728229  30.2961390
  32.1017910  39.3001338  29.7368174  32.2461286  39.8802547  29.1011284
  32.4493559  39.6777635  30.4418029  32.1745372  39.4422042  29.7467169
  34.2737828  38.4991507  27.5193306  33.5261142  38.6922521  27.1141584
  34.4279353  37.6736726  27.2817427  34.1860255  38.4056618  27.4238712
  31.1745665  47.4904110  26.6029201  31.3235229  46.9307026  25.9502606
  31.9545667  47.5696112  26.9861720  31.3119759  47.4189676  26.5626150
  34.5139605  32.3942058  28.4088710  34.9712219  33.1266032  28.5361502
  34.5895934  31.9708523  29.1675966  34.5930575  32.4399296  28.5389786
  26.7572596  32.6407877  29.4978153  26.2214785  32.0288235  29.8138921
  26.8190361  33.2156013  30.1511820  26.6868229  32.6354805  29.6413580
  38.9866931  25.5731933  22.2782553  39.1050499  26.0308396  21.5449855
  38.8129106  24.7677194  21.9918770  38.9786102  25.5225705  22.1283486
  34.3569213  46.1819752  18.7137298  35.1219104  45.9129396  18.3919962
  34.2547303  45.6969762  19.4307361  34.4550708  46.0709317  18.7717126
  32.3921983  34.3844161  25.2530534  31.6018057  34.2035622  25.5747870
  32.7882606  33.6071114  25.2360828  32.3338859  34.2431622  25.2983082
  37.7765669  42.0186592  22.9789980  37.1010671  41.7871824  23.4803367
  37.7858045  41.4107775  22.3532085  37.6784174  41.8945517  22.9606132
  34.9059813  36.8604421  29.7354033  34.8418954  37.7214377  29.6074169
  35.0457001  36.5436414  28.9349584  34.9175283  36.9404587  29.5982245
  33.5878907  39.5536560  23.8770236  33.1641156  39.7541059  23.1409254
  33.4123762  38.7065408  23.9894535  33.4989787  39.4585341  23.7843926
  28.8761352  40.0488611  19.3098208  29.0325971  39.9835414  20.1654200
  29.2161945  40.8237164  19.0976888  28.9494587  40.1537809  19.4052802
  35.4140496  39.4246495  18.1791571  35.9556042  38.9216876  18.6430192
  35.7287055  39.3711690  17.3681057  35.5404894  39.3425916  18.1275383
  33.5826946  44.8163846  15.4631599  33.6519766  43.9578385  15.6024600
  34.3615401  45.0335727  15.1350624  33.7079796  44.7216710  15.4348757
  36.5629766  34.3182799  28.2313872  36.7771735  33.6793714  27.6777226
  35.9463665  34.7628623  27.8021733  36.5035095  34.2892943  28.0864303
  25.4495613  37.2323562  19.6258975  25.8294578  37.6508107  18.9619243
  24.8750978  37.8137017  19.9327819  25.4206938  37.3801421  19.5735716
  38.7268854  35.9271865  29.1697179  37.9145536  35.6197755  29.2510352
  39.1858788  35.4470865  29.7339891  38.6749239  35.8108357  29.2651773
  38.1374109  43.8051537  19.6174123  37.7788763  43.9766179  20.3938156
  37.6512819  44.2664742  19.0602122  38.0132805  43.8990508  19.6499392
  35.9544494  27.4282735  23.2201215  35.0838052  27.4021456  23.1734524
  36.2084836  27.2559927  22.4027060  35.8638055  27.3992879  23.0921351
  32.9262474  39.4850702  12.1574358  33.2154999  40.2615584  12.4317932
  33.0134273  38.9739433  12.8588857  32.9816730  39.5242620  12.3016855
  35.8222361  37.3331936  33.9525881  36.2921993  37.9574052  34.3393755
  35.8684242  36.6648912  34.5119096  35.8990237  37.3266616  34.0925953
  32.9793635  29.4388964  24.6774685  32.4632124  28.7469155  24.8026264
  32.4187564  30.1059741  24.6237284  32.8200148  29.4352221  24.6880751
  35.0485868  29.9781924  26.5067538  34.6617622  30.0030955  27.2881067
  34.5618806  29.4123602  26.0542054  34.9198377  29.8977674  26.5555441
  41.0235848  36.5444578  25.1307240  40.5963456  36.4570927  24.3755339
  40.3861901  36.6522354  25.7162084  40.8665455  36.5477238  25.1052681
  34.7143010  26.8648909  28.7977797  35.3436128  27.4009209  28.5198868
  34.8828873  26.7726268  29.6491363  34.8320805  26.9310271  28.8826326
  34.5156925  31.6520104  31.0704209  35.3430354  31.3805253  31.1262823
  34.5364771  32.4480945  31.4268027  34.6409775  31.7299858  31.1319392
  29.0926415  38.7983967  24.2574470  28.2514421  38.6987841  24.4653364
  29.3016423  39.5679447  24.6088790  28.9991107  38.8976010  24.3401785
  26.5701982  36.4203503  22.0859220  26.1758680  36.4946515  21.3109330
  26.0142099  36.8061450  22.6367582  26.4304794  36.4885278  22.0526880
  38.2066929  29.3984798  21.7663099  38.4116522  29.3307105  22.6120096
  37.8793353  30.2043619  21.6984277  38.1882177  29.5070738  21.8822754
  32.9043080  36.7265366  23.5072067  32.6006217  36.1721354  24.1082475
  32.2022501  36.9057576  23.0200101  32.7559290  36.6710148  23.5241773
  31.9609177  34.0365886  18.0716769  32.2368911  33.3184798  17.6594337
  32.5607846  34.6350805  17.8637875  32.0902441  34.0186256  17.9797530
  30.9661431  43.9415086  28.2144165  30.8581786  43.9517149  29.0806223
  31.1757212  44.7669867  28.0249119  30.9811542  44.0656161  28.3148257
  41.4600616  29.9516562  21.2465865  40.8474930  30.4386964  21.6319597
  41.5564791  29.2760053  21.7903516  41.3838514  29.9234870  21.3844723
  35.4619697  31.7079403  16.3463364  35.9163444  31.8789963  17.0711209
  35.9359743  31.0947514  15.9461140  35.5988017  31.6430288  16.3937126
  28.9835223  41.1927729  25.6766103  28.3923156  41.8337227  25.6469118
  29.7456246  41.6165346  25.6497402  29.0083483  41.3503567  25.6681250
  29.3795846  32.3529727  26.3434120  29.8397327  32.4268656  27.0809244
  29.4251952  33.1510981  25.9933942  29.4546401  32.4823874  26.4006877
  31.0279195  33.0196421  30.9106147  30.6364760  32.3729769  31.3461925
  31.1965058  33.6107857  31.5300403  30.9950106  33.0110689  31.0668853
  32.8032717  38.4121937  17.4508371  33.5474762  38.7996214  17.6891321
  32.9493414  37.5679363  17.6148859  32.9343302  38.3452410  17.5102341
  34.7212293  30.2072196  22.4840233  33.8748338  30.3795004  22.3581583
  34.7183425  29.4021540  22.8206061  34.5959443  30.1133225  22.5151360
  35.7910593  33.9847411  23.3502291  35.3170547  33.4589173  23.8607602
  36.1628729  33.4376883  22.7817152  35.7760482  33.8263407  23.3417438
  26.1683623  35.9818917  28.7185836  27.0309236  35.8814626  28.6323166
  25.8375406  35.4013627  28.1571409  26.2468820  35.8810544  28.6231242
  42.0547324  39.0449786  24.7609071  41.8145547  38.2056201  24.7651498
  42.5339331  39.1249953  25.4849845  42.0899507  38.9331186  24.8683873
  37.7194093  34.8783965  16.4128044  37.1917111  34.9612709  15.7233753
  38.1789801  35.6201837  16.4092689  37.7095943  35.0004628  16.3102740
  44.0552511  35.8251243  22.7138330  43.8162281  35.7847078  21.8759115
  44.2186412  36.6722395  22.8404051  44.0442814  35.9443328  22.6091812
  40.6598541  40.2101193  28.6443375  41.3832740  39.7573719  28.4654395
  40.3948503  40.4905858  27.8615703  40.7279814  40.1852161  28.5022091
  29.5285409  34.8061366  25.3796255  28.9038479  34.8179758  24.7722207
  29.1931004  35.2821541  26.0287495  29.3870901  34.8779883  25.3852823
  29.7127158  33.1486485  11.4368940  29.3639962  33.8006210  11.9000489
  29.2323604  33.1343598  10.7092811  29.5897402  33.2429538  11.3980031
  26.2411085  42.8661826  26.8200019  25.7111009  42.1754265  26.8694994
  26.5136178  42.8572012  25.9912727  26.2035807  42.7628958  26.7047435
  37.2731175  43.4487529  15.5437701  37.9965374  43.9145642  15.4002275
  36.8331766  43.5161138  14.7935298  37.3146868  43.5271365  15.4122483
  36.4417330  40.3085071  26.7938390  35.8274324  39.7643121  27.0887026
  36.9584615  39.7949307  26.3144207  36.4272993  40.1521480  26.7662619
  35.6813628  41.3789341  24.5282689  35.2541236  40.7539060  24.0948124
  35.6738572  41.0964263  25.3541696  35.6172769  41.2442122  24.5862517
  28.7976155  36.4154514  27.5971123  28.9569641  35.6597838  28.0022845
  28.6169048  36.9645454  28.2511861  28.7941514  36.3848328  27.7533829
  36.7396458  28.5815750  28.1521913  36.2437019  28.7779424  27.4613479
  37.4965520  28.9808418  27.9810714  36.7783282  28.6693483  28.0242049
  34.0099337  32.2558096  24.7425223  34.0341824  31.7218208  24.0538003
  34.2610811  31.7475404  25.4050814  34.0509256  32.1019000  24.7389868
  21.5206927  39.5389591  24.1768367  21.4150376  39.4936435  23.3120451
  20.7707147  39.8843371  24.4582652  21.3942530  39.5830499  24.0905697
  30.2900659  30.9828914  24.1230967  30.3299031  31.4838120  24.8365675
  29.4650324  31.0739307  23.8536890  30.1740185  31.0710730  24.1881506
  32.4730272  40.5489654  32.2251262  31.6225903  40.6861368  32.3608907
  32.6358400  39.8153432  32.6698964  32.3714136  40.4603755  32.3106861
  31.7115023  37.4989424  26.4204866  30.8806953  37.6663242  26.2140115
  31.6566540  37.1225374  27.2053752  31.5804438  37.4679155  26.5053395
  29.5198806  30.9898317  32.0561277  30.1451510  30.4460449  32.3290709
  29.0649286  30.5093234  31.4869067  29.5447067  30.8387798  32.0122871
  30.0851067  35.7745015  16.9494984  30.2254028  36.2717479  17.6523625
  30.5833600  35.0731310  17.0909198  30.1792148  35.7446994  17.0746563
  30.1151289  36.6412126  14.2787561  30.7496369  37.2372551  14.2137023
  30.1976900  36.3415584  15.0933431  30.2207840  36.6853034  14.3890648
  43.0933855  39.1727604  27.1473925  43.6851695  39.8124854  27.1792123
  43.5292849  38.4750640  27.4365992  43.2452286  39.1645954  27.1954758
  31.6930272  32.5726102  14.2533003  32.0146113  32.0929184  13.5992265
  31.9557216  33.3825748  14.0623815  31.7796297  32.6216000  14.1288495
  34.9227245  43.5944976  27.7731819  34.4152336  44.1480823  28.2172450
  34.6253891  43.6553266  26.9550594  34.8032130  43.6851287  27.7180276
  37.0889427  31.9598296  26.6156482  37.5144499  31.5070822  26.0040008
  36.4746420  31.4058366  26.8921269  37.0618072  31.8112272  26.5661507
  26.6204277  38.8379967  17.5477107  27.1296506  39.4344474  17.9288412
  27.0938549  38.5705941  16.8653527  26.7647653  38.8865782  17.5031630
  35.5283650  28.4313395  20.0247059  34.8851968  28.2811042  20.5932197
  35.1883057  28.1855741  19.2596164  35.3828727  28.3725518  19.9950074
  40.1182996  36.3872822  19.4477068  39.4474186  36.9302524  19.3190133
  40.8122747  36.8567678  19.2058762  40.1211864  36.5371093  19.3932595
  40.2811124  32.8428706  22.3567441  40.6338734  32.4158429  23.0313240
  39.4225925  32.7579549  22.4868517  40.2060568  32.7673446  22.4762451
  28.9794809  35.4736226  20.4150287  28.2606798  35.8900358  20.6823151
  29.3507171  36.0390464  19.8641926  28.9286741  35.6185507  20.3733094
  38.2794390  36.1064074  26.3052283  38.2592317  35.9247370  27.1587062
  38.3273590  36.9776093  26.2811867  38.2829031  36.2080613  26.4275578
  36.2240719  42.6951266  32.2300760  36.1836574  42.0500943  31.6445916
  37.0364038  42.6387884  32.5426172  36.3383873  42.5910233  32.1897709
  34.7541383  34.5134225  15.7523667  34.1606222  34.8351222  15.2008234
  34.7916661  33.6675321  15.5444773  34.6715772  34.4358554  15.6406438
  41.7135184  27.9647118  23.2851753  41.2066048  27.2576257  23.2172931
  42.5102618  27.6340307  23.4152830  41.7562423  27.8120269  23.2950748
  37.6299200  34.4713730  19.1825417  37.4012893  34.4946431  18.3403775
  37.8897276  33.6471197  19.3020428  37.6345388  34.3529810  19.0750615
  31.9118428  36.3248203  28.7850517  31.3997331  35.7169386  29.1435549
  31.7397924  37.0404796  29.2524493  31.8108065  36.3411502  28.9066741
  26.7584143  34.7685778  31.4352879  26.5886733  35.4287153  30.8901086
  26.3150093  34.9792340  32.1565368  26.6683476  34.8971760  31.4614509
  30.6843962  33.0090276  20.4779613  31.1601328  33.3707356  19.8429794
  30.1832562  33.6646744  20.7579755  30.6809321  33.1584465  20.4256354
  35.7887498  34.2472448  31.2252773  36.3458929  34.0186257  30.5931238
  35.4648563  35.0078113  30.9487985  35.8233909  34.3256284  31.0909270
  23.6586207  37.6732644  26.6941369  23.1112927  37.0033289  26.8122237
  24.4478586  37.3062492  26.7584836  23.6938391  37.5197630  26.7210069
  33.5070616  37.3340101  32.1904780  34.2581943  37.6491778  32.5044334
  33.6993192  37.1319272  31.3638702  33.6462030  37.3507483  32.1148176
  32.7270615  35.1531476  13.8452997  33.1069580  35.1711105  13.0604111
  31.9863211  35.5985465  13.7243844  32.6739453  35.2213251  13.7116565
  40.3555906  33.4613667  19.4328575  40.3550132  33.3062324  20.2912852
  40.1512086  34.3076654  19.3769961  40.3255684  33.5634288  19.5516515
  22.4173177  36.8853452  23.8487392  22.2394938  36.4330061  24.5742308
  22.1292199  37.6879613  24.0325869  22.3486130  36.9376009  23.9830895
  38.0796758  38.1411169  23.0864782  38.5750423  37.4234164  23.0468803
  37.2696534  37.8381967  22.9719269  38.0340651  37.9908815  23.0638508
  33.5255369  41.9908982  15.2361787  32.7166692  41.6675656  15.1895096
  34.0330278  41.2842204  15.1690035  33.4805036  41.8390299  15.2192081
  24.1545647  39.4181175  20.9609151  23.2891166  39.4066866  20.8491922
  24.2544463  39.2311398  21.8080290  24.0419814  39.3887237  21.0698095
  40.1448577  40.8914857  25.7741911  40.5703648  40.3689278  25.2212336
  39.7805497  41.4895694  25.2530534  40.1535179  40.9025084  25.6150921
  36.7327176  44.6049121  22.1043068  37.2038354  45.3189383  22.2733054
  37.0687355  44.0047871  22.6402938  36.8522291  44.6220585  22.2075444
  33.6496671  29.3776591  29.0601163  33.7824577  28.5807585  29.3882139
  34.0341824  29.9042994  29.6399439  33.7253000  29.3376508  29.1944666
  37.3701123  44.3967055  28.8670761  36.8222069  43.7724939  28.5990826
  37.8314151  44.5861327  28.1514841  37.3568332  44.3326105  28.7221192
  36.7229026  26.3006917  25.6582257  35.9174990  26.1904647  25.9750095
  36.5935762  26.4019373  24.8012122  36.5849159  26.2990588  25.5790297
  40.1794987  32.4652409  26.2521953  39.5957976  32.9661616  25.8399521
  40.4999281  31.9581966  25.6186277  40.1408162  32.4644244  26.0980461
  32.7189786  31.3793004  16.5280628  33.5405480  31.5491317  16.2862323
  32.2559437  31.5340265  15.8046926  32.7720948  31.4274737  16.3852273
  31.3085118  29.3735766  27.3079057  31.8529531  29.0326893  27.8983399
  31.3622054  30.2321228  27.4500342  31.3974237  29.4491026  27.4160930
  27.1215677  43.1352182  24.1817865  27.7260534  43.0948017  23.5531686
  26.9142989  43.9823334  24.2121921  27.1804574  43.2540185  24.0933981
  22.3566959  42.1186800  24.0516788  22.2591237  41.3083071  24.3606845
  23.1395829  42.0978593  23.6663056  22.4583095  41.9953890  24.0403651
  27.6652157   4.3152671  19.6576412  28.3718925   3.8204702  19.7863346
  27.8540093   4.7561753  18.9279070  27.7980063   4.3071022  19.5685457
  23.7328832   9.9568502   7.1849846  24.1168211  10.5255400   6.6454621
  23.6687973   9.2318012   6.7055662  23.7802259   9.9343965   7.0343709
  20.3184337   7.5947256   8.0815960  20.4194700   6.7847610   8.3913088
  19.7226082   7.5004202   7.4515638  20.2456875   7.4612284   8.0342198
  20.1585076  12.5124845   9.4830816  20.8022532  12.9538009   9.8726974
  20.4841332  11.7078271   9.3961075  20.3016905  12.4590040   9.5276293
  15.5408602  -0.6694445  12.8496170  15.4167298  -0.0832000  13.4845989
  16.1926886  -1.1634250  13.1508445  15.6182251  -0.6555641  12.9882100
  20.5666943   2.5067272  12.1283681  21.2115945   2.0139715  11.8094630
  20.8068720   2.6492058  12.9549760  20.6977528   2.4544714  12.2033215
  23.1053034   5.3522177  11.7790574  23.3876277   4.5573583  11.5577330
  23.8339194   5.8302765  11.7995635  23.2542598   5.3056774  11.7493589
  33.0871122   4.4581540   8.7526405  32.2568825   4.6692183   8.9159821
  33.0380375   3.6318594   8.4768688  32.9577858   4.3671146   8.7363770
  15.0766706   8.4953213   8.9824500  14.5934284   9.2203703   8.9584083
  15.8890024   8.7929343   9.0934657  15.1257453   8.6455567   8.9951779
  21.1480860   7.2885394  11.5874314  20.6307801   6.9292809  10.9835622
  21.8455251   6.7647568  11.5980380  21.1746441   7.1583082  11.5004573
  24.8044452   7.7380208  17.5490487  24.8927798   7.5506348  18.3968698
  25.2334164   7.0917637  17.1495334  24.8806554   7.6143215  17.6162239
  22.3714912   7.0211368  16.5308149  21.8085746   6.6083978  17.0547811
  23.1335935   6.9464273  16.9501293  22.4009360   6.9488768  16.6701150
  17.9310903   9.0109389   9.1344780  18.6331482   8.4961378   9.1917536
  17.8508386   9.3383540   9.9391655  18.0234663   8.9823615   9.2617572
  18.9789810  -0.7515024  18.2625195  19.1510313  -0.8609130  19.1110476
  19.5159167  -0.1060619  18.0256387  19.0834814  -0.6723022  18.3530291
  17.2561678   5.2015741   8.6430388  18.0950578   5.4338674   8.6904149
  17.2873448   4.3320052   8.5737423  17.3843396   5.1072687   8.6395032
  17.8814381   5.6216616  12.9443693  18.4212606   5.4787747  13.6147066
  17.1984328   6.0213367  13.3127719  17.8606535   5.6596287  13.0978115
  27.3055266   1.3007617   8.1388718  28.0612781   1.7339131   8.1777626
  27.4117591   0.6512386   8.7123354  27.4325437   1.2685101   8.2286743
  30.3435437   5.1280894   8.8891121  29.9070669   5.1317636   9.6450092
  30.0098353   5.8086393   8.4570698  30.2298057   5.2293350   8.9371953
  24.9164511   7.1689227  20.2134271  25.7004928   7.2820075  20.5790013
  24.7161106   6.3430364  20.4092957  25.0030536   7.0635946  20.2968657
  13.2851526   1.8416907  13.0978115  13.0189942   1.0256024  13.2569105
  13.2990091   1.8870062  12.2273630  13.2476249   1.7273812  12.9931597
  25.0734904   9.0799329  13.8600726  24.2750150   8.8398829  14.1174595
  25.5220916   9.1313722  14.6067774  25.0209516   9.0521720  14.0085651
  29.7644614   2.8627196   7.5222747  30.0000204   3.0072395   6.6949597
  29.9134178   3.6269604   7.9154260  29.8210418   2.9966251   7.4586350
  16.7590692  -0.6539311  16.8871968  17.4830664  -0.6686280  17.3736862
  16.8606828   0.0556044  16.3893936  16.8808901  -0.5514608  16.8850754
  24.1335641   2.8259774  21.7520915  23.3408622   3.1403286  21.9373534
  24.2484568   3.0411242  20.9141699  24.0331052   2.9043610  21.6559249
  25.0619434   2.7279978  16.6906211  25.6358296   2.0907222  16.8454775
  24.9834238   2.7284060  15.8215869  25.1352669   2.6345089  16.5852622
  30.3839582   4.0988955  16.6991065  30.1478219   3.2677020  16.5803125
  31.0282811   4.0474562  17.2845909  30.4434253   3.9686643  16.7676958
  20.0338000   4.8884476   7.4133801  20.6711947   4.6496224   7.9585594
  20.4593072   5.0921635   6.6786962  20.1914166   4.8835487   7.3850958
  14.7250642   7.1272813  11.2968105  14.7654788   7.3987664  10.4687884
  15.2845166   7.6514721  11.7125893  14.8133988   7.2448568  11.2359993
  31.4076002   3.8833404  12.7619359  31.1021820   4.6161461  13.1232675
  30.6882218   3.4771333  12.4812145  31.2563345   3.9315137  12.7732496
  22.4159472   5.3656899   9.0927587  22.4898480   5.2032071   9.9469437
  23.2328978   5.5547089   8.8488069  22.5475831   5.3693641   9.1825613
  21.5458803   3.1309388  14.9094191  21.0470496   3.8425156  14.9879080
  22.3559027   3.4510055  14.8712354  21.5914910   3.2836237  14.9150760
  18.8969973  10.3059025   6.8901210  18.6770269  10.0156379   7.6827877
  18.6764495   9.6473980   6.3619123  18.8317567  10.1658733   6.9290119
  21.0637929  11.6788414   5.6731903  21.7161987  11.1464857   5.9022929
  20.3663538  11.3257067   6.0599777  21.0568647  11.5477937   5.7644071
  29.0577847   3.9992829   5.0162882  29.6235880   4.6586038   4.9321425
  28.4105751   4.3442527   5.4879284  29.0456604   4.1474770   5.0735639
  19.3317420   5.2036153  10.4539393  18.8098174   5.3436445  11.1391257
  19.7191441   4.4446818  10.6441510  19.3121121   5.1121677  10.5840469
  25.5284425   6.9431613   4.4399961  25.2871101   6.2099473   4.0327026
  25.7085758   7.4918470   3.7866295  25.5192049   6.9154004   4.2830184
  16.8069893   1.5252983  15.0755892  17.3190990   1.8037236  14.4264652
  16.5206235   2.2642277  15.4418705  16.8404756   1.6755337  15.0345770
  28.7587172   4.6920802  11.0472019  28.6201532   5.3901848  11.5520762
  27.9787170   4.5369459  10.6908201  28.6230399   4.7720969  11.0698294
  20.8236151   0.7194162  16.6708221  20.9679527   1.2995370  16.0351331
  21.1711799   1.0970458  17.3758076  20.8963612   0.8614866  16.6807216
  22.9956068  -0.0815670  14.4533353  22.2479382   0.1115344  14.0481631
  23.1497593  -0.9070450  14.2157474  22.9078496  -0.1750559  14.3578759
  19.8963906   8.9096933  13.5369248  20.0453470   8.3499849  12.8842652
  20.6763908   8.9888935  13.9201767  20.0337999   8.8382499  13.4966197
  22.4217206   9.0811576  14.8153739  22.3460877   8.4120387  15.3704527
  22.3507066   9.7829365  15.3294405  22.3997813   9.0856484  14.9730587
  23.0787453   7.6012575   5.6477345  23.8437344   7.3322219   5.3260009
  22.9765543   7.1162586   6.3647408  23.1768949   7.4902140   5.7057172
  26.4983909   3.4379415   9.9130026  25.8228911   3.2064647  10.4143413
  26.5076285   2.8300598   9.2872131  26.4002414   3.3138340   9.8946179
  22.3097147   0.9729383  10.8110282  21.8859396   1.1733882  10.0749301
  22.1342002   0.1258231  10.9234582  22.2208028   0.8778165  10.7183972
  21.8108841  12.4879896  13.2731740  22.3004771  11.7890685  13.0907404
  21.2393073  12.1903766  13.8607797  21.7993371  12.3406120  13.3332780
  28.0075844   5.0541966  22.2258530  28.8210710   4.7827114  22.3863663
  27.8470811   4.7549505  21.4218726  28.1045793   4.9696892  22.1303936
  26.6952674   8.6594371   6.6108139  26.3032466   8.3561086   5.8931006
  26.8505746   9.4963461   6.4213093  26.6606264   8.7378208   6.4764637
  26.8592349   5.2244360   6.5514170  26.5007004   5.3959003   7.3278202
  26.3731060   5.6857565   5.9942168  26.7351046   5.3183331   6.5839439
  28.0197088   6.1148256  17.4981371  28.6576809   5.6208451  17.1643827
  27.3771180   6.0425656  16.9133598  28.0191315   6.0307264  17.3623726
  28.0751345   6.8068064  14.1386728  28.8643723   6.4557129  14.2588809
  28.2494943   7.6204452  13.8763361  28.2171626   6.8753921  14.1174596
  17.8144655   0.2176790  11.1914516  16.9732662   0.1180664  11.3993410
  18.0234663   0.9872270  11.5428837  17.7209348   0.3168833  11.2741831
  19.6879671   5.3607910  15.1484212  19.5800026   5.3709972  16.0146270
  19.8975453   6.1862690  14.9589166  19.7029782   5.4848985  15.2488303
  17.7053463   2.6120552  12.6106149  17.1141396   3.2530050  12.5809164
  18.4674487   3.0358169  12.5837449  17.7301724   2.7696391  12.6021297
  27.4642979   8.0629864  10.0438174  27.2662668   8.5520678   9.3494385
  26.8430690   8.2671105  10.6222307  27.3430544   8.1646402  10.0261397
  14.9629325   4.2854650  13.7540066  14.4329250   3.5947089  13.8035040
  15.2354419   4.2764835  12.9252774  14.9254048   4.1821781  13.6387482
  25.1635571   1.7277894  13.7278437  24.5492564   1.1835945  14.0227073
  25.6802856   1.2142131  13.2484253  25.1491233   1.5714303  13.7002666
  24.4031868   2.7982164  11.4622736  23.9759476   2.1731883  11.0288171
  24.3956812   2.5157086  12.2881743  24.3391009   2.6634945  11.5202563
  17.5194395  -2.1652663  14.5311170  17.6787882  -2.9209339  14.9362892
  17.3387289  -1.6161723  15.1851908  17.5159754  -2.1958849  14.6873876
  21.1948513   1.9682477  19.1591309  20.3444143   2.1054191  19.2948954
  21.3576640   1.2346255  19.6039010  21.0932376   1.8796578  19.2446908
  20.4333263  -1.0817753  13.3544913  19.6025193  -0.9143935  13.1480161
  20.3784780  -1.4581802  14.1393799  20.3022678  -1.1128022  13.4393441
  23.6445485   5.0137799  14.7071866  23.1370576   5.5673646  15.1512496
  23.3472131   5.0746089  13.8890640  23.5250370   5.1044110  14.6520323
  22.8887970   9.9462357  11.6128873  22.6653625   9.1881187  11.9812899
  22.3997814   9.9760379  10.8909312  22.7831419   9.8384582  11.5605614
  24.9458960   4.1144090  19.1640806  24.9054815   3.4693767  18.5785962
  25.7582278   4.0580707  19.4766218  25.0602113   4.0103057  19.1237756
  21.5366427  10.1662816   9.0665957  21.1226826   9.5036946   8.6769799
  22.2213802  10.3140674   8.5461652  21.5764799  10.0903474   8.9322454
  24.9031721   9.3252901   9.8189574  24.5048005   9.4355171   9.0510394
  24.2882941   9.5334967  10.4016134  24.7530611   9.3726469   9.7920873
  28.8666817   2.3107680  12.7081958  29.2921889   1.7882102  12.1552383
  28.5023737   2.9088517  12.1870581  28.8753420   2.3217907  12.5490968
  18.5020897  10.6071897  11.4679303  18.8167456  11.4208286  11.4757085
  18.9114310  10.2222116  12.1361462  18.6088995  10.6700600  11.5683395
  25.4545417   6.0241944   9.0383115  25.9256595   6.7382207   9.2073101
  25.7905595   5.4240694   9.5742985  25.5740532   6.0413408   9.1415491
  27.5422401   7.6343257  21.2175187  27.6519367   6.8451818  21.5731935
  27.8713298   7.5449194  20.4149525  27.6074807   7.5049110  21.1517578
  26.0919363   5.8159878  15.8010808  25.5440309   5.1917762  15.5330873
  26.5532392   6.0054150  15.0854887  26.0786572   5.7518928  15.6561239
  15.8433917   4.5545006  11.1157912  16.4478774   4.5140840  10.4871732
  15.6361230   5.4016158  11.1461968  15.9022814   4.6733008  11.0274028
  25.6577689   6.8210951  12.3320149  26.4776063   6.6773917  12.5936444
  25.3771767   7.4457150  12.8736587  25.7374433   6.8921303  12.4508089
  35.3291024  13.5651454  10.0515956  34.4728920  13.7259952  10.1025073
  35.3758678  12.6943518  10.0721017  35.2090136  13.4602255  10.0622022
  29.7132164  23.1014171   5.8153187  28.9615064  22.7229710   5.5869233
  30.1618176  23.1332605   5.0671998  29.6681831  23.0499779   5.6710690
  38.6384741  19.8337979  19.6576412  39.3451508  19.3390010  19.7863346
  38.8272676  20.2747061  18.9279070  38.7712647  19.8256330  19.5685457
  35.1657124  23.5239541   1.2438735  34.8308493  24.2016463   0.8082957
  35.6783994  23.1344852   0.6555606  35.1922705  23.5664119   1.0925526
  34.7061415  25.4753810   7.1849846  35.0900795  26.0440708   6.6454621
  34.6420557  24.7503320   6.7055662  34.7534843  25.4529273   7.0343709
  38.1742845  15.6243498  12.6947608  38.7198806  16.3028584  12.7541577
  38.1159722  15.4830958  11.8349189  38.2458760  15.7035499  12.5759668
  31.2916920  23.1132564   8.0815960  31.3927283  22.3032918   8.3913088
  30.6958666  23.0189510   7.4515638  31.2189459  22.9797592   8.0342198
  39.9507914  17.0528105   3.5681335  39.8347440  17.8035791   3.9973473
  40.7463801  16.7952058   3.8177422  40.0512504  17.1262952   3.6685427
  31.1317660  28.0310153   9.4830816  31.7755115  28.4723317   9.8726974
  31.4573915  27.2263579   9.3961075  31.2749489  27.9775348   9.5276293
  24.4881965  19.1352850   7.7068294  24.2532149  18.3020503   7.6000562
  24.6267605  19.4157516   6.8929495  24.4737627  19.0536354   7.5710649
  26.7872052  11.3038581  10.6052601  26.1677084  10.7131228  10.4362616
  26.6855916  11.8950016   9.9716925  26.6809728  11.3042663  10.4857591
  31.8338240  21.0422128   4.8550678  32.1554081  21.5827335   4.2511986
  32.4810336  20.4718899   4.9872968  31.9764295  21.0381303   4.7857713
  33.8839948  13.0438123   4.9385064  34.5820112  13.2226250   5.4306528
  34.1992280  12.5208462   4.3155454  34.0335285  12.9931895   4.9187075
  26.5141185  14.8490862  12.8496170  26.3899882  15.4353308  13.4845989
  27.1659470  14.3551058  13.1508445  26.5914834  14.8629667  12.9882100
  34.0727883  19.4308568   4.9264856  34.5121519  18.8225668   5.3719629
  33.9232546  19.0515941   4.1550321  34.1149349  19.2847039   4.8784023
  31.5399526  18.0252579  12.1283681  32.1848529  17.5325023  11.8094630
  31.7801303  18.1677366  12.9549760  31.6710111  17.9730022  12.2033215
  34.0785617  20.8707485  11.7790574  34.3608860  20.0758891  11.5577330
  34.8071778  21.3488073  11.7995635  34.2275181  20.8242082  11.7493589
  32.0566811   8.4130519   9.0206339  31.7270141   8.8641663   8.3510038
  31.3811813   8.3346683   9.5679345  31.9077248   8.4681654   9.0029562
  37.6737220  17.7835749   1.8795625  37.5888515  18.6396716   2.0245194
  38.1621603  17.5080073   2.5477784  37.7326117  17.8693070   1.9997707
  44.0603706  19.9766847   8.7526405  43.2301409  20.1877491   8.9159821
  44.0112958  19.1503902   8.4768688  43.9310441  19.8856454   8.7363770
  30.4955261  18.2983760   2.1800828  29.9112476  18.8033791   2.5866692
  30.0925356  18.0726147   1.4397420  30.3494564  18.3392008   2.1305853
  26.0499289  24.0138521   8.9824500  25.5666868  24.7389011   8.9584083
  26.8622608  24.3114651   9.0934657  26.0990037  24.1640875   8.9951779
  32.1213443  22.8070702  11.5874314  31.6040385  22.4478117  10.9835622
  32.8187835  22.2832876  11.5980380  32.1479024  22.6768390  11.5004573
  35.7777035  23.2565516  17.5490487  35.8660381  23.0691656  18.3968698
  36.2066748  22.6102945  17.1495334  35.8539138  23.1328523  17.6162239
  33.3447495  22.5396676  16.5308149  32.7818330  22.1269286  17.0547811
  34.1068519  22.4649581  16.9501293  33.3741944  22.4674076  16.6701150
  30.2622765   6.4742808   4.5029287  31.0168733   6.8421125   4.2646337
  30.0850300   6.8482362   5.2708466  30.3477244   6.5840996   4.5814175
  28.9043487  24.5294697   9.1344780  29.6064066  24.0146686   9.1917536
  28.8240970  24.8568848   9.9391655  28.9967247  24.5008923   9.2617572
  43.5557664  12.6237248  12.5476826  42.7186085  12.6939435  12.7824421
  43.5245895  12.6261743  11.6751128  43.4275946  12.6347475  12.4536374
  29.9522393  14.7670284  18.2625195  30.1242897  14.6576178  19.1110476
  30.4891751  15.4124689  18.0256387  30.0567397  14.8462285  18.3530291
  28.2294262  20.7201049   8.6430388  29.0683161  20.9523982   8.6904149
  28.2606031  19.8505360   8.5737423  28.3575980  20.6257995   8.6395032
  38.2787850  16.8192925   8.1388718  39.0345365  17.2524439   8.1777626
  38.3850174  16.1697694   8.7123354  38.4058020  16.7870409   8.2286743
  41.3168021  20.6466202   8.8891121  40.8803253  20.6502944   9.6450092
  40.9830936  21.3271701   8.4570698  41.2030641  20.7478658   8.9371953
  35.8897095  22.6874535  20.2134271  36.6737511  22.8005383  20.5790013
  35.6893689  21.8615672  20.4092957  35.9763120  22.5821254  20.2968657
  24.2584110  17.3602215  13.0978115  23.9922525  16.5441332  13.2569105
  24.2722674  17.4055370  12.2273630  24.2208832  17.2459120  12.9931597
  41.2365504   7.6880030  11.1320548  41.8791412   7.7578134  11.7182464
  41.4888525   7.0209253  10.6300090  41.3687636   7.6006378  11.1447828
  28.1641857  12.1587299  -0.2870127  27.4500034  11.8725479   0.1252305
  28.6485826  12.4983925   0.3536260  28.1301220  12.1668949  -0.1314492
  29.0082716  10.8980593  15.7445122  28.3154513  10.4277573  15.9905854
  29.6243044  10.6718898  16.3186830  28.9967246  10.7947725  15.8654275
  36.0467488  24.5984637  13.8600726  35.2482734  24.3584137  14.1174595
  36.4953499  24.6499030  14.6067774  35.9942099  24.5707028  14.0085651
  44.4512367  17.3647122   7.7810758  45.1128801  16.8037790   7.6806666
  43.8103779  16.8699153   8.1063449  44.4541235  17.2083531   7.8143098
  35.3389175  20.6617253   0.0891681  35.7540323  20.3302277  -0.6023823
  34.5081105  20.4286155  -0.0388182  35.2777184  20.5788509  -0.0317472
  24.6677524  18.1460994  10.3789859  24.4853097  18.1207880   9.5262151
  25.4027193  18.6159932  10.4178768  24.7491588  18.2122356  10.2587777
  40.7377198  18.3812504   7.5222747  40.9732787  18.5257703   6.6949597
  40.8866762  19.1454912   7.9154260  40.7943001  18.5151559   7.4586350
  27.7323275  14.8645997  16.8871968  28.4563248  14.8499028  17.3736862
  27.8339412  15.5741352  16.3893936  27.8541484  14.9670700  16.8850754
  35.1068225  18.3445082  21.7520915  34.3141206  18.6588594  21.9373534
  35.2217152  18.5596550  20.9141699  35.0063635  18.4228918  21.6559249
  37.7799544  15.0679073   6.0415930  37.8746398  15.8068367   6.4955556
  37.1558387  14.6396548   6.4750495  37.7008574  15.1140393   6.1724078
  36.0352018  18.2465285  16.6906211  36.6090879  17.6092530  16.8454775
  35.9566821  18.2469368  15.8215869  36.1085252  18.1530397  16.5852622
  24.6348434  15.0254495  10.5288926  25.2121937  14.8890946  11.1681171
  23.9362496  14.5690279  10.7834510  24.6169455  14.9376761  10.6611215
  31.3915736  16.6788551   8.7427409  31.1334981  15.8460285   8.7158708
  31.4464219  16.9046164   7.9019909  31.3615514  16.5886322   8.6147546
  36.4716786   8.7817001   8.8431501  35.7673113   8.2926187   9.0015421
  36.5201761   8.7939476   7.9719946  36.3746838   8.7106649   8.7370841
  30.3650448  14.2326313   9.2292304  29.7900040  14.3918481   9.8656264
  29.9886125  13.5961722   8.7660754  30.2253261  14.1624126   9.2546862
  34.0323737  12.7049662  14.0884682  33.6438170  12.2803880  13.4336873
  33.3678435  12.9531812  14.5961709  33.8770665  12.6788383  14.0672550
  20.1107267  13.8766388   7.2436744  20.1967519  13.4998256   8.0250274
  20.7383065  13.5026833   6.7656702  20.2163818  13.7651870   7.2882221
  37.8550099   6.4024291  11.6008666  38.2360610   5.7202462  11.9876540
  37.0513383   6.1133893  11.4184331  37.7926560   6.2591340  11.6312722
  35.1362675  16.9348267   2.2861489  35.9503314  17.2263160   2.1744260
  35.0721817  16.2808129   1.7119782  35.2465414  16.8813462   2.1850326
  41.3572165  19.6174263  16.6991065  41.1210803  18.7862328  16.5803125
  42.0015394  19.5659870  17.2845909  41.4166836  19.4871951  16.7676958
  31.0070584  20.4069784   7.4133801  31.6444530  20.1681532   7.9585594
  31.4325655  20.6106943   6.6786962  31.1646750  20.4020795   7.3850958
  25.6983226  22.6458121  11.2968105  25.7387371  22.9172972  10.4687884
  26.2577750  23.1700029  11.7125893  25.7866572  22.7633876  11.2359993
  31.6473399  15.6272074   1.7508690  32.0318551  15.4079781   2.5025236
  31.3985019  16.4535020   1.8809767  31.6675471  15.7170220   1.8809767
  31.8141939   8.9078489  21.4671275  31.4995380   9.6778052  21.2040837
  31.4931872   8.3448745  20.8823502  31.7200858   8.9388758  21.3412625
  42.3808586  19.4018712  12.7619359  42.0754403  20.1346769  13.1232675
  41.6614802  18.9956641  12.4812145  42.2295928  19.4500445  12.7732496
  33.3892055  20.8842207   9.0927587  33.4631064  20.7217379   9.9469437
  34.2061562  21.0732397   8.8488069  33.5208414  20.8878949   9.1825613
  27.1497812  21.2300070   6.1222031  26.3235930  21.4761807   5.9956310
  27.2109803  21.1512151   6.9884089  27.0371979  21.2545019   6.2310975
  29.3673836   7.2969011   7.0817471  28.4996261   7.3691610   7.1475080
  29.6549040   8.0991090   7.2705446  29.2813584   7.4263158   7.1192238
  38.4906725   7.4446870  15.4128793  39.2360317   7.2556681  14.9992218
  38.0744029   7.9705108  14.8542649  38.5391699   7.4949016  15.2693366
  31.9296641  23.8476950   3.8241061  32.2194940  23.4565931   3.1000287
  32.6600122  24.0293655   4.2646336  32.0803525  23.8170764   3.7823868
  32.5191386  18.6494696  14.9094191  32.0203080  19.3610464  14.9879080
  33.3291611  18.9695363  14.8712354  32.5647493  18.8021545  14.9150760
  29.8702557  25.8244332   6.8901210  29.6502852  25.5341687   7.6827877
  29.6497079  25.1659288   6.3619123  29.8050151  25.6844041   6.9290119
  28.7819504  17.9117649   9.1556912  28.4932753  17.2855120   9.6902639
  29.6502852  17.8537936   9.2221593  28.8679756  17.8105193   9.2447867
  39.5697402  13.0552432   9.4738894  39.2262168  12.3342768   9.8246144
  39.6690444  12.8466284   8.6317252  39.5339445  12.9176636   9.4010574
  32.0370513  27.1973722   5.6731903  32.6894571  26.6650165   5.9022929
  31.3396121  26.8442375   6.0599777  32.0301230  27.0663245   5.7644071
  28.9851777  19.5512900   5.0799277  29.7397745  19.9325939   5.2934740
  28.3922390  20.0024044   5.5345974  29.0088491  19.6741727   5.1782156
  40.0310431  19.5178136   5.0162882  40.5968463  20.1771346   4.9321425
  39.3838334  19.8627835   5.4879284  40.0189187  19.6660078   5.0735639
  31.4458444  11.5075740  20.2056489  30.6358220  11.8133520  20.0946332
  31.9233131  12.2281323  20.3209074  31.3961923  11.6590342  20.2063561
  30.3050004  20.7221461  10.4539393  29.7830757  20.8621753  11.1391257
  30.6924024  19.9632126  10.6441510  30.2853705  20.6306985  10.5840469
  27.2941188  10.7727270   4.5234347  27.0065984  10.4028541   3.7866295
  27.9811656  11.2422125   4.2618052  27.3530085  10.7874240   4.3749423
  36.5017009  22.4616921   4.4399961  36.2603685  21.7284781   4.0327026
  36.6818342  23.0103778   3.7866295  36.4924633  22.4339312   4.2830184
  31.7316330  17.7525480   5.8520884  31.5359112  18.3600215   5.2581187
  31.9550675  17.0593424   5.3712558  31.7350971  17.7403006   5.6936964
  30.1294860  14.6380218   5.9701752  30.8517512  14.8021376   5.5105558
  29.6502852  15.3589883   5.8641092  30.1658590  14.7678448   5.8867366
  38.0888367  10.9744017  11.3498437  37.2499468  11.0005296  11.1136700
  38.1592734  11.6214753  11.9303783  37.9756761  11.0740143  11.4007554
  41.9645891  16.1812004   8.6359679  41.8779866  16.3367430   9.4894457
  41.5096371  16.8250079   8.2619084  41.8849148  16.2987759   8.7066785
  24.8669383  11.5508483   5.3719628  24.9685519  12.3534644   5.7000604
  25.6625269  11.3495819   5.0742709  24.9997288  11.6394381   5.3754984
  31.2986202   9.1364679  15.1356933  31.1069399   9.1519814  15.9856357
  32.1484798   9.3328354  15.1123588  31.3961924   9.1679031  15.2580228
  25.6833115  11.6655661  13.1140750  25.5418607  10.8139601  13.2385258
  25.9673678  11.7084321  12.2902956  25.7040961  11.5455411  13.0108374
  35.8371707  13.5022751   7.2585238  35.5906421  13.4218502   8.0922027
  36.1656830  12.7176219   7.0647766  35.8492951  13.3749016   7.3532761
  39.7319756  20.2106110  11.0472019  39.5934115  20.9087156  11.5520762
  38.9519754  20.0554767  10.6908201  39.5962983  20.2906277  11.0698294
  38.0697841  16.5102486  17.2994401  38.0645880  15.6382302  17.3036828
  38.7758835  16.7090655  16.8263857  38.1742845  16.4106360  17.2301436
  31.7968734  16.2379470  16.6708221  31.9412110  16.8180678  16.0351331
  32.1444383  16.6155766  17.3758076  31.8696196  16.3800174  16.6807216
  33.9688652  15.4369638  14.4533353  33.2211966  15.6300652  14.0481631
  34.1230177  14.6114858  14.2157474  33.8811079  15.3434749  14.3578759
  30.8696489  24.4282241  13.5369248  31.0186053  23.8685157  12.8842652
  31.6496491  24.5074243  13.9201767  31.0070583  24.3567807  13.4966197
  33.3949790  24.5996884  14.8153739  33.3193461  23.9305695  15.3704527
  33.3239649  25.3014672  15.3294405  33.3730397  24.6041792  14.9730587
  34.2090429   9.3320189  15.3428757  34.6663043  10.0644163  15.4701549
  34.2846758   8.9086654  16.1016012  34.2881399   9.3777427  15.4729833
  26.4523420   9.5786008  16.4318200  25.9165609   8.9666367  16.7478967
  26.5141185  10.1534144  17.0851867  26.3819053   9.5732936  16.5753627
  34.0520037  23.1197883   5.6477345  34.8169928  22.8507527   5.3260009
  33.9498127  22.6347894   6.3647408  34.1501532  23.0087448   5.7057172
  32.0872807  11.3222293  12.1870581  31.2968881  11.1413753  12.5087916
  32.4833429  10.5449245  12.1700875  32.0289683  11.1809754  12.2323129
  37.4716493  18.9564723   9.9130026  36.7961495  18.7249955  10.4143413
  37.4808869  18.3485906   9.2872131  37.3734997  18.8323648   9.8946179
  34.6010637  13.7982552  16.6694079  34.5369778  14.6592508  16.5414216
  34.7407825  13.4814545  15.8689631  34.6126107  13.8782718  16.5322292
  39.4733228  21.8129855   2.1440204  39.5553065  22.6196841   1.8201655
  39.9582970  21.8325814   2.8680978  39.5570385  21.9350518   2.2027103
  33.2829731  16.4914691  10.8110282  32.8591980  16.6919190  10.0749301
  33.1074586  15.6443539  10.9234582  33.1940611  16.3963473  10.7183972
  32.7841424  28.0065204  13.2731740  33.2737355  27.3075993  13.0907404
  32.2125657  27.7089074  13.8607797  32.7725954  27.8591428  13.3332780
  28.5712176  16.9866743   6.2438255  28.7276795  16.9213545   7.0994247
  28.9112769  17.7615295   6.0316935  28.6445411  17.0915941   6.3392849
  35.1091320  16.3624626   5.1131618  35.6506866  15.8595007   5.5770239
  35.4237879  16.3089821   4.3021103  35.2355717  16.2804047   5.0615430
  38.9808428  20.5727273  22.2258530  39.7943293  20.3012422  22.3863663
  38.8203394  20.2734813  21.4218726  39.0778376  20.4882199  22.1303936
  33.2777770  21.7541978   2.3971646  33.3470590  20.8956516   2.5364647
  34.0566225  21.9713859   2.0690671  33.4030620  21.6594842   2.3688803
  36.2580590  11.2560931  15.1653919  36.4722559  10.6171845  14.6117273
  35.6414489  11.7006754  14.7361780  36.1985919  11.2271074  15.0204350
  37.6685258  24.1779679   6.6108139  37.2765049  23.8746394   5.8931006
  37.8238330  25.0148769   6.4213093  37.6338848  24.2563516   6.4764637
  25.1446437  14.1701693   6.5599022  25.5245402  14.5886238   5.8959289
  24.5701802  14.7515149   6.8667865  25.1157762  14.3179552   6.5075763
  38.4219678  12.8649996  16.1037226  37.6096360  12.5575886  16.1850398
  38.8809612  12.3848996  16.6679938  38.3700063  12.7486488  16.1991820
  37.8324932  20.7429668   6.5514170  37.4739587  20.9144311   7.3278202
  37.3463643  21.2042873   5.9942168  37.7083629  20.8368639   6.5839439
  35.6495318   4.3660866  10.1541261  34.7788876   4.3399587  10.1074571
  35.9035660   4.1938058   9.3367107  35.5588879   4.3371010  10.0261398
  32.6213298  16.4228833  -0.9085596  32.9105823  17.1993716  -0.6342021
  32.7085097  15.9117565  -0.2071096  32.6767554  16.4620752  -0.7643098
  35.5173185  14.2710067  20.8865928  35.9872816  14.8952184  21.2733802
  35.5635065  13.6027043  21.4459143  35.5941061  14.2644748  21.0265999
  32.6744459   6.3767095  11.6114732  32.1582948   5.6847286  11.7366311
  32.1138388   7.0437872  11.5577330  32.5150972   6.3730352  11.6220798
  34.7436692   6.9160055  13.4407584  34.3568446   6.9409086  14.2221114
  34.2569630   6.3501733  12.9882101  34.6149201   6.8355806  13.4895488
  38.9929672  21.6333564  17.4981371  39.6309392  21.1393759  17.1643827
  38.3503763  21.5610964  16.9133598  38.9923898  21.5492572  17.3623726
  40.7186672  13.4822710  12.0647286  40.2914280  13.3949058  11.3095386
  40.0812725  13.5900485  12.6502131  40.5616279  13.4855370  12.0392728
  34.4093834   3.8027040  15.7317844  35.0386952   4.3387340  15.4538915
  34.5779697   3.7104399  16.5831410  34.5271629   3.8688402  15.8166372
  34.2107749   8.5898235  18.0044256  35.0381178   8.3183384  18.0602870
  34.2315595   9.3859077  18.3608074  34.3360599   8.6677989  18.0659439
  39.0483928  22.3253372  14.1386728  39.8376307  21.9742437  14.2588809
  39.2227526  23.1389760  13.8763361  39.1904210  22.3939229  14.1174596
  28.7877239  15.7362098  11.1914516  27.9465245  15.6365972  11.3993410
  28.9967247  16.5057578  11.5428837  28.6941931  15.8354141  11.2741831
  26.2652806  13.3581635   9.0199267  25.8709504  13.4324647   8.2449377
  25.7092923  13.7439581   9.5707629  26.1255618  13.4263409   8.9866927
  37.9017753   6.3362929   8.7003146  38.1067346   6.2685237   9.5460143
  37.5744177   7.1421750   8.6324323  37.8833000   6.4448869   8.8162801
  32.5993904  13.6643497  10.4412114  32.2957041  13.1099485  11.0422522
  31.8973324  13.8435707   9.9540148  32.4510113  13.6088279  10.4581820
  31.6560001  10.9744017   5.0056816  31.9319735  10.2562929   4.5934383
  32.2558670  11.5728937   4.7977922  31.7853265  10.9564387   4.9137577
  29.0746669   9.2907858  13.2774167  29.5348151   9.3646787  14.0149291
  29.1202776  10.0889112  12.9273988  29.1497225   9.4202005  13.3346923
  30.7230019   9.9574553  17.8446194  30.3315584   9.3107900  18.2801972
  30.8915882  10.5485988  18.4640449  30.6900930   9.9488821  18.0008900
  44.7976468  17.9611630  13.6083428  44.8559592  18.4098278  14.3543404
  44.1642936  18.3710443  13.1713508  44.7127763  18.0885364  13.6535976
  38.4375563  23.5815172  10.0438174  38.2395252  24.0705986   9.3494385
  37.8163274  23.7856413  10.6222307  38.3163127  23.6831710  10.0261397
  32.4983541  15.3500068   4.3848418  33.2425586  15.7374345   4.6231368
  32.6444237  14.5057494   4.5488906  32.6294126  15.2830541   4.4442388
  34.4163117   7.1450327   9.4180279  33.5699162   7.3173135   9.2921629
  34.4134249   6.3399671   9.7546108  34.2910267   7.0511356   9.4491406
  35.4861417  10.9225542  10.2842337  35.0121371  10.3967304  10.7947648
  35.8579553  10.3755015   9.7157199  35.4711306  10.7641538  10.2757485
  25.8634447  12.9197048  15.6525883  26.7260060  12.8192758  15.5663213
  25.5326230  12.3391758  15.0911455  25.9419644  12.8188675  15.5571289
  41.7498148  15.9827917  11.6949118  41.5096371  15.1434333  11.6991544
  42.2290155  16.0628084  12.4189891  41.7850331  15.8709317  11.8023920
  43.7503335  12.7629375   9.6478377  43.5113105  12.7225209   8.8099162
  43.9137236  13.6100527   9.7744098  43.7393638  12.8821460   9.5431859
  40.3549365  17.1479324  15.5783422  41.0783564  16.6951850  15.3994442
  40.0899327  17.4283990  14.7955750  40.4230638  17.1230292  15.4362138
  29.2236233  11.7439497  12.3136301  28.5989303  11.7557889  11.7062254
  28.8881828  12.2199673  12.9627542  29.0821725  11.8158014  12.3192870
  36.9681999  20.3865660   2.4777748  37.6916198  20.8523773   2.3342322
  36.5282590  20.4539270   1.7275345  37.0097692  20.4649497   2.3462530
  36.1368154  17.2463202  13.7278437  35.5225147  16.7021252  14.0227073
  36.6535439  16.7327439  13.2484253  36.1223817  17.0899611  13.7002666
  35.3764452  18.3167472  11.4622736  34.9492060  17.6917191  11.0288171
  35.3689396  18.0342394  12.2881743  35.3123593  18.1820253  11.5202563
  28.4926979  13.3532645  14.5311170  28.6520465  12.5975969  14.9362892
  28.3119872  13.9023585  15.1851908  28.4892338  13.3226459  14.6873876
  36.4347282   5.5193881  15.0861959  35.9387843   5.7157555  14.3953526
  37.1916344   5.9186549  14.9150761  36.4734106   5.6071615  14.9582096
  33.7050161   9.1936227  11.6765270  33.7292648   8.6596339  10.9878050
  33.9561635   8.6853536  12.3390860  33.7460080   9.0397131  11.6729915
  21.2157751  16.4767722  11.1108414  21.1101200  16.4314566  10.2460498
  20.4657971  16.8221502  11.3922699  21.0893354  16.5208630  11.0245744
  29.9851483   7.9207045  11.0571014  30.0249855   8.4216252  11.7705722
  29.1601148   8.0117439  10.7876937  29.8691009   8.0088861  11.1221552
  32.1681096  17.4867785  19.1591309  31.3176727  17.6239499  19.2948954
  32.3309224  16.7531563  19.6039010  32.0664960  17.3981886  19.2446908
  31.4065847  14.4367555  13.3544913  30.5757776  14.6041373  13.1480161
  31.3517364  14.0603506  14.1393799  31.2755262  14.4057286  13.4393441
  29.2149630   7.9276448  18.9901324  29.8402333   7.3838581  19.2630756
  28.7600110   7.4471365  18.4209114  29.2397891   7.7765929  18.9462918
  29.7801891  12.7123146   3.8835031  29.9204852  13.2095611   4.5863672
  30.2784423  12.0109441   4.0249245  29.8742972  12.6825125   4.0086610
  29.8102113  13.5790257   1.2127608  30.4447193  14.1750682   1.1477070
  29.8927724  13.2793715   2.0273478  29.9158664  13.6231166   1.3230694
  42.7884679  16.1105735  14.0813972  43.3802519  16.7502985  14.1132170
  43.2243673  15.4128771  14.3706039  42.9403110  16.1024085  14.1294805
  34.6178069  20.5323107  14.7071866  34.1103160  21.0858954  15.1512496
  34.3204715  20.5931397  13.8890640  34.4982954  20.6229418  14.6520323
  36.7840251   8.8976427  13.5496529  37.2095322   8.4448953  12.9380055
  36.1697244   8.3436497  13.8261316  36.7568896   8.7490403  13.5001554
  26.3155101  15.7758098   4.4817154  26.8247330  16.3722606   4.8628459
  26.7889373  15.5084072   3.7993573  26.4598477  15.8243914   4.4371676
  37.2285849  24.4486365   2.6375809  36.5115159  24.2747227   2.1723047
  37.8792587  24.2138937   2.1051295  37.2187699  24.3882157   2.4905027
  35.2234474   5.3691527   6.9587106  34.5802792   5.2189173   7.5272244
  34.8833881   5.1233872   6.1936210  35.0779551   5.3103649   6.9290121
  39.8133820  13.3250953   6.3817114  39.1425010  13.8680656   6.2530180
  40.5073570  13.7945809   6.1398809  39.8162688  13.4749225   6.3272642
  33.8620554  25.4647665  11.6128873  33.6386208  24.7066495  11.9812899
  33.3730397  25.4945687  10.8909312  33.7564003  25.3569890  11.5605614
  39.9761948   9.7806837   9.2907488  40.3289558   9.3536560   9.9653286
  39.1176749   9.6957681   9.4208564  39.9011392   9.7051578   9.4102498
  28.6745633  12.4114357   7.3490334  27.9557622  12.8278489   7.6163198
  29.0457995  12.9768595   6.7981972  28.6237564  12.5563638   7.3073141
  37.9745213  13.0442206  13.2392330  37.9543141  12.8625501  14.0927109
  38.0224414  13.9154224  13.2151914  37.9779854  13.1458744  13.3615625
  35.9191543  19.6329398  19.1640806  35.8787398  18.9879075  18.5785962
  36.7314862  19.5766015  19.4766218  36.0334697  19.5288364  19.1237756
  32.5099011  25.6848123   9.0665957  32.0959410  25.0222254   8.6769799
  33.1946385  25.8325982   8.5461652  32.5497383  25.6088782   8.9322454
  35.8764305  24.8438209   9.8189574  35.4780588  24.9540479   9.0510394
  35.2615525  25.0520275  10.4016134  35.7263194  24.8911777   9.7920873
  34.4492207  11.4512357   2.6863714  33.8557046  11.7729353   2.1348281
  34.4867485  10.6053452   2.4784820  34.3666596  11.3736685   2.5746485
  37.3250024  11.4091861   6.1165464  37.0963717  11.4324563   5.2743822
  37.5848100  10.5849328   6.2360474  37.3296212  11.2907941   6.0090662
  31.6069252  13.2626334  15.7190564  31.0948155  12.6547517  16.0775595
  31.4348748  13.9782927  16.1864540  31.5058889  13.2789633  15.8406788
  26.4534967  11.7063909  18.3692926  26.2837557  12.3665284  17.8241133
  26.0100917  11.9170471  19.0905415  26.3634300  11.8349892  18.3954555
  30.3794786   9.9468407   7.4119660  30.8552152  10.3085487   6.7769841
  29.8783386  10.6024875   7.6919802  30.3760145  10.0962596   7.3596401
  35.4838322  11.1850579  18.1592820  36.0409753  10.9564388  17.5271285
  35.1599387  11.9456244  17.8828032  35.5184733  11.2634415  18.0249317
  23.3537031  14.6110775  13.6281416  22.8063751  13.9411421  13.7462284
  24.1429409  14.2440623  13.6924883  23.3889215  14.4575761  13.6550116
  33.2021440  14.2718232  19.1244827  33.9532767  14.5869909  19.4384381
  33.3944016  14.0697403  18.2978749  33.3412854  14.2885614  19.0488223
  32.4221439  12.0909607   0.7793044  32.8020404  12.1089236  -0.0055842
  31.6814035  12.5363596   0.6583891  32.3690277  12.1591382   0.6456612
  22.1124001  13.8231583  10.7827439  21.9345762  13.3708192  11.5082354
  21.8243023  14.6257744  10.9665916  22.0436954  13.8754141  10.9170942
  37.7747582  15.0789300  10.0204829  38.2701247  14.3612295   9.9808849
  36.9647358  14.7760098   9.9059316  37.7291475  14.9286946   9.9978555
  33.2206193  18.9287113   2.1701834  32.4117516  18.6053787   2.1235143
  33.7281102  18.2220336   2.1030082  33.1755860  18.7768430   2.1532128
  23.8496471  16.3559307   7.8949198  22.9841990  16.3444997   7.7831969
  23.9495287  16.1689529   8.7420337  23.7370638  16.3265368   8.0038142
  39.8399401  17.8292988  12.7081958  40.2654472  17.3067410  12.1552383
  39.4756321  18.4273825  12.1870581  39.8486003  17.8403215  12.5490968
  29.4753481  26.1257205  11.4679303  29.7900039  26.9393594  11.4757085
  29.8846894  25.7407424  12.1361462  29.5821579  26.1885908  11.5683395
  36.4278000  21.5427252   9.0383115  36.8989178  22.2567515   9.2073101
  36.7638179  20.9426002   9.5742985  36.5473115  21.5598716   9.1415491
  38.5154985  23.1528565  21.2175187  38.6251950  22.3637126  21.5731935
  38.8445881  23.0634502  20.4149525  38.5807391  23.0234418  21.1517578
  33.3447495   6.3154723  15.9941210  33.4775401   5.5185716  16.3222186
  33.7292648   6.8421126  16.5739486  33.4203824   6.2754639  16.1284713
  37.0651946  21.3345186  15.8010808  36.5172892  20.7103070  15.5330873
  37.5264975  21.5239458  15.0854887  37.0519156  21.2704236  15.6561239
  39.8745811   9.4030541  13.1862000  39.2908800   9.9039747  12.7739568
  40.1950105   8.8960097  12.5526324  39.8358986   9.4022376  13.0320507
  32.4140610   8.3171135   3.4620675  33.2356304   8.4869448   3.2202370
  31.9510261   8.4718396   2.7386973  32.4671772   8.3652868   3.3192319
  31.0035942   6.3113898  14.2419104  31.5480355   5.9705024  14.8323446
  31.0572878   7.1699359  14.3840388  31.0925061   6.3869157  14.3500977
  36.6310273  22.3396259  12.3320149  37.4508647  22.1959225  12.5936444
  36.3504350  22.9642458  12.8736587  36.7107016  22.4106611  12.4508089
  22.0517783  19.0564931  10.9856835  21.9542061  18.2461203  11.2946892
  22.8346653  19.0356725  10.6003103  22.1533919  18.9332021  10.9743698
  37.7604636  26.8223889  10.6052601  37.1409667  26.2316536  10.4362616
  37.6588499  27.4135324   9.9716925  37.6542311  26.8227971  10.4857591
  37.4873769  30.3676170  12.8496170  37.3632466  30.9538616  13.4845989
  38.1392053  29.8736366  13.1508445  37.5647418  30.3814975  12.9882100
  42.5132110  33.5437887  12.1283681  43.1581112  33.0510330  11.8094630
  42.7533887  33.6862674  12.9549760  42.6442695  33.4915330  12.2033215
  43.0299395  23.9315827   9.0206339  42.7002725  24.3826971   8.3510038
  42.3544397  23.8531990   9.5679345  42.8809831  23.9866962   9.0029562
  44.3180079  38.0581984  16.5308149  43.7550913  37.6454593  17.0547811
  45.0801102  37.9834889  16.9501293  44.3474527  37.9859384  16.6701150
  41.2355349  21.9928116   4.5029287  41.9901317  22.3606433   4.2646337
  41.0582884  22.3667670   5.2708466  41.3209827  22.1026303   4.5814175
  40.9254977  30.2855592  18.2625195  41.0975480  30.1761486  19.1110476
  41.4624334  30.9309997  18.0256387  41.0299981  30.3647593  18.3530291
  39.8279549  36.6587232  12.9443693  40.3677774  36.5158363  13.6147066
  39.1449495  37.0583983  13.3127719  39.8071702  36.6966903  13.0978115
  35.2316694  32.8787523  13.0978115  34.9655109  32.0626639  13.2569105
  35.2455258  32.9240678  12.2273630  35.1941416  32.7644428  12.9931597
  39.9815300  26.4165901  15.7445122  39.2887097  25.9462881  15.9905854
  40.5975627  26.1904206  16.3186830  39.9699830  26.3133033  15.8654275
  35.6410107  33.6646302  10.3789859  35.4585681  33.6393188   9.5262151
  36.3759776  34.1345240  10.4178768  35.7224171  33.7307664  10.2587777
  38.7055859  30.3831305  16.8871968  39.4295831  30.3684336  17.3736862
  38.8071995  31.0926660  16.3893936  38.8274068  30.4856008  16.8850754
  35.6081018  30.5439803  10.5288926  36.1854520  30.4076254  11.1681171
  34.9095079  30.0875587  10.7834510  35.5902039  30.4562069  10.6611215
  41.3383032  29.7511621   9.2292304  40.7632623  29.9103789   9.8656264
  40.9618708  29.1147030   8.7660754  41.1985844  29.6809434   9.2546862
  45.0056321  28.2234970  14.0884682  44.6170753  27.7989188  13.4336873
  44.3411019  28.4717120  14.5961709  44.8503248  28.1973691  14.0672550
  31.0839851  29.3951696   7.2436744  31.1700103  29.0183564   8.0250274
  31.7115648  29.0212141   6.7656702  31.1896402  29.2837178   7.2882221
  36.6715810  38.1643429  11.2968105  36.7119955  38.4358280  10.4687884
  37.2310334  38.6885337  11.7125893  36.7599155  38.2819184  11.2359993
  42.7874523  24.4263797  21.4671275  42.4727964  25.1963360  21.2040837
  42.4664455  23.8634053  20.8823502  42.6933442  24.4574066  21.3412625
  40.3406420  22.8154319   7.0817471  39.4728845  22.8876918   7.1475080
  40.6281624  23.6176398   7.2705446  40.2546168  22.9448466   7.1192238
  43.4923970  34.1680004  14.9094191  42.9935664  34.8795772  14.9879080
  44.3024194  34.4880671  14.8712354  43.5380077  34.3206853  14.9150760
  39.7552088  33.4302957   9.1556912  39.4665336  32.8040428   9.6902639
  40.6235436  33.3723244   9.2221593  39.8412339  33.3290501   9.2447867
  42.4191028  27.0261048  20.2056489  41.6090804  27.3318828  20.0946332
  42.8965715  27.7466631  20.3209074  42.3694507  27.1775649  20.2063561
  41.2782588  36.2406769  10.4539393  40.7563341  36.3807061  11.1391257
  41.6656608  35.4817434  10.6441510  41.2586288  36.1492293  10.5840469
  38.2673772  26.2912578   4.5234347  37.9798567  25.9213848   3.7866295
  38.9544240  26.7607433   4.2618052  38.3262669  26.3059547   4.3749423
  38.7535060  32.5623599  15.0755892  39.2656157  32.8407852  14.4264652
  38.4671402  33.3012893  15.4418705  38.7869923  32.7125952  15.0345770
  35.8401966  27.0693791   5.3719628  35.9418103  27.8719952   5.7000604
  36.6357853  26.8681126   5.0742709  35.9729872  27.1579689   5.3754984
  42.2718785  24.6549987  15.1356933  42.0801982  24.6705122  15.9856357
  43.1217381  24.8513662  15.1123588  42.3694507  24.6864338  15.2580228
  36.6565698  27.1840969  13.1140750  36.5151190  26.3324909  13.2385258
  36.9406262  27.2269629  12.2902956  36.6773544  27.0640719  13.0108374
  42.7701318  31.7564778  16.6708221  42.9144694  32.3365986  16.0351331
  43.1176966  32.1341074  17.3758076  42.8428779  31.8985482  16.6807216
  44.9421235  30.9554946  14.4533353  44.1944549  31.1485960  14.0481631
  45.0962761  30.1300165  14.2157474  44.8543663  30.8620057  14.3578759
  41.8429073  39.9467549  13.5369248  41.9918637  39.3870465  12.8842652
  42.6229075  40.0259551  13.9201767  41.9803167  39.8753115  13.4966197
  45.1823012  24.8505497  15.3428757  45.6395626  25.5829471  15.4701549
  45.2579341  24.4271962  16.1016012  45.2613982  24.8962735  15.4729833
  37.4256004  25.0971316  16.4318200  36.8898193  24.4851675  16.7478967
  37.4873768  25.6719452  17.0851867  37.3551636  25.0918244  16.5753627
  43.0605390  26.8407601  12.1870581  42.2701465  26.6599061  12.5087916
  43.4566013  26.0634553  12.1700875  43.0022266  26.6995061  12.2323129
  45.5743221  29.3167860  16.6694079  45.5102362  30.1777816  16.5414216
  45.7140408  28.9999853  15.8689631  45.5858691  29.3968026  16.5322292
  44.2562314  32.0099999  10.8110282  43.8324564  32.2104498  10.0749301
  44.0807170  31.1628847  10.9234582  44.1673195  31.9148780  10.7183972
  36.1179021  29.6887001   6.5599022  36.4977986  30.1071546   5.8959289
  35.5434386  30.2700457   6.8667865  36.0890346  29.8364860   6.5075763
  43.6477043  21.8952403  11.6114732  43.1315531  21.2032594  11.7366311
  43.0870971  22.5623180  11.5577330  43.4883556  21.8915660  11.6220798
  45.7169276  22.4345363  13.4407584  45.3301029  22.4594394  14.2221114
  45.2302213  21.8687041  12.9882101  45.5881785  22.3541114  13.4895488
  45.3826418  19.3212348  15.7317844  46.0119536  19.8572648  15.4538915
  45.5512280  19.2289707  16.5831410  45.5004212  19.3873710  15.8166372
  45.1840333  24.1083543  18.0044256  46.0113762  23.8368692  18.0602870
  45.2048179  24.9044385  18.3608074  45.3093183  24.1863297  18.0659439
  39.7609822  31.2547406  11.1914516  38.9197829  31.1551280  11.3993410
  39.9699830  32.0242886  11.5428837  39.6674515  31.3539449  11.2741831
  37.2385389  28.8766943   9.0199267  36.8442087  28.9509954   8.2449377
  36.6825506  29.2624889   9.5707629  37.0988202  28.9448717   8.9866927
  43.5726487  29.1828805  10.4412114  43.2689625  28.6284793  11.0422522
  42.8705908  29.3621015   9.9540148  43.4242697  29.1273587  10.4581820
  41.6344838  36.3978526  15.1484212  41.5265193  36.4080588  16.0146270
  41.8440620  37.2233306  14.9589166  41.6494949  36.5219600  15.2488303
  39.6518630  33.6491168  12.6106149  39.0606564  34.2900666  12.5809164
  40.4139654  34.0728785  12.5837449  39.6766891  33.8067006  12.6021297
  40.0479253  24.8093166  13.2774167  40.5080735  24.8832095  14.0149291
  40.0935360  25.6074420  12.9273988  40.1229808  24.9387313  13.3346923
  41.6962603  25.4759861  17.8446194  41.3048168  24.8293208  18.2801972
  41.8648466  26.0671296  18.4640449  41.6633513  25.4674128  18.0008900
  45.3895700  22.6635635   9.4180279  44.5431745  22.8358443   9.2921629
  45.3866833  21.8584979   9.7546108  45.2642850  22.5696664   9.4491406
  36.8367031  28.4382356  15.6525883  37.6992644  28.3378066  15.5663213
  36.5058814  27.8577066  15.0911455  36.9152227  28.3373983  15.5571289
  40.1968817  27.2624805  12.3136301  39.5721887  27.2743197  11.7062254
  39.8614412  27.7384981  12.9627542  40.0554309  27.3343322  12.3192870
  36.9094492  35.3225265  13.7540066  36.3794417  34.6317704  13.8035040
  37.1819586  35.3135451  12.9252774  36.8719215  35.2192397  13.6387482
  39.4659562  28.8717953  14.5311170  39.6253049  28.1161277  14.9362892
  39.2852456  29.4208893  15.1851908  39.4624921  28.8411767  14.6873876
  44.6782745  24.7121535  11.6765270  44.7025232  24.1781647  10.9878050
  44.9294218  24.2038843  12.3390860  44.7192663  24.5582439  11.6729915
  32.1890335  31.9953030  11.1108414  32.0833784  31.9499874  10.2460498
  31.4390555  32.3406810  11.3922699  32.0625938  32.0393938  11.0245744
  40.9584067  23.4392353  11.0571014  40.9982439  23.9401559  11.7705722
  40.1333732  23.5302747  10.7876937  40.8423593  23.5274169  11.1221552
  43.1413680  33.0053093  19.1591309  42.2909310  33.1424807  19.2948954
  43.3041808  32.2716871  19.6039010  43.0397543  32.9167194  19.2446908
  42.3798430  29.9552863  13.3544913  41.5490360  30.1226681  13.1480161
  42.3249948  29.5788814  14.1393799  42.2487845  29.9242594  13.4393441
  40.1882214  23.4461756  18.9901324  40.8134917  22.9023888  19.2630756
  39.7332694  22.9656673  18.4209114  40.2130474  23.2951237  18.9462918
  45.5910652  36.0508415  14.7071866  45.0835743  36.6044262  15.1512496
  45.2937298  36.1116705  13.8890640  45.4715537  36.1414726  14.6520323
  39.6478216  27.9299665   7.3490334  38.9290205  28.3463797   7.6163198
  40.0190579  28.4953903   6.7981972  39.5970148  28.0748946   7.3073141
  42.5801836  28.7811642  15.7190564  42.0680739  28.1732825  16.0775595
  42.4081332  29.4968235  16.1864540  42.4791473  28.7974941  15.8406788
  37.4267550  27.2249217  18.3692926  37.2570141  27.8850592  17.8241133
  36.9833500  27.4355779  19.0905415  37.3366884  27.3535200  18.3954555
  41.3527370  25.4653715   7.4119660  41.8284736  25.8270795   6.7769841
  40.8515969  26.1210183   7.6919802  41.3492729  25.6147904   7.3596401
  34.3269615  30.1296083  13.6281416  33.7796334  29.4596728  13.7462284
  35.1161993  29.7625931  13.6924883  34.3621799  29.9761069  13.6550116
  44.1754023  29.7903540  19.1244827  44.9265350  30.1055217  19.4384381
  44.3676600  29.5882711  18.2978749  44.3145437  29.8070922  19.0488223
  33.0856584  29.3416891  10.7827439  32.9078345  28.8893500  11.5082354
  32.7975606  30.1443052  10.9665916  33.0169538  29.3939449  10.9170942
  34.8229054  31.8744614   7.8949198  33.9574574  31.8630305   7.7831969
  34.9227870  31.6874837   8.7420337  34.7103221  31.8450676   8.0038142
  44.3180079  21.8340030  15.9941210  44.4507984  21.0371024  16.3222186
  44.7025231  22.3606433  16.5739486  44.3936408  21.7939947  16.1284713
  41.9768525  21.8299206  14.2419104  42.5212938  21.4890332  14.8323446
  42.0305461  22.6884667  14.3840388  42.0657645  21.9054465  14.3500977
  37.7899084  35.5915622  11.1157912  38.3943942  35.5511456  10.4871732
  37.5826397  36.4386774  11.1461968  37.8487982  35.7103624  11.0274028
  33.0250367  34.5750239  10.9856835  32.9274645  33.7646511  11.2946892
  33.8079236  34.5542032  10.6003103  33.1266503  34.4517329  10.9743698
   1.2496742  24.6350338  20.5736071   1.9113176  24.0741006  20.4731980
   0.6088154  24.1402369  20.8988763   1.2525610  24.4786747  20.6068412
   4.8794753  23.3114929  24.8813017   4.8119254  23.3310888  24.0115604
   4.8650416  24.1545256  25.1068688   4.8673510  23.4388663  24.7865494
   2.6653371  22.0859315  23.1559611   3.2161292  21.4527384  23.3956703
   2.6497486  22.6174708  23.8475116   2.7438567  22.0708263  23.2938470
   1.5960843  25.2314846  26.4008741   1.6543967  25.6801495  27.1468718
   0.9627311  25.6413659  25.9638821   1.5112138  25.3588580  26.4461290
   9.9008298  37.2664327  18.0888339   9.8702303  38.1208963  18.2606609
  10.4989647  36.9659619  18.6474483   9.9845456  37.3480823  18.1963141
   3.1007983  36.3539978  22.8441270   2.2445879  36.5148476  22.8950386
   3.1475637  35.4832042  22.8646331   2.9807095  36.2490779  22.8547336
   5.9459804  38.4132022  25.4872921   6.4915764  39.0917108  25.5466891
   5.8876680  38.2719482  24.6274503   6.0175718  38.4924023  25.3684982
   7.7224873  39.8416629  16.3606649   7.6064399  40.5924315  16.7898787
   8.5180759  39.5840582  16.6102736   7.8229462  39.9151476  16.4610741
   1.6556906  35.8326647  17.7310378   2.3537071  36.0114774  18.2231841
   1.9709239  35.3096986  17.1080767   1.8052244  35.7820419  17.7112388
   7.0360178  27.1904566  20.0581263   6.7213619  27.8808045  20.4901686
   6.5187119  27.1349348  19.3566764   6.9124648  27.2839455  20.0178212
   6.3772611  37.1909067  16.1718674   5.8484083  37.4068701  16.8315980
   6.8997631  37.8845206  16.0919643   6.3761064  37.3252204  16.2574273
  11.8320664  42.7655372  21.5451718  11.0018368  42.9766015  21.7085135
  11.7829917  41.9392426  21.2694002  11.7027400  42.6744978  21.5289084
   2.7249434  37.3337936  13.4495062   2.9645437  37.5415920  12.6370406
   3.0465275  36.5295445  13.5584007   2.8086592  37.2452037  13.3455616
  11.3274623  35.4125772  25.3402140  10.4903044  35.4827959  25.5749734
  11.2962854  35.4150267  24.4676442  11.1992905  35.4235999  25.2461688
   2.0696508  28.6728061  17.0281737   2.7982668  28.4944016  16.5819894
   2.1591401  29.5146141  17.2388915   2.1903170  28.7711940  16.9935255
   6.0504808  39.6081449  20.9314031   6.8062324  40.0412963  20.9702940
   6.1567133  38.9586218  21.5048667   6.1774979  39.5758933  21.0212057
   9.0082463  30.4768554  23.9245862   9.6508371  30.5466658  24.5107777
   9.2605483  29.8097777  23.4225404   9.1404595  30.3894902  23.9373141
  12.2229326  40.1535646  20.5736071  12.8845760  39.5926314  20.4731980
  11.5820738  39.6587677  20.8988763  12.2258193  39.9972055  20.6068412
   8.5094157  41.1701028  20.3148060   8.7449746  41.3146227  19.4874911
   8.6583720  41.9343436  20.7079574   8.5659960  41.3040083  20.2511664
  10.3384613  40.0102694  18.1517664  10.6692830  40.5430334  17.5457759
  10.9117701  40.0641582  18.8079615  10.4718292  40.0972263  18.1595446
   5.5516502  37.8567597  18.8341244   5.6463357  38.5956891  19.2880870
   4.9275346  37.4285072  19.2675809   5.4725532  37.9028917  18.9649392
   5.8039524  39.7016337  12.0678196   5.7219686  39.7718524  12.9333183
   6.4419244  40.2646081  11.8761937   5.8859361  39.7955308  12.1668146
   4.2433745  31.5705525  21.6356815   3.5390072  31.0814711  21.7940734
   4.2918719  31.5828000  20.7645260   4.1463797  31.4995173  21.5296155
   1.8040696  35.4938186  26.8809996   1.4155128  35.0692404  26.2262187
   1.1395394  35.7420336  27.3887022   1.6487623  35.4676907  26.8597864
  11.4463965  35.2513191  19.6557826  11.1900530  34.4393133  19.4655708
  12.2893279  35.2590758  19.4288013  11.5329990  35.1325189  19.5942643
   5.6267057  29.1912815  24.3933980   6.0077569  28.5090986  24.7801854
   4.8230341  28.9022417  24.2109644   5.5643519  29.0479864  24.4238036
   2.9079634  39.7236791  15.0786803   3.7220273  40.0151684  14.9669574
   2.8438775  39.0696653  14.5045096   3.0182373  39.6701986  14.9775640
   9.1289124  42.4062787  29.4916378   8.8927761  41.5750852  29.3728439
   9.7732353  42.3548394  30.0771222   9.1883795  42.2760475  29.5602272
  15.8527337  38.8300237  24.8813017  15.7851837  38.8496196  24.0115604
  15.8382999  39.6730564  25.1068688  15.8406093  38.9573971  24.7865494
   6.2623683  30.2335394  28.2054106   7.0077275  30.0445205  27.7917532
   5.8460988  30.7593632  27.6467963   6.3108658  30.2837540  28.0618680
  13.6385954  37.6044623  23.1559611  14.1893876  36.9712692  23.3956703
  13.6230070  38.1360016  23.8475116  13.7171151  37.5893571  23.2938470
   7.3414360  35.8440956  22.2664208   6.9979126  35.1231292  22.6171457
   7.4407403  35.6354808  21.4242566   7.3056403  35.7065160  22.1935888
   5.8605326  33.7632541  24.1423750   5.0216426  33.7893820  23.9062014
   5.9309693  34.4103277  24.7229097   5.7473719  33.8628667  24.1932867
   4.3074604  30.6617918  18.8751366   5.0100957  30.4625666  18.3971325
   4.0418793  29.8893861  19.1820210   4.3721236  30.5180884  18.8496808
   9.7362850  38.9700528  21.4284992   9.6496824  39.1255954  22.2819771
   9.2813330  39.6138603  21.0544397   9.6566106  39.0876283  21.4992099
   3.6088666  36.2911275  20.0510552   3.3623380  36.2107026  20.8847341
   3.9373789  35.5064743  19.8573079   3.6209909  36.1637540  20.1458075
   5.8414800  39.2991010  30.0919715   5.8362838  38.4270826  30.0962141
   6.5475793  39.4979179  29.6189170   5.9459804  39.1994884  30.0226750
   1.7405610  38.2258162  27.2458666   0.9928924  38.4189176  26.8406944
   1.8947136  37.4003382  27.0082788   1.6528038  38.1323273  27.1504072
   1.9807387  32.1208713  28.1354070   2.4380001  32.8532687  28.2626862
   2.0563716  31.6975178  28.8941326   2.0598357  32.1665951  28.2655147
   6.4534713  25.2998588  22.0047913   6.5718281  25.7575051  21.2715216
   6.2796889  24.4943849  21.7184131   6.4453884  25.2492360  21.8548847
   2.3727596  36.5871076  29.4619393   2.3086737  37.4481032  29.3339530
   2.5124783  36.2703069  28.6614944   2.3843066  36.6671242  29.3247606
   2.8808279  39.1513150  17.9056932   3.4223824  38.6483531  18.3695552
   3.1954838  39.0978345  17.0946417   3.0072676  39.0692571  17.8540744
   4.0297548  34.0449455  27.9579232   4.2439518  33.4060369  27.4042586
   3.4131448  34.4895278  27.5287094   3.9702878  34.0159598  27.8129663
   6.1936636  35.6538520  28.8962539   5.3813318  35.3464410  28.9775712
   6.6526571  35.1737520  29.4605251   6.1417021  35.5375012  28.9917133
   3.4212277  27.1549390  22.9466575   2.5505835  27.1288111  22.8999884
   3.6752618  26.9826582  22.1292421   3.3305837  27.1259534  22.8186712
   3.2890144  37.0598591  33.6791242   3.7589775  37.6840708  34.0659116
   3.3352024  36.3915567  34.2384456   3.3658020  37.0533272  33.8191313
   2.5153651  29.7048579  26.2332898   2.1285404  29.7297610  27.0146428
   2.0286588  29.1390257  25.7807415   2.3866160  29.6244330  26.2820802
   8.4903631  36.2711234  24.8572600   8.0631239  36.1837582  24.1020700
   7.8529683  36.3789009  25.4427444   8.3333238  36.2743894  24.8318042
   2.1810793  26.5915564  28.5243158   2.8103911  27.1275864  28.2464228
   2.3496655  26.4992923  29.3756724   2.2988587  26.6576927  28.6091686
   1.9824708  31.3786759  30.7969569   2.8098137  31.1071908  30.8528184
   2.0032554  32.1747601  31.1533388   2.1077558  31.4566513  30.8584752
   5.6734711  29.1251453  21.4928460   5.8784305  29.0573761  22.3385457
   5.3461135  29.9310274  21.4249637   5.6549959  29.2337393  21.6088115
   8.9268399  29.6783217  20.9731225   8.3142713  30.1653619  21.3584957
   9.0232574  29.0026708  21.5168876   8.8506297  29.6501526  21.1110083
   2.9287480  31.4346058  16.0728724   3.3831226  31.6056619  16.7976569
   3.4027526  30.8214169  15.6726500   3.0655800  31.3696943  16.1202486
  12.5693427  40.7500154  26.4008741  12.6276551  41.1986803  27.1468718
  11.9359894  41.1598967  25.9638821  12.4844722  40.8773888  26.4461290
   2.1880075  29.9338851  22.2105593   1.3416120  30.1061659  22.0846943
   2.1851208  29.1288195  22.5471421   2.0627225  29.8399880  22.2416720
   3.2578376  33.7114066  23.0767651   2.7838330  33.1855828  23.5872962
   3.6296512  33.1643539  22.5082513   3.2428265  33.5530062  23.0682798
   9.5215106  38.7716441  24.4874432   9.2813329  37.9322857  24.4916858
  10.0007114  38.8516608  25.2115205   9.5567290  38.6597841  24.5949234
   5.1861875  34.6050620  16.1393405   4.6584894  34.6879364  15.4499114
   5.6457584  35.3468492  16.1358050   5.1763726  34.7271283  16.0368100
  11.5220293  35.5517899  22.4403691  11.2830063  35.5113733  21.6024475
  11.6854195  36.3989051  22.5669412  11.5110597  35.6709984  22.3357173
   8.1266323  39.9367848  28.3708736   8.8500522  39.4840374  28.1919756
   7.8616286  40.2172514  27.5881064   8.1947597  39.9118816  28.2287451
   3.9085113  40.0351726  26.5203751   3.2942106  39.4909776  26.8152386
   4.4252398  39.5215963  26.0409567   3.8940775  39.8788135  26.4927979
   4.2064240  28.3082405  27.8787273   3.7104801  28.5046079  27.1878840
   4.9633302  28.7075073  27.7076075   4.2451065  28.3960139  27.7507410
   1.4767120  31.9824751  24.4690584   1.5009607  31.4484863  23.7803364
   1.7278593  31.4742060  25.1316174   1.5177039  31.8285655  24.4655228
  10.5601637  38.8994259  26.8739286  11.1519478  39.5391509  26.9057484
  10.9960632  38.2017296  27.1631352  10.7120069  38.8912609  26.9220118
   4.5557210  31.6864951  26.3421842   4.9812281  31.2337477  25.7305369
   3.9414203  31.1325021  26.6186630   4.5285855  31.5378927  26.2926868
   2.9951432  28.1580051  19.7512419   2.3519750  28.0077697  20.3197558
   2.6550839  27.9122396  18.9861524   2.8496510  28.0992173  19.7215435
   7.5850779  36.1139477  19.1742428   6.9141969  36.6569180  19.0455494
   8.2790529  36.5834333  18.9324123   7.5879646  36.2637749  19.1197956
   7.7478906  32.5695361  22.0832801   8.1006516  32.1425084  22.7578600
   6.8893708  32.4846205  22.2133878   7.6728351  32.4940102  22.2027812
   5.7462172  35.8330730  26.0317644   5.7260099  35.6514025  26.8852422
   5.7941373  36.7042748  26.0077227   5.7496813  35.9347268  26.1540938
   2.2209166  34.2400881  15.4789027   1.6274005  34.5617877  14.9273594
   2.2584443  33.3941976  15.2710133   2.1383555  34.1625209  15.3671799
   9.1802966  27.6913773  23.0117114   8.6733831  26.9842912  22.9438291
   9.9770400  27.3606962  23.1418190   9.2230206  27.5386924  23.0216109
   5.0966982  34.1980385  18.9090778   4.8680675  34.2213087  18.0669136
   5.3565058  33.3737852  19.0285788   5.1013170  34.0796465  18.8015975
  11.3823106  42.2078700  15.9957978  11.7656712  42.9570056  16.2256075
  10.5867220  42.4544519  15.7369967  11.3216889  42.3548393  15.9915552
   3.2555281  33.9739103  30.9518133   3.8126711  33.7452912  30.3196599
   2.9316346  34.7344768  30.6753346   3.2901691  34.0522940  30.8174630
   0.9738398  37.0606756  31.9170140   1.7249725  37.3758433  32.2309695
   1.1660975  36.8585927  31.0904062   1.1129812  37.0774138  31.8413536
   7.8223688  33.1880322  19.1593936   7.8217915  33.0328979  20.0178212
   7.6179868  34.0343309  19.1035321   7.7923466  33.2900943  19.2781875
   5.5464540  37.8677824  22.8130143   6.0418206  37.1500819  22.7734163
   4.7364316  37.5648622  22.6984630   5.5008434  37.7175470  22.7903869
   7.6116359  40.6181512  25.5007271   8.0371431  40.0955934  24.9477697
   7.2473279  41.2162349  24.9795894   7.6202962  40.6291739  25.3416281
   1.1164454  29.1043247  28.7866524   1.2492359  28.3074240  29.1147499
   1.5009606  29.6309650  29.3664799   1.1920783  29.0643163  28.9210027
   4.1896809  26.0273573  25.3847617   3.3842773  25.9171302  25.7015455
   4.0603544  26.1286028  24.5277483   4.0516942  26.0257243  25.3055657
   7.6462769  32.1919065  25.9787314   7.0625758  32.6928271  25.5664881
   7.9667064  31.6848621  25.3451637   7.6075945  32.1910900  25.8245821
  18.0092761  42.7089874  20.0581263  17.6946202  43.3993353  20.4901686
  17.4919703  42.6534656  19.3566764  17.8857232  42.8024763  20.0178212
  19.9815046  45.9953862  23.9245862  20.6240955  46.0651966  24.5107777
  20.2338067  45.3283085  23.4225404  20.1137178  45.9080210  23.9373141
  16.5999641  44.7098123  24.3933980  16.9810153  44.0276294  24.7801854
  15.7962925  44.4207725  24.2109644  16.5376102  44.5665172  24.4238036
  17.4267297  40.8183896  22.0047913  17.5450865  41.2760359  21.2715216
  17.2529473  40.0129157  21.7184131  17.4186468  40.7677668  21.8548847
  14.3944861  42.6734698  22.9466575  13.5238419  42.6473419  22.8999884
  14.6485202  42.5011890  22.1292421  14.3038421  42.6444842  22.8186712
  13.1543376  42.1100872  28.5243158  13.7836494  42.6461172  28.2464228
  13.3229239  42.0178231  29.3756724  13.2721171  42.1762234  28.6091686
  19.9000982  45.1968525  20.9731225  19.2875296  45.6838927  21.3584957
  19.9965157  44.5212016  21.5168876  19.8238880  45.1686834  21.1110083
  15.1796824  43.8267713  27.8787273  14.6837385  44.0231387  27.1878840
  15.9365886  44.2260381  27.7076075  15.2183649  43.9145447  27.7507410
  13.9684016  43.6765359  19.7512419  13.3252334  43.5263005  20.3197558
  13.6283423  43.4307704  18.9861524  13.8229093  43.6177481  19.7215435
  20.1535550  43.2099081  23.0117114  19.6466415  42.5028220  22.9438291
  20.9502984  42.8792270  23.1418190  20.1962789  43.0572232  23.0216109
  15.1629392  41.5458881  25.3847617  14.3575356  41.4356610  25.7015455
  15.0336128  41.6471336  24.5277483  15.0249525  41.5442551  25.3055657
   2.7958807  13.2918109   9.7781316   1.9396703  13.4526607   9.8290433
   2.8426461  12.4210173   9.7986377   2.6757918  13.1868911   9.7887382
   6.1052524  19.5604634  19.3841772   6.8119291  19.0656665  19.5128707
   6.2940459  20.0013716  18.6544430   6.2380429  19.5522985  19.2950818
   2.1729198  25.2020465   6.9115207   2.5568577  25.7707363   6.3719982
   2.1088339  24.4769975   6.4321023   2.2202625  25.1795928   6.7609069
   5.6410628  15.3510153  12.4212968   6.1866588  16.0295239  12.4806938
   5.5827504  15.2097614  11.5614550   5.7126542  15.4302154  12.3025029
   1.5453400  20.5974140  11.5055934   1.8276643  19.8025546  11.2842690
   2.2739560  21.0754728  11.5260995   1.6942964  20.5508737  11.4758950
  11.5271488  19.7033503   8.4791765  10.6969191  19.9144146   8.6425182
  11.4780741  18.8770557   8.2034049  11.3978224  19.6123109   8.4629131
   3.2444818  22.9832171  17.2755848   3.3328164  22.7958311  18.1234058
   3.6734530  22.3369600  16.8760695   3.3206920  22.8595179  17.3427599
  11.0225447  12.3503903  12.2742187  10.1853868  12.4206090  12.5089781
  10.9913678  12.3528398  11.4016489  10.8943729  12.3614130  12.1801735
   5.7455632  16.5459580   7.8654078   6.5013147  16.9791094   7.9042987
   5.8517957  15.8964350   8.4388714   5.8725803  16.5137064   7.9552104
   8.7835804  20.3732857   8.6156481   8.3471035  20.3769600   9.3715452
   8.4498719  21.0538356   8.1836058   8.6698423  20.4745313   8.6637314
   3.3564877  22.4141190  19.9399631   4.1405294  22.5272038  20.3055373
   3.1561472  21.5882327  20.1358317   3.4430903  22.3087909  20.0234017
   3.5135270  24.3251292  13.5866087   2.7150516  24.0850792  13.8439956
   3.9621282  24.3765685  14.3333135   3.4609882  24.2973683  13.7351011
  11.9180150  17.0913777   7.5076118  12.5796584  16.5304445   7.4072027
  11.2771562  16.5965808   7.8328809  11.9209017  16.9350186   7.5408458
   8.2044980  18.1079159   7.2488107   8.4400570  18.2524358   6.4214958
   8.3534544  18.8721567   7.6419621   8.2610784  18.2418214   7.1851711
  10.0335437  16.9480825   5.0857711  10.3643654  17.4808465   4.4797806
  10.6068525  17.0019713   5.7419662  10.1669116  17.0350394   5.0935493
   2.5736007  18.0711737  21.4786275   1.7808988  18.3855249  21.6638895
   2.6884934  18.2863205  20.6407060   2.4731418  18.1495574  21.3824610
   3.5019800  17.9731941  16.4171572   4.0758662  17.3359185  16.5720136
   3.4234604  17.9736023  15.5481229   3.5753035  17.8797052  16.3117983
   1.4991520  12.4316318  13.8150042   1.1105952  12.0070535  13.1602234
   0.8346218  12.6798467  14.3227069   1.3438447  12.4055039  13.7937910
   8.8239948  19.3440918  16.4256425   8.5878585  18.5128983  16.3068486
   9.4683177  19.2926525  17.0111269   8.8834619  19.2138606  16.4942319
   9.8476369  19.1285367  12.4884720   9.5422186  19.8613424  12.8498035
   9.1282584  18.7223297  12.2077506   9.6963711  19.1767100  12.4997857
   0.8559838  20.6108862   8.8192948   0.9298846  20.4484034   9.6734798
   1.6729344  20.7999052   8.5753429   0.9876197  20.6145605   8.9090973
  15.5478161  15.7678368  11.8153064  15.4802661  15.7874327  10.9455650
  15.5333823  16.6108695  12.0408734  15.5356917  15.8952102  11.7205541
   5.9574507   7.1713525  15.1394153   6.7028099   6.9823336  14.7257579
   5.5411812   7.6971763  14.5808010   6.0059481   7.2215671  14.9958726
  13.3336778  14.5422754  10.0899658  13.8844700  13.9090823  10.3296750
  13.3180893  15.0738147  10.7815162  13.4121974  14.5271702  10.2278516
   7.0365184  12.7819088   9.2004254   6.6929950  12.0609423   9.5511504
   7.1358227  12.5732939   8.3582613   7.0007227  12.6443291   9.1275934
   7.4978213  19.2444792   4.7428243   8.0636246  19.9038002   4.6586785
   6.8506117  19.5894490   5.2144645   7.4856970  19.3926733   4.8000999
   5.5556150  10.7010672  11.0763797   4.7167250  10.7271951  10.8402061
   5.6260517  11.3481408  11.6569144   5.4424543  10.8006798  11.1272914
   9.4313674  15.9078659   8.3625039   9.3447648  16.0634085   9.2159818
   8.9764153  16.5516735   7.9884444   9.3516930  16.0254414   8.4332146
   7.1987538  19.9372766  10.7737380   7.0601898  20.6353811  11.2786122
   6.4187536  19.7821422  10.4173562   7.0630765  20.0172932  10.7963654
   5.5365624  16.2369141  17.0259761   5.5313662  15.3648957  17.0302188
   6.2426617  16.4357310  16.5529217   5.6410628  16.1373015  16.9566797
   1.4356434  15.1636293  14.1798713   0.6879748  15.3567308  13.7746991
   1.5897959  14.3381513  13.9422835   1.3478862  15.0701405  14.0844119
   0.8617573  24.3263540  14.5419099   0.7861244  23.6572350  15.0969888
   0.7907432  25.0281328  15.0559766   0.8398179  24.3308447  14.6995947
   1.6758211   9.0586844  15.0694117   2.1330825   9.7910818  15.1966909
   1.7514540   8.6353309  15.8281373   1.7549181   9.1044082  15.1995193
   1.5187819  22.8464538   5.3742705   2.2837711  22.5774182   5.0525370
   1.4165909  22.3614549   6.0912768   1.6169315  22.7354103   5.4322533
   4.9384276  18.6831378   9.6395387   4.2629277  18.4516610  10.1408774
   4.9476652  18.0752561   9.0137492   4.8402780  18.5590303   9.6211539
   2.0678419  13.5249207  16.3959440   2.0037561  14.3859163  16.2679577
   2.2075607  13.2081200  15.5954991   2.0793890  13.6049374  16.2587653
   6.4476210  20.2993929  21.9523891   7.2611076  20.0279078  22.1129023
   6.2871177  20.0001469  21.1484087   6.5446159  20.2148855  21.8569297
   3.7248372  10.9827586  14.8919279   3.9390342  10.3438500  14.3382633
   3.1082272  11.4273410  14.4627141   3.6653702  10.9537730  14.7469710
   5.1353040  23.9046334   6.3373500   4.7432832  23.6013049   5.6196366
   5.2906112  24.7415424   6.1478454   5.1006630  23.9830171   6.2029997
   5.8887460  12.5916651  15.8302586   5.0764142  12.2842541  15.9115759
   6.3477395  12.1115651  16.3945298   5.8367845  12.4753143  15.9257180
   5.2992715  20.4696323   6.2779530   4.9407370  20.6410966   7.0543563
   4.8131426  20.9309529   5.7207529   5.1751412  20.5635294   6.3104800
   2.9840968  13.9976722  20.6131288   3.4540599  14.6218839  20.9999163
   3.0302848  13.3293698  21.1724503   3.0608844  13.9911403  20.7531360
   6.4597454  21.3600219  17.2246731   7.0977175  20.8660415  16.8909187
   5.8171546  21.2877619  16.6398958   6.4591681  21.2759227  17.0889086
   8.1854454  13.2089365  11.7912647   7.7582063  13.1215713  11.0360746
   7.5480507  13.3167140  12.3767491   8.0284062  13.2122025  11.7658088
   1.6775532   8.3164890  17.7309616   2.5048961   8.0450039  17.7868231
   1.6983378   9.1125732  18.0873434   1.8028382   8.3944644  17.7924799
   6.5151711  22.0520027  13.8652088   7.3044089  21.7009092  13.9854170
   6.6895309  22.8656416  13.6028722   6.6571993  22.1205884  13.8439956
  12.2644251  17.6878285  13.3348788  12.3227375  18.1364934  14.0808765
  11.6310718  18.0977098  12.8978868  12.1795546  17.8152020  13.3801336
   5.9043345  23.3081827   9.7703534   5.7063034  23.7972641   9.0759746
   5.2831057  23.5123068  10.3487668   5.7830910  23.4098365   9.7526758
   9.2165930  15.7094573  11.4214478   8.9764153  14.8700988  11.4256905
   9.6957937  15.7894739  12.1455252   9.2518114  15.5975972  11.5289281
  11.2171117  12.4896030   9.3743737  10.9780887  12.4491864   8.5364522
  11.3805019  13.3367182   9.5009459  11.2061421  12.6088115   9.2697219
   7.8217147  16.8745979  15.3048783   8.5451346  16.4218506  15.1259803
   7.5567110  17.1550645  14.5221110   7.8898421  16.8496948  15.1627498
   3.6035937  16.9729857  13.4543798   2.9892930  16.4287908  13.7492433
   4.1203222  16.4594094  12.9749614   3.5891599  16.8166266  13.4268026
   2.8432234  18.0434127  11.1888096   2.4159842  17.4183846  10.7553532
   2.8357178  17.7609049  12.0147104   2.7791375  17.9086908  11.2467924
   3.9015064   5.2460536  14.8127320   3.4055625   5.4424210  14.1218887
   4.6584126   5.6453204  14.6416121   3.9401889   5.3338270  14.6847457
  10.2552461  15.8372390  13.8079332  10.8470302  16.4769641  13.8397530
  10.6911456  15.1395427  14.0971399  10.4070893  15.8290740  13.8560165
   2.0845851  20.2589762  14.4337226   1.5770942  20.8125609  14.8777857
   1.7872497  20.3198052  13.6156001   1.9650736  20.3496074  14.3785683
   4.2508033   8.6243082  13.2761889   4.6763105   8.1715608  12.6645416
   3.6365027   8.0703153  13.5526677   4.2236679   8.4757058  13.2266915
   1.3288337  25.1914321  11.3394233   1.1053991  24.4333150  11.7078260
   0.8398180  25.2212342  10.6174673   1.2231786  25.0836545  11.2870974
   5.4412996  12.7708861  12.9657690   5.4210923  12.5892156  13.8192469
   5.4892197  13.6420879  12.9417274   5.4447637  12.8725399  13.0880985
   3.3859326  19.3596053  18.8906167   3.3455181  18.7145730  18.3051323
   4.1982644  19.3032670  19.2031579   3.5002479  19.2555020  18.8503116
   3.3432088  24.5704864   9.5454934   2.9448371  24.6807134   8.7775755
   2.7283307  24.7786930  10.1281494   3.1930977  24.6178432   9.5186234
  11.0773930  19.1456831   2.9298025  11.4607536  19.8948187   3.1596122
  10.2818044  19.3922650   2.6710014  11.0167712  19.2926525   2.9255599
   2.9506105  10.9117234  17.8858180   3.5077535  10.6831044  17.2536646
   2.6267170  11.6722900  17.6093392   2.9852515  10.9901071  17.7514677
   0.6689222  13.9984887  18.8510187   1.4200549  14.3136564  19.1649741
   0.8611799  13.7964058  18.0244109   0.8080636  14.0152269  18.7753583
   5.2415364  14.8055955   9.7470190   5.7369030  14.0878950   9.7074210
   4.4315140  14.5026753   9.6324676   5.1959258  14.6553602   9.7243915
   7.3067183  17.5559643  12.4347318   7.7322255  17.0334065  11.8817743
   6.9424103  18.1540480  11.9135941   7.3153786  17.5669870  12.2756328
   3.8945783  21.2693907   8.7648476   4.3656961  21.9834170   8.9338461
   4.2305961  20.6692657   9.3008345   4.0140898  21.2865371   8.8680852
   5.9822767  22.8795221  20.9440548   6.0919733  22.0903781  21.2997295
   6.3113664  22.7901157  20.1414886   6.0475173  22.7501073  20.8782939
   4.5319729  21.0611841  15.5276168   3.9840675  20.4369725  15.2596234
   4.9932758  21.2506113  14.8120248   4.5186939  20.9970891  15.3826599
   7.3413593   9.1297196  12.9127361   6.7576582   9.6306402  12.5004928
   7.6617887   8.6226752  12.2791684   7.3026769   9.1289031  12.7585868
   4.0978055  22.0662914  12.0585510   4.9176429  21.9225880  12.3201805
   3.8172133  22.6909113  12.6001947   4.1774799  22.1373266  12.1773449
  20.5691706  29.7227766   5.0228386  20.5385710  30.5772402   5.1946655
  21.1673054  29.4223058   5.5814530  20.6528864  29.8044262   5.1303188
  13.7691391  28.8103417   9.7781316  12.9129286  28.9711915   9.8290433
  13.8159044  27.9395481   9.7986377  13.6490502  28.7054219   9.7887382
  17.0785107  35.0789942  19.3841772  17.7851874  34.5841973  19.5128707
  17.2673043  35.5199024  18.6544430  17.2113013  35.0708293  19.2950818
  13.1461781  40.7205773   6.9115207  13.5301161  41.2892671   6.3719982
  13.0820923  39.9955283   6.4321023  13.1935209  40.6981236   6.7609069
  16.6143212  30.8695461  12.4212968  17.1599172  31.5480547  12.4806938
  16.5560088  30.7282922  11.5614550  16.6859126  30.9487462  12.3025029
   9.7317286  38.3584527   7.8081320   9.8327649  37.5484881   8.1178448
   9.1359032  38.2641473   7.1780999   9.6589825  38.2249555   7.7607559
  18.3908280  32.2980068   3.2946696  18.2747806  33.0487754   3.7238834
  19.1864167  32.0404021   3.5442783  18.4912870  32.3714915   3.3950787
   5.2272418  26.5490544  10.3317962   4.6077450  25.9583191  10.1627977
   5.1256282  27.1401979   9.6982285   5.1210094  26.5494626  10.2122951
  10.2738606  36.2874091   4.5816038  10.5954447  36.8279298   3.9777346
  10.9210702  35.7170862   4.7138328  10.4164661  36.2833266   4.5123074
  12.3240314  28.2890086   4.6650425  13.0220479  28.4678213   5.1571888
  12.6392646  27.7660425   4.0420814  12.4735651  28.2383858   4.6452435
   4.9541551  30.0942826  12.5761531   4.8300248  30.6805271  13.2111350
   5.6059836  29.6003021  12.8773806   5.0315201  30.1081630  12.7147460
  12.5128249  34.6760531   4.6530216  12.9521885  34.0677631   5.0984989
  12.3632912  34.2967904   3.8815681  12.5549715  34.5299002   4.6049384
   9.9799892  33.2704543  11.8549042  10.6248895  32.7776986  11.5359990
  10.2201669  33.4129329  12.6815120  10.1110477  33.2181985  11.9298575
  12.5185984  36.1159448  11.5055934  12.8009226  35.3210854  11.2842690
  13.2472144  36.5940036  11.5260995  12.6675547  36.0694045  11.4758950
  10.4967177  23.6582482   8.7471700  10.1670507  24.1093626   8.0775398
   9.8212179  23.5798646   9.2944706  10.3477614  23.7133618   8.7294923
  16.1137586  33.0287712   1.6060986  16.0288881  33.8848679   1.7510554
  16.6021969  32.7532036   2.2743145  16.1726483  33.1145033   1.7263067
  17.7043585  19.6468005   6.9921310  17.3897026  20.3371484   7.4241733
  17.1870527  19.5912788   6.2906811  17.5808056  19.7402894   6.9518259
  17.0456019  29.6472506   3.1058721  16.5167490  29.8632140   3.7656027
  17.5681039  30.3408645   3.0259690  17.0444472  29.7815643   3.1914320
  22.5004072  35.2218811   8.4791765  21.6701775  35.4329454   8.6425182
  22.4513324  34.3955865   8.2034049  22.3710807  35.1308417   8.4629131
  10.5613809  38.0522665  11.3139675  10.0440751  37.6930080  10.7100983
  11.2588201  37.5284839  11.3245741  10.5879391  37.9220353  11.2269933
  14.2177401  38.5017479  17.2755848  14.3060747  38.3143619  18.1234058
  14.6467114  37.8554908  16.8760695  14.2939504  38.3780487  17.3427599
  11.7847861  37.7848639  16.2573510  11.2218696  37.3721249  16.7813171
  12.5468885  37.7101544  16.6766653  11.8142310  37.7126039  16.3966510
  13.3932841  29.7901375   0.3835109  13.6328845  29.9979359  -0.4289548
  13.7148682  28.9858884   0.4924054  13.4769999  29.7015476   0.2795662
   8.7023131  21.7194771   4.2294647   9.4569100  22.0873088   3.9911697
   8.5250666  22.0934325   4.9973827   8.7877610  21.8292959   4.3079536
   7.3443853  39.7746660   8.8610140   8.0464432  39.2598649   8.9182897
   7.2641336  40.1020811   9.6657015   7.4367613  39.7460886   8.9882932
  21.9958030  27.8689211  12.2742187  21.1586451  27.9391398  12.5089781
  21.9646261  27.8713706  11.4016489  21.8676313  27.8799438  12.1801735
   8.3922759  30.0122247  17.9890555   8.5643263  29.9028142  18.8375837
   8.9292117  30.6576652  17.7521747   8.4967763  30.0914249  18.0795652
   6.6694628  35.9653012   8.3695748   7.5083528  36.1975945   8.4169510
   6.7006397  35.0957323   8.3002784   6.7976346  35.8709958   8.3660393
   7.2947331  36.3853887  12.6709054   7.8345556  36.2425018  13.3412426
   6.6117277  36.7850638  13.0393080   7.2739485  36.4233558  12.8243475
  12.7379915  21.1291500   3.9621784  13.4666076  20.9507455   3.5159940
  12.8274808  21.9709580   4.1728962  12.8586577  21.2275379   3.9275302
  16.7188216  32.0644888   7.8654078  17.4745731  32.4976402   7.9042987
  16.8250540  31.4149658   8.4388714  16.8458387  32.0322372   7.9552104
  19.7568387  35.8918165   8.6156481  19.3203619  35.8954907   9.3715452
  19.4231303  36.5723664   8.1836058  19.6431007  35.9930621   8.6637314
  14.3297461  37.9326498  19.9399631  15.1137877  38.0457346  20.3055373
  14.1294055  37.1067635  20.1358317  14.4163486  37.8273217  20.0234017
   2.6984476  32.6054178  12.8243475   2.4322891  31.7893295  12.9834465
   2.7123040  32.6507334  11.9538991   2.6609199  32.4911083  12.7196957
  19.6765870  22.9331993  10.8585909  20.3191778  23.0030097  11.4447824
  19.9288891  22.2661216  10.3565451  19.8088002  22.8458342  10.8713188
   7.4483083  26.1432556  15.4710483   6.7554879  25.6729536  15.7171214
   8.0643410  25.9170861  16.0452190   7.4367613  26.0399688  15.5919635
  14.4867854  39.8436600  13.5866087  13.6883100  39.6036100  13.8439956
  14.9353866  39.8950993  14.3333135  14.4342465  39.8158991  13.7351011
  22.8912733  32.6099085   7.5076118  23.5529167  32.0489753   7.4072027
  22.2504145  32.1151116   7.8328809  22.8941601  32.4535494   7.5408458
   3.1077890  33.3912957  10.1055219   2.9253463  33.3659843   9.2527512
   3.8427559  33.8611895  10.1444128   3.1891954  33.4574320   9.9853138
  19.1777564  33.6264467   7.2488107  19.4133153  33.7709666   6.4214958
  19.3267128  34.3906875   7.6419621  19.2343367  33.7603522   7.1851711
   6.1723642  30.1097960  16.6137328   6.8963614  30.0950991  17.1002223
   6.2739778  30.8193315  16.1159296   6.2941851  30.2122663  16.6116115
  21.0068021  32.4666133   5.0857711  21.3376238  32.9993773   4.4797806
  21.5801109  32.5205021   5.7419662  21.1401700  32.5535702   5.0935493
  13.5468591  33.5897045  21.4786275  12.7541572  33.9040557  21.6638895
  13.6617518  33.8048513  20.6407060  13.4464001  33.6680882  21.3824610
  16.2199910  30.3131036   5.7681291  16.3146764  31.0520330   6.2220916
  15.5958753  29.8848511   6.2015855  16.1408940  30.3592357   5.8989438
  14.4752384  33.4917249  16.4171572  15.0491245  32.8544493  16.5720136
  14.3967187  33.4921331  15.5481229  14.5485619  33.3982360  16.3117983
   3.0748800  30.2706458  10.2554286   3.6522303  30.1342909  10.8946531
   2.3762862  29.8142242  10.5099870   3.0569822  30.1828724  10.3876576
  16.4722931  32.1579776  -0.9981757  16.3903094  32.2281963  -0.1326770
  17.1102652  32.7209520  -1.1898016  16.5542769  32.2518747  -0.8991808
   9.8316102  31.9240514   8.4692769   9.5735347  31.0912249   8.4424069
   9.8864585  32.1498127   7.6285270   9.8015880  31.8338285   8.3412906
  14.9117153  24.0268964   8.5696862  14.2073479  23.5378150   8.7280781
  14.9602127  24.0391439   7.6985306  14.8147204  23.9558612   8.4636202
   8.8050815  29.4778276   8.9557664   8.2300406  29.6370445   9.5921625
   8.4286491  28.8413685   8.4926115   8.6653627  29.4076089   8.9812222
  12.4724103  27.9501625  13.8150042  12.0838536  27.5255843  13.1602234
  11.8078802  28.1983775  14.3227069  12.3171031  27.9240347  13.7937910
  22.1147372  27.7076630   6.5897872  21.8583937  26.8956572   6.3995755
  22.9576686  27.7154197   6.3628060  22.2013398  27.5888628   6.5282690
  16.2950465  21.6476254  11.3274027  16.6760976  20.9654425  11.7141901
  15.4913749  21.3585856  11.1449691  16.2326926  21.5043303  11.3578083
  13.5763041  32.1800230   2.0126849  14.3903680  32.4715123   1.9009621
  13.5122183  31.5260092   1.4385142  13.6865780  32.1265425   1.9115687
  19.7972532  34.8626226  16.4256425  19.5611169  34.0314291  16.3068486
  20.4415761  34.8111833  17.0111269  19.8567202  34.7323914  16.4942319
   9.4470950  35.6521748   7.1399161  10.0844897  35.4133495   7.6850955
   9.8726021  35.8558906   6.4052322   9.6047116  35.6472758   7.1116319
   4.1383592  37.8910084  11.0233465   4.1787737  38.1624935  10.1953245
   4.6978116  38.4151992  11.4391253   4.2266938  38.0085839  10.9625353
  10.0873765  30.8724037   1.4774051  10.4718917  30.6531744   2.2290596
   9.8385385  31.6986983   1.6075127  10.1075837  30.9622184   1.6075127
  10.2542305  24.1530452  21.1936635   9.9395746  24.9230015  20.9306198
   9.9332238  23.5900709  20.6088862  10.1601224  24.1840721  21.0677985
  20.8208952  34.6470675  12.4884720  20.5154769  35.3798732  12.8498035
  20.1015168  34.2408604  12.2077506  20.6696294  34.6952408  12.4997857
  11.8292422  36.1294170   8.8192948  11.9031430  35.9669342   9.6734798
  12.6461928  36.3184360   8.5753429  11.9608780  36.1330913   8.9090973
  26.5210744  31.2863676  11.8153064  26.4535245  31.3059635  10.9455650
  26.5066407  32.1294003  12.0408734  26.5089501  31.4137410  11.7205541
   7.8074202  22.5420974   6.8082831   6.9396628  22.6143573   6.8740441
   8.0949406  23.3443053   6.9970806   7.7213950  22.6715121   6.8457598
  16.9307091  22.6898833  15.1394153  17.6760683  22.5008644  14.7257579
  16.5144395  23.2157071  14.5808010  16.9792065  22.7400979  14.9958726
  24.3069362  30.0608062  10.0899658  24.8577283  29.4276131  10.3296750
  24.2913477  30.5923455  10.7815162  24.3854558  30.0457010  10.2278516
  10.9591753  33.8946659  14.6359552  10.4603446  34.6062427  14.7144440
  11.7691977  34.2147326  14.5977714  11.0047859  34.0473508  14.6416120
   7.2219870  33.1569612   8.8822273   6.9333119  32.5307083   9.4168000
   8.0903218  33.0989900   8.9486953   7.3080122  33.0557156   8.9713227
  18.0097768  28.3004396   9.2004254  17.6662534  27.5794731   9.5511504
  18.1090810  28.0918247   8.3582613  17.9739811  28.1628599   9.1275934
  18.4710797  34.7630100   4.7428243  19.0368830  35.4223309   4.6586785
  17.8238700  35.1079798   5.2144645  18.4589553  34.9112041   4.8000999
   9.8858811  26.7527704  19.9321850   9.0758586  27.0585483  19.8211692
  10.3633497  27.4733286  20.0474434   9.8362289  26.9042305  19.9328921
   8.7450370  35.9673425  10.1804753   8.2231124  36.1073716  10.8656618
   9.1324390  35.2084089  10.3706870   8.7254071  35.8758948  10.3105829
   5.7341554  26.0179233   4.2499708   5.4466350  25.6480504   3.5131655
   6.4212022  26.4874089   3.9883413   5.7930451  26.0326203   4.1014783
  14.9417375  37.7068884   4.1665322  14.7004051  36.9736744   3.7592387
  15.1218708  38.2555741   3.5131655  14.9324999  37.6791275   4.0095545
  10.1716696  32.9977444   5.5786244   9.9759478  33.6052178   4.9846547
  10.3951041  32.3045388   5.0977918  10.1751337  32.9854969   5.4202325
   8.5695226  29.8832181   5.6967112   9.2917878  30.0473340   5.2370918
   8.0903218  30.6041846   5.5906452   8.6058956  30.0130411   5.6132726
  16.5288733  26.2195980  11.0763797  15.6899834  26.2457259  10.8402061
  16.5993101  26.8666716  11.6569144  16.4157127  26.3192106  11.1272914
   6.2202842  32.2890254  14.8021252   6.7323939  32.5674507  14.1530012
   5.9339185  33.0279548  15.1684065   6.2537706  32.4392608  14.7611130
  14.9758012  23.1181357   5.8091413  15.6784364  22.9189106   5.3311371
  14.7102200  22.3457300   6.1160257  15.0404644  22.9744323   5.7836855
  20.4046257  31.4263967   8.3625039  20.3180232  31.5819393   9.2159818
  19.9496737  32.0702043   7.9884444  20.3249514  31.5439722   8.4332146
   3.3069749  26.7960446   5.0984989   3.4085885  27.5986607   5.4265964
   4.1025635  26.5947782   4.8008069   3.4397654  26.8846345   5.1020344
   9.7386568  24.3816642  14.8622294   9.5469765  24.3971777  15.7121717
  10.5885164  24.5780317  14.8388949   9.8362290  24.4130994  14.9845589
   4.1233481  26.9107624  12.8406110   3.9818973  26.0591565  12.9650618
   4.4074044  26.9536285  12.0168316   4.1441327  26.7907374  12.7373734
  14.2772073  28.7474714   6.9850599  14.0306787  28.6670465   7.8187387
  14.6057196  27.9628182   6.7913126  14.2893317  28.6200979   7.0798122
  18.1720122  35.4558073  10.7737380  18.0334481  36.1539119  11.2786122
  17.3920120  35.3006730  10.4173562  18.0363349  35.5358240  10.7963654
  16.5098207  31.7554449  17.0259761  16.5046246  30.8834265  17.0302188
  17.2159201  31.9542618  16.5529217  16.6143211  31.6558323  16.9566797
  10.2369100  31.4831433  16.3973582  10.3812476  32.0632641  15.7616692
  10.5844749  31.8607729  17.1023436  10.3096562  31.6252137  16.4072577
  12.4089018  30.6821601  14.1798713  11.6612332  30.8752615  13.7746991
  12.5630543  29.8566821  13.9422835  12.3211445  30.5886713  14.0844119
   9.3096855  39.6734205  13.2634608   9.4586419  39.1137120  12.6108013
  10.0896858  39.7526206  13.6467127   9.4470949  39.6019770  13.2231558
  19.6673495  34.8136327   1.5353879  19.2880304  34.0273465   1.5283168
  19.0039740  35.3623184   1.3925523  19.5131970  34.7781151   1.5134676
  11.8350156  39.8448847  14.5419099  11.7593827  39.1757658  15.0969888
  11.7640015  40.5466636  15.0559766  11.8130763  39.8493755  14.6995947
  12.6490795  24.5772152  15.0694117  13.1063409  25.3096126  15.1966909
  12.7247124  24.1538617  15.8281373  12.7281765  24.6229390  15.1995193
   4.8923786  24.8237972  16.1583561   4.3565976  24.2118330  16.4744328
   4.9541551  25.3986108  16.8117227   4.8219419  24.8184899  16.3018987
  17.1218121  17.7562027   8.9387960  17.2401689  18.2138490   8.2055263
  16.9480297  16.9507288   8.6524177  17.1137292  17.7055799   8.7888894
  12.4920403  38.3649846   5.3742705  13.2570294  38.0959490   5.0525370
  12.3898493  37.8799857   6.0912768  12.5901898  38.2539411   5.4322533
  10.5273173  26.5674256  11.9135941   9.7369248  26.3865716  12.2353277
  10.9233796  25.7901208  11.8966235  10.4690049  26.4261717  11.9588489
  15.9116859  34.2016686   9.6395387  15.2361861  33.9701918  10.1408774
  15.9209235  33.5937869   9.0137492  15.8135364  34.0775611   9.6211539
  13.0411003  29.0434515  16.3959440  12.9770144  29.9044471  16.2679577
  13.1808191  28.7266508  15.5954991  13.0526473  29.1234682  16.2587653
  17.9133594  37.0581818   1.8705565  17.9953431  37.8648804   1.5467016
  18.3983336  37.0777778   2.5946338  17.9970752  37.1802481   1.9292463
  11.7230097  31.7366654  10.5375643  11.2992346  31.9371153   9.8014661
  11.5474952  30.8895502  10.6499943  11.6340978  31.6415436  10.4449333
   7.0112542  32.2318706   5.9703615   7.1677161  32.1665508   6.8259607
   7.3513135  33.0067258   5.7582295   7.0845777  32.3367904   6.0658209
  13.5491687  31.6076589   4.8396979  14.0907232  31.1046970   5.3035599
  13.8638246  31.5541784   4.0286464  13.6756084  31.5256010   4.7880791
  17.4208794  35.8179237  21.9523891  18.2343659  35.5464385  22.1129023
  17.2603760  35.5186777  21.1484087  17.5178742  35.7334163  21.8569297
  14.6980956  26.5012894  14.8919279  14.9122925  25.8623808  14.3382633
  14.0814855  26.9458718  14.4627141  14.6386285  26.4723037  14.7469710
  16.1085624  39.4231642   6.3373500  15.7165416  39.1198357   5.6196366
  16.2638696  40.2600732   6.1478454  16.0739214  39.5015479   6.2029997
   3.5846803  29.4153656   6.2864382   3.9645768  29.8338201   5.6224650
   3.0102168  29.9967112   6.5933226   3.5558128  29.5631515   6.2341123
  16.8620044  28.1101959  15.8302586  16.0496726  27.8027849  15.9115759
  17.3209979  27.6300959  16.3945298  16.8100429  27.9938451  15.9257180
  16.2725299  35.9881631   6.2779530  15.9139953  36.1596274   7.0543563
  15.7864009  36.4494837   5.7207529  16.1483996  36.0820602   6.3104800
  14.0895685  19.6112829   9.8806622  13.2189243  19.5851551   9.8339931
  14.3436026  19.4390022   9.0632467  13.9989245  19.5822973   9.7526759
  13.9573551  29.5162030  20.6131288  14.4273183  30.1404147  20.9999163
  14.0035432  28.8479006  21.1724503  14.0341427  29.5096711  20.7531360
  11.1144825  21.6219058  11.3380092  10.5983314  20.9299249  11.4631671
  10.5538754  22.2889835  11.2842691  10.9551338  21.6182315  11.3486158
  13.1837059  22.1612018  13.1672945  12.7968812  22.1861049  13.9486475
  12.6969996  21.5953697  12.7147461  13.0549567  22.0807769  13.2160848
  17.4330038  36.8785527  17.2246731  18.0709758  36.3845723  16.8909187
  16.7904130  36.8062927  16.6398958  17.4324264  36.7944535  17.0889086
  19.1587038  28.7274673  11.7912647  18.7314646  28.6401021  11.0360746
  18.5213091  28.8352448  12.3767491  19.0016645  28.7307333  11.7658088
  12.8494200  19.0479003  15.4583205  13.4787318  19.5839303  15.1804275
  13.0180063  18.9556362  16.3096770  12.9671995  19.1140366  15.5431733
  12.6508115  23.8350198  17.7309616  13.4781544  23.5635347  17.7868231
  12.6715961  24.6311040  18.0873434  12.7760965  23.9129952  17.7924799
  17.4884295  37.5705335  13.8652088  18.2776673  37.2194400  13.9854170
  17.6627892  38.3841724  13.6028722  17.6304576  37.6391192  13.8439956
   7.2277605  30.9814061  10.9179877   6.3865612  30.8817935  11.1258771
   7.4367613  31.7509541  11.2694198   7.1342298  31.0806104  11.0007192
   4.7053172  28.6033598   8.7464628   4.3109870  28.6776610   7.9714737
   4.1493289  28.9891544   9.2972989   4.5655984  28.6715372   8.7132287
  16.3418119  21.5814892   8.4268506  16.5467712  21.5137200   9.2725504
  16.0144543  22.3873713   8.3589684  16.3233367  21.6900832   8.5428162
  11.0394270  28.9095460  10.1677474  10.7357407  28.3551448  10.7687882
  10.3373691  29.0887670   9.6805509  10.8910480  28.8540242  10.1847180
  10.0960367  26.2195980   4.7322176  10.3720101  25.5014892   4.3199744
  10.6959036  26.8180900   4.5243282  10.2253632  26.2016351   4.6402937
   9.1012621  36.1245181  14.8749572   8.9932976  36.1347243  15.7411630
   9.3108402  36.9499961  14.6854526   9.1162732  36.2486256  14.9753664
  19.5951806  22.1346656   7.9071272  18.9826120  22.6217058   8.2925004
  19.6915981  21.4590147   8.4508923  19.5189704  22.1064965   8.0450130
  13.5970887  23.8909497   3.0068771  14.0514634  24.0620058   3.7316616
  14.0710933  23.2777608   2.6066547  13.7339208  23.8260382   3.0542533
   7.1186413  33.3757823  12.3371510   6.5274346  34.0167321  12.3074525
   7.8807436  33.7995440  12.3102809   7.1434673  33.5333662  12.3286657
   7.5147036  24.5359821  13.0039527   7.9748517  24.6098750  13.7414651
   7.5603142  25.3341075  12.6539349   7.5897591  24.6653968  13.0612284
   9.1630385  25.2026516  17.5711555   8.7715950  24.5559863  18.0067332
   9.3316248  25.7937951  18.1905810   9.1301296  25.1940784  17.7274261
  23.2376834  33.2063593  13.3348788  23.2959958  33.6550242  14.0808765
  22.6043302  33.6162406  12.8978868  23.1528129  33.3337328  13.3801336
  16.8775929  38.8267135   9.7703534  16.6795618  39.3157949   9.0759746
  16.2563640  39.0308376  10.3487668  16.7563494  38.9283673   9.7526758
  10.9383907  30.5952032   4.1113779  11.6825952  30.9826308   4.3496728
  11.0844604  29.7509457   4.2754266  11.0694493  30.5282504   4.1707748
  12.8563483  22.3902290   9.1445640  12.0099528  22.5625098   9.0186990
  12.8534615  21.5851634   9.4811468  12.7310633  22.2963319   9.1756767
  13.9261783  26.1677505  10.0107698  13.4521738  25.6419267  10.5213009
  14.2979919  25.6206978   9.4422559  13.9111672  26.0093502  10.0022845
   4.3034813  28.1649012  15.3791244   5.1660426  28.0644721  15.2928573
   3.9726596  27.5843721  14.8176816   4.3820010  28.0640638  15.2836650
  20.1898514  31.2279881  11.4214478  19.9496737  30.3886296  11.4256905
  20.6690521  31.3080047  12.1455252  20.2250698  31.1161280  11.5289281
  15.8545283  27.0614059   3.0733452  15.3268302  27.1442803   2.3839161
  16.3140991  27.8031931   3.0698096  15.8447133  27.1834722   2.9708147
  22.1903701  28.0081338   9.3743737  21.9513471  27.9677172   8.5364522
  22.3537602  28.8552490   9.5009459  22.1794004  28.1273423   9.2697219
  18.7949731  32.3931287  15.3048783  19.5183930  31.9403813  15.1259803
  18.5299693  32.6735953  14.5221110  18.8631004  32.3682256  15.1627498
   7.6636599  26.9891461  12.0401662   7.0389670  27.0009853  11.4327615
   7.3282194  27.4651636  12.6892902   7.5222091  27.0609978  12.0458230
   4.3762275  35.0491921  13.4805426   3.8462199  34.3584360  13.5300401
   4.6487368  35.0402106  12.6518135   4.3386997  34.9459053  13.3652842
  15.4082365  35.6317623   2.2043109  16.1316564  36.0975736   2.0607682
  14.9682956  35.6991233   1.4540706  15.4498058  35.7101460   2.0727890
  14.5768520  32.4915165  13.4543798  13.9625514  31.9473216  13.7492433
  15.0935805  31.9779402  12.9749614  14.5624183  32.3351574  13.4268026
  13.8164818  33.5619435  11.1888096  13.3892426  32.9369154  10.7553532
  13.8089762  33.2794357  12.0147104  13.7523959  33.4272216  11.2467924
   6.9327345  28.5984608  14.2576530   7.0920831  27.8427933  14.6628252
   6.7520238  29.1475548  14.9117268   6.9292704  28.5678422  14.4139236
  14.8747648  20.7645844  14.8127320  14.3788209  20.9609518  14.1218887
  15.6316710  21.1638512  14.6416121  14.9134472  20.8523578  14.6847457
  12.1450527  24.4388190  11.4030630  12.1693015  23.9048302  10.7143410
  12.3962001  23.9305499  12.0656221  12.1860446  24.2849094  11.3995275
   8.4251850  23.1659008  10.7836375   8.4650221  23.6668215  11.4971082
   7.6001514  23.2569402  10.5142298   8.3091376  23.2540824  10.8486913
  10.6081462  32.7319748  18.8856669   9.7577093  32.8691462  19.0214314
  10.7709590  31.9983526  19.3304371  10.5065326  32.6433849  18.9712268
   9.8466213  29.6819518  13.0810274   9.0158143  29.8493336  12.8745522
   9.7917730  29.3055469  13.8659159   9.7155628  29.6509249  13.1658802
   7.6549996  23.1728411  18.7166684   8.2802700  22.6290544  18.9896117
   7.2000476  22.6923328  18.1474475   7.6798257  23.0217892  18.6728278
   8.2202257  27.9575109   3.6100391   8.3605218  28.4547574   4.3129033
   8.7184790  27.2561404   3.7514605   8.3143338  27.9277088   3.7351970
  21.2285045  31.3557698  13.8079332  21.8202885  31.9954949  13.8397530
  21.6644039  30.6580735  14.0971399  21.3803476  31.3476048  13.8560165
   9.8281462  24.7556196   0.9138410  10.1497303  24.2759278   0.2597673
  10.0908406  25.5655842   0.7229222   9.9147487  24.8046094   0.7893902
  13.0578435  35.7775070  14.4337226  12.5503526  36.3310917  14.8777857
  12.7605081  35.8383360  13.6156001  12.9383320  35.8681381  14.3785683
  15.2240617  24.1428390  13.2761889  15.6495689  23.6900916  12.6645416
  14.6097610  23.5888461  13.5526677  15.1969262  23.9942366  13.2266915
  13.6634840  20.6143490   6.6852466  13.0203158  20.4641136   7.2537605
  13.3234247  20.3685835   5.9201571  13.5179917  20.5555612   6.6555481
  18.2534186  28.5702917   6.1082475  17.5825376  29.1132619   5.9795540
  18.9473937  29.0397772   5.8664170  18.2563054  28.7201188   6.0538003
  12.3020920  40.7099629  11.3394233  12.0786575  39.9518458  11.7078260
  11.8130763  40.7397650  10.6174673  12.1964369  40.6021853  11.2870974
  18.4162314  25.0258800   9.0172848  18.7689924  24.5988523   9.6918647
  17.5577115  24.9409644   9.1473924  18.3411758  24.9503541   9.1367859
   7.1145999  27.6566320   7.0755695   6.3957988  28.0730452   7.3428558
   7.4858361  28.2220559   6.5247333   7.0637931  27.8015601   7.0338502
  16.4145580  28.2894169  12.9657690  16.3943507  28.1077464  13.8192469
  16.4624780  29.1606187  12.9417274  16.4180221  28.3910707  13.0880985
  14.3591909  34.8781361  18.8906167  14.3187764  34.2331038  18.3051323
  15.1715228  34.8217978  19.2031579  14.4735063  34.7740328  18.8503116
  10.9499377  40.9300087   8.7931318  10.5359776  40.2674217   8.4035159
  11.6346751  41.0777945   8.2727012  10.9897749  40.8540745   8.6587815
  14.3164671  40.0890172   9.5454934  13.9180954  40.1992442   8.7775755
  13.7015891  40.2972238  10.1281494  14.1663560  40.1363740   9.5186234
  12.8892573  26.6964320   2.4129074  12.2957412  27.0181316   1.8613641
  12.9267851  25.8505415   2.2050180  12.8066962  26.6188648   2.3011845
  19.8486374  20.1477212   9.9457161  19.3417239  19.4406352   9.8778338
  20.6453808  19.8170401  10.0758237  19.8913613  19.9950363   9.9556156
  15.7650390  26.6543824   5.8430824  15.5364083  26.6776526   5.0009183
  16.0248466  25.8301291   5.9625835  15.7696578  26.5359904   5.7356022
  10.0469618  28.5078297  15.4455925   9.5348521  27.8999480  15.8040956
   9.8749114  29.2234890  15.9129900   9.9459255  28.5241597  15.5672148
   4.8935333  26.9515873  18.0958286   4.7237923  27.6117247  17.5506493
   4.4501283  27.1622434  18.8170775   4.8034666  27.0801855  18.1219916
   8.8195152  25.1920371   7.1385020   9.2952519  25.5537450   6.5035201
   8.3183752  25.8476838   7.4185163   8.8160511  25.3414559   7.0861761
  22.0506514  34.6642139   2.9298025  22.4340120  35.4133495   3.1596122
  21.2550627  34.9107958   2.6710014  21.9900296  34.8111832   2.9255599
  13.9238689  26.4302542  17.8858180  14.4810119  26.2016351  17.2536646
  13.5999754  27.1908208  17.6093392  13.9585099  26.5086379  17.7514677
   1.7937397  29.8562738  13.3546776   1.2464117  29.1863384  13.4727644
   2.5829776  29.4892586  13.4190243   1.8289581  29.7027725  13.3815477
  11.6421806  29.5170195  18.8510187  12.3933133  29.8321872  19.1649741
  11.8344382  29.3149366  18.0244109  11.7813220  29.5337577  18.7753583
  10.8621805  27.3361570   0.5058404  11.2420770  27.3541200  -0.2790481
  10.1214401  27.7815559   0.3849251  10.8090643  27.4043345   0.3721972
  18.4907096  25.6443762   6.0933983  18.4901322  25.4892418   6.9518259
  18.2863276  26.4906749   6.0375368  18.4606874  25.7464382   6.2121922
  16.2147948  30.3241263   9.7470190  16.7101613  29.6064258   9.7074210
  15.4047724  30.0212061   9.6324676  16.1691841  30.1738910   9.7243915
  18.2799767  33.0744951  12.4347318  18.7054838  32.5519373  11.8817743
  17.9156687  33.6725788  11.9135941  18.2886369  33.0855178  12.2756328
  14.8678366  36.7879215   8.7648476  15.3389544  37.5019478   8.9338461
  15.2038545  36.1877965   9.3008345  14.9873481  36.8050679   8.8680852
  16.9555351  38.3980528  20.9440548  17.0652316  37.6089089  21.2997295
  17.2846247  38.3086465  20.1414886  17.0207757  38.2686381  20.8782939
  11.7847861  21.5606686  15.7206571  11.9175767  20.7637679  16.0487546
  12.1693014  22.0873089  16.3004846  11.8604190  21.5206602  15.8550073
  15.5052313  36.5797149  15.5276168  14.9573259  35.9555033  15.2596234
  15.9665341  36.7691421  14.8120248  15.4919522  36.5156199  15.3826599
  14.8580216  18.4837012  12.3187664  14.0526180  18.3734741  12.6355502
  14.7286952  18.5849467  11.4617530  14.7200349  18.4820682  12.2395704
  18.3146177  24.6482504  12.9127361  17.7309166  25.1491710  12.5004928
  18.6350471  24.1412060  12.2791684  18.2759352  24.6474339  12.7585868
  10.8540976  23.5623099   3.1886035  11.6756670  23.7321411   2.9467730
  10.3910627  23.7170359   2.4652333  10.9072138  23.6104831   3.0457680
   9.4436308  21.5565861  13.9684464   9.9880721  21.2156988  14.5588806
   9.4973244  22.4151322  14.1105749   9.5325427  21.6321120  14.0766338
   5.2566867  35.3182277  10.8423272   5.8611724  35.2778111  10.2137093
   5.0494179  36.1653429  10.8727328   5.3155764  35.4370279  10.7539389
  15.0710639  37.5848222  12.0585510  15.8909013  37.4411188  12.3201805
  14.7904717  38.2094421  12.6001947  15.1507382  37.6558574  12.1773449
  24.7423974  44.3288725   9.7781316  23.8861870  44.4897223   9.8290433
  24.7891628  43.4580789   9.7986377  24.6223086  44.2239527   9.7887382
  27.5875795  46.3880769  12.4212968  28.1331755  47.0665855  12.4806938
  27.5292671  46.2468229  11.5614550  27.6591710  46.4672770  12.3025029
  16.2005002  42.0675852  10.3317962  15.5810033  41.4768499  10.1627977
  16.0988865  42.6587287   9.6982285  16.0942677  42.0679934  10.2122951
  21.4699761  39.1767790   8.7471700  21.1403091  39.6278934   8.0775398
  20.7944763  39.0983954   9.2944706  21.3210197  39.2318925   8.7294923
  28.6776169  35.1653313   6.9921310  28.3629610  35.8556792   7.4241733
  28.1603110  35.1098095   6.2906811  28.5540639  35.2588202   6.9518259
  19.6755715  37.2380079   4.2294647  20.4301683  37.6058396   3.9911697
  19.4983250  37.6119633   4.9973827  19.7610193  37.3478267   4.3079536
  32.9690614  43.3874519  12.2742187  32.1319035  43.4576706  12.5089781
  32.9378845  43.3899014  11.4016489  32.8408896  43.3984746  12.1801735
  19.3655343  45.5307555  17.9890555  19.5375847  45.4213449  18.8375837
  19.9024700  46.1761960  17.7521747  19.4700347  45.6099557  18.0795652
  23.7112499  36.6476808   3.9621784  24.4398659  36.4692763   3.5159940
  23.8007392  37.4894888   4.1728962  23.8319161  36.7460687   3.9275302
  30.6498454  38.4517301  10.8585909  31.2924362  38.5215405  11.4447824
  30.9021474  37.7846524  10.3565451  30.7820586  38.3643649  10.8713188
  18.4215666  41.6617864  15.4710483  17.7287463  41.1914844  15.7171214
  19.0375993  41.4356169  16.0452190  18.4100196  41.5584996  15.5919635
  25.8849736  39.5454272   8.5696862  25.1806063  39.0563458   8.7280781
  25.9334710  39.5576747   7.6985306  25.7879788  39.4743920   8.4636202
  19.7783398  44.9963584   8.9557664  19.2032989  45.1555752   9.5921625
  19.4019074  44.3598993   8.4926115  19.6386210  44.9261397   8.9812222
  23.4456687  43.4686933  13.8150042  23.0571119  43.0441151  13.1602234
  22.7811385  43.7169083  14.3227069  23.2903615  43.4425655  13.7937910
  27.2683048  37.1661562  11.3274027  27.6493560  36.4839733  11.7141901
  26.4646333  36.8771164  11.1449691  27.2059510  37.0228611  11.3578083
  21.2274889  39.6715760  21.1936635  20.9128330  40.4415323  20.9306198
  20.9064821  39.1086016  20.6088862  21.1333808  39.7026029  21.0677985
  18.7806786  38.0606282   6.8082831  17.9129211  38.1328881   6.8740441
  19.0681990  38.8628361   6.9970806  18.6946534  38.1900429   6.8457598
  27.9039674  38.2084141  15.1394153  28.6493266  38.0193952  14.7257579
  27.4876979  38.7342379  14.5808010  27.9524649  38.2586287  14.9958726
  20.8591394  42.2713011  19.9321850  20.0491170  42.5770791  19.8211692
  21.3366081  42.9918594  20.0474434  20.8094873  42.4227613  19.9328921
  16.7074138  41.5364541   4.2499708  16.4198933  41.1665812   3.5131655
  17.3944606  42.0059397   3.9883413  16.7663035  41.5511511   4.1014783
  27.5021317  41.7381288  11.0763797  26.6632418  41.7642567  10.8402061
  27.5725684  42.3852024  11.6569144  27.3889710  41.8377414  11.1272914
  25.9490595  38.6366665   5.8091413  26.6516948  38.4374414   5.3311371
  25.6834784  37.8642608   6.1160257  26.0137227  38.4929631   5.7836855
  14.2802332  42.3145754   5.0984989  14.3818469  43.1171915   5.4265964
  15.0758219  42.1133090   4.8008069  14.4130238  42.4031652   5.1020344
  20.7119151  39.9001950  14.8622294  20.5202348  39.9157085  15.7121717
  21.5617747  40.0965625  14.8388949  20.8094873  39.9316302  14.9845589
  15.0966064  42.4292932  12.8406110  14.9551556  41.5776873  12.9650618
  15.3806628  42.4721593  12.0168316  15.1173910  42.3092682  12.7373734
  27.4830791  47.2739757  17.0259761  27.4778829  46.4019573  17.0302188
  28.1891785  47.4727926  16.5529217  27.5875795  47.1743631  16.9566797
  23.3821601  46.2006909  14.1798713  22.6344915  46.3937923  13.7746991
  23.5363127  45.3752129  13.9422835  23.2944029  46.1072020  14.0844119
  23.6223378  40.0957460  15.0694117  24.0795993  40.8281434  15.1966909
  23.6979707  39.6723925  15.8281373  23.7014348  40.1414698  15.1995193
  15.8656370  40.3423279  16.1583561  15.3298559  39.7303638  16.4744328
  15.9274134  40.9171415  16.8117227  15.7952002  40.3370207  16.3018987
  28.0950704  33.2747335   8.9387960  28.2134272  33.7323798   8.2055263
  27.9212880  32.4692596   8.6524177  28.0869875  33.2241107   8.7888894
  21.5005756  42.0859564  11.9135941  20.7101831  41.9051024  12.2353277
  21.8966379  41.3086516  11.8966235  21.4422633  41.9447025  11.9588489
  24.0143587  44.5619823  16.3959440  23.9502728  45.4229779  16.2679577
  24.1540774  44.2451816  15.5954991  24.0259057  44.6419989  16.2587653
  25.6713540  42.0198202  14.8919279  25.8855509  41.3809116  14.3382633
  25.0547439  42.4644026  14.4627141  25.6118869  41.9908345  14.7469710
  27.8352628  43.6287267  15.8302586  27.0229309  43.3213157  15.9115759
  28.2942562  43.1486267  16.3945298  27.7833012  43.5123759  15.9257180
  25.0628268  35.1298137   9.8806622  24.1921826  35.1036858   9.8339931
  25.3168609  34.9575330   9.0632467  24.9721828  35.1008281   9.7526759
  24.9306135  45.0347338  20.6131288  25.4005766  45.6589455  20.9999163
  24.9768015  44.3664314  21.1724503  25.0074011  45.0282019  20.7531360
  22.0877409  37.1404366  11.3380092  21.5715897  36.4484557  11.4631671
  21.5271338  37.8075143  11.2842691  21.9283922  37.1367623  11.3486158
  24.1569642  37.6797326  13.1672945  23.7701395  37.7046357  13.9486475
  23.6702579  37.1139004  12.7147461  24.0282151  37.5993077  13.2160848
  30.1319622  44.2459981  11.7912647  29.7047230  44.1586329  11.0360746
  29.4945675  44.3537756  12.3767491  29.9749229  44.2492641  11.7658088
  23.8226784  34.5664311  15.4583205  24.4519902  35.1024611  15.1804275
  23.9912647  34.4741670  16.3096770  23.9404578  34.6325674  15.5431733
  23.6240699  39.3535506  17.7309616  24.4514128  39.0820655  17.7868231
  23.6448545  40.1496348  18.0873434  23.7493549  39.4315260  17.7924799
  15.6785755  44.1218906   8.7464628  15.2842453  44.1961918   7.9714737
  15.1225872  44.5076852   9.2972989  15.5388568  44.1900680   8.7132287
  27.3150702  37.1000200   8.4268506  27.5200296  37.0322508   9.2725504
  26.9877126  37.9059021   8.3589684  27.2965950  37.2086140   8.5428162
  22.0126853  44.4280768  10.1677474  21.7089991  43.8736756  10.7687882
  21.3106274  44.6072978   9.6805509  21.8643063  44.3725550  10.1847180
  30.5684390  37.6531964   7.9071272  29.9558704  38.1402366   8.2925004
  30.6648565  36.9775455   8.4508923  30.4922288  37.6250273   8.0450130
  18.4879619  40.0545129  13.0039527  18.9481101  40.1284058  13.7414651
  18.5335726  40.8526383  12.6539349  18.5630175  40.1839276  13.0612284
  20.1362969  40.7211824  17.5711555  19.7448534  40.0745171  18.0067332
  20.3048832  41.3123259  18.1905810  20.1033879  40.7126092  17.7274261
  23.8296066  37.9087598   9.1445640  22.9832112  38.0810406   9.0186990
  23.8267199  37.1036942   9.4811468  23.7043216  37.8148627   9.1756767
  24.8994367  41.6862813  10.0107698  24.4254321  41.1604575  10.5213009
  25.2712503  41.1392286   9.4422559  24.8844256  41.5278809  10.0022845
  15.2767397  43.6834320  15.3791244  16.1393010  43.5830029  15.2928573
  14.9459180  43.1029029  14.8176816  15.3552593  43.5825946  15.2836650
  29.7682315  47.9116595  15.3048783  30.4916513  47.4589121  15.1259803
  29.5032277  48.1921261  14.5221110  29.8363588  47.8867564  15.1627498
  18.6369183  42.5076769  12.0401662  18.0122253  42.5195161  11.4327615
  18.3014778  42.9836944  12.6892902  18.4954675  42.5795286  12.0458230
  25.5501104  48.0100473  13.4543798  24.9358097  47.4658524  13.7492433
  26.0668389  47.4964710  12.9749614  25.5356767  47.8536882  13.4268026
  17.9059928  44.1169916  14.2576530  18.0653415  43.3613240  14.6628252
  17.7252822  44.6660856  14.9117268  17.9025287  44.0863730  14.4139236
  25.8480231  36.2831152  14.8127320  25.3520793  36.4794826  14.1218887
  26.6049293  36.6823820  14.6416121  25.8867056  36.3708886  14.6847457
  23.1183111  39.9573498  11.4030630  23.1425598  39.4233610  10.7143410
  23.3694585  39.4490807  12.0656221  23.1593030  39.8034402  11.3995275
  19.3984433  38.6844316  10.7836375  19.4382805  39.1853523  11.4971082
  18.5734098  38.7754710  10.5142298  19.2823959  38.7726132  10.8486913
  20.8198797  45.2004826  13.0810274  19.9890726  45.3678644  12.8745522
  20.7650314  44.8240777  13.8659159  20.6888211  45.1694557  13.1658802
  18.6282580  38.6913719  18.7166684  19.2535283  38.1475852  18.9896117
  18.1733060  38.2108636  18.1474475  18.6530840  38.5403200  18.6728278
  32.2017629  46.8743006  13.8079332  32.7935469  47.5140257  13.8397530
  32.6376623  46.1766043  14.0971399  32.3536060  46.8661356  13.8560165
  26.1973201  39.6613698  13.2761889  26.6228272  39.2086224  12.6645416
  25.5830194  39.1073769  13.5526677  26.1701846  39.5127674  13.2266915
  24.6367423  36.1328798   6.6852466  23.9935741  35.9826444   7.2537605
  24.2966830  35.8871143   5.9201571  24.4912501  36.0740920   6.6555481
  29.3894897  40.5444108   9.0172848  29.7422507  40.1173831   9.6918647
  28.5309699  40.4594952   9.1473924  29.3144342  40.4688849   9.1367859
  18.0878582  43.1751628   7.0755695  17.3690572  43.5915760   7.3428558
  18.4590945  43.7405867   6.5247333  18.0370514  43.3200909   7.0338502
  27.3878163  43.8079477  12.9657690  27.3676091  43.6262772  13.8192469
  27.4357364  44.6791495  12.9417274  27.3912804  43.9096015  13.0880985
  30.8218957  35.6662520   9.9457161  30.3149822  34.9591659   9.8778338
  31.6186391  35.3355709  10.0758237  30.8646197  35.5135671   9.9556156
  21.0202202  44.0263605  15.4455925  20.5081105  43.4184788  15.8040956
  20.8481698  44.7420198  15.9129900  20.9191839  44.0426904  15.5672148
  15.8667916  42.4701181  18.0958286  15.6970507  43.1302555  17.5506493
  15.4233866  42.6807742  18.8170775  15.7767250  42.5987163  18.1219916
  19.7927736  40.7105678   7.1385020  20.2685102  41.0722758   6.5035201
  19.2916335  41.3662146   7.4185163  19.7893095  40.8599867   7.0861761
  24.8971272  41.9487850  17.8858180  25.4542702  41.7201659  17.2536646
  24.5732337  42.7093515  17.6093392  24.9317682  42.0271687  17.7514677
  22.6154389  45.0355503  18.8510187  23.3665716  45.3507180  19.1649741
  22.8076966  44.8334674  18.0244109  22.7545804  45.0522885  18.7753583
  22.7580445  37.0791994  15.7206571  22.8908350  36.2822987  16.0487546
  23.1425598  37.6058397  16.3004846  22.8336774  37.0391910  15.8550073
  25.8312800  34.0022320  12.3187664  25.0258764  33.8920049  12.6355502
  25.7019535  34.1034775  11.4617530  25.6932933  34.0005990  12.2395704
  29.2878761  40.1667812  12.9127361  28.7041749  40.6677018  12.5004928
  29.6083055  39.6597368  12.2791684  29.2491936  40.1659647  12.7585868
  20.4168892  37.0751169  13.9684464  20.9613305  36.7342295  14.5588806
  20.4705827  37.9336630  14.1105749  20.5058011  37.1506428  14.0766338
  16.7735931  12.0168074   6.3181819  17.4802698  11.5220104   6.4468754
  16.9623866  12.4577155   5.5884477  16.9063837  12.0086424   6.2290865
  13.9128225  15.4395610   4.2095895  14.0011571  15.2521750   5.0574105
  14.3417938  14.7933040   3.8100741  13.9890328  15.3158618   4.2767646
  14.0248285  14.8704629   6.8739678  14.8088701  14.9835477   7.2395420
  13.8244879  14.0445766   7.0698364  14.1114310  14.7651348   6.9574064
  13.2419415  10.5275176   8.4126322  12.4492396  10.8418688   8.5978942
  13.3568342  10.7426644   7.5747107  13.1414825  10.6059013   8.3164657
  17.1159618  12.7557368   8.8863938  17.9294483  12.4842517   9.0469070
  16.9554584  12.4564908   8.0824133  17.2129566  12.6712294   8.7909343
  17.1280862  13.8163658   4.1586778  17.7660582  13.3223854   3.8249234
  16.4854953  13.7441059   3.5739005  17.1275088  13.7322667   4.0229133
  16.6506175  15.3358660   7.8780595  16.7603140  14.5467220   8.2337342
  16.9797071  15.2464596   7.0754933  16.7158581  15.2064513   7.8122985
  24.4374798  21.2666856  -3.2878637  23.5812694  21.4275354  -3.2369520
  24.4842452  20.3958920  -3.2673576  24.3173910  21.1617658  -3.2772571
  27.7468515  27.5353381   6.3181819  28.4535282  27.0405412   6.4468754
  27.9356450  27.9762463   5.5884477  27.8796420  27.5271732   6.2290865
  27.2826619  23.3258900  -0.6446985  27.8282579  24.0043986  -0.5853016
  27.2243495  23.1846361  -1.5045404  27.3542533  23.4050901  -0.7634925
  15.6224959  22.5506265  -0.4898422  15.4983656  23.1368710   0.1451396
  16.2743243  22.0566460  -0.1886147  15.6998608  22.5645069  -0.3512493
  20.6483300  25.7267982  -1.2110911  21.2932302  25.2340425  -1.5299963
  20.8885077  25.8692768  -0.3844833  20.7793885  25.6745424  -1.1361378
  24.8860809  30.9580918   4.2095895  24.9744155  30.7707058   5.0574105
  25.3150522  30.3118348   3.8100741  24.9622911  30.8343926   4.2767646
  22.4531269  30.2412078   3.1913557  21.8902104  29.8284688   3.7153218
  23.2152292  30.1664984   3.6106700  22.4825717  30.1689478   3.3306557
  32.6641438  20.3252650  -0.7917767  31.8269859  20.3954837  -0.5570172
  32.6329669  20.3277145  -1.6643464  32.5359720  20.3362877  -0.8858219
  19.0606167  22.4685686   4.9230602  19.2326670  22.3591581   5.7715883
  19.5975524  23.1140091   4.6861794  19.1651171  22.5477688   5.0135699
  17.9630739  28.8417326  -0.3950900  18.5028964  28.6988457   0.2752473
  17.2800685  29.2414077  -0.0266873  17.9422893  28.8796997  -0.2416478
  24.9980868  30.3889937   6.8739678  25.7821285  30.5020785   7.2395420
  24.7977463  29.5631074   7.0698364  25.0846894  30.2836656   6.9574064
  13.3667884  25.0617617  -0.2416478  13.1006299  24.2456734  -0.0825488
  13.3806448  25.1070773  -1.1120962  13.3292606  24.9474522  -0.3462996
  30.3449278  15.3895432  -2.2074044  30.9875186  15.4593537  -1.6212129
  30.5972298  14.7224655  -2.7094502  30.4771410  15.3021781  -2.1946765
  18.1166490  18.5995995   2.4050530  17.4238287  18.1292975   2.6511261
  18.7326817  18.3734300   2.9792237  18.1051020  18.4963127   2.5259682
  16.8407049  22.5661399   3.5477375  17.5647021  22.5514430   4.0342270
  16.9423186  23.2756755   3.0499343  16.9625258  22.6686103   3.5456162
  24.2151998  26.0460484   8.4126322  23.4224979  26.3603996   8.5978942
  24.3300926  26.2611952   7.5747107  24.1147409  26.1244321   8.3164657
  25.1435791  25.9480688   3.3511619  25.7174653  25.3107932   3.5060183
  25.0650595  25.9484770   2.4821276  25.2169026  25.8545799   3.2458030
  23.1407511  20.4065065   0.7490089  22.7521943  19.9819282   0.0942280
  22.4762209  20.6547214   1.2567116  22.9854438  20.3803786   0.7277957
  30.4655939  27.3189665   3.3596472  30.2294576  26.4877730   3.2408532
  31.1099168  27.2675273   3.9451316  30.5250610  27.1887353   3.4282365
  14.8067000  30.3473523  -2.0426488  14.8471145  30.6188374  -2.8706708
  15.3661524  30.8715431  -1.6268700  14.8950345  30.4649278  -2.1034600
  20.9225713  16.6093892   8.1276682  20.6079154  17.3793454   7.8646245
  20.6015645  16.0464148   7.5428909  20.8284632  16.6404160   8.0018032
  27.5990498  15.1462272   2.0734200  28.3444090  14.9572083   1.6597625
  27.1827803  15.6720510   1.5148056  27.6475473  15.1964418   1.9298773
  21.6275160  26.3510098   1.5699598  21.1286854  27.0625866   1.6484487
  22.4375384  26.6710765   1.5317761  21.6731267  26.5036947   1.5756167
  20.5542218  19.2091143   6.8661897  19.7441994  19.5148922   6.7551739
  21.0316905  19.9296725   6.9814481  20.5045697  19.3605744   6.8668968
  19.4133778  28.4236864  -2.8855200  18.8914531  28.5637155  -2.2003336
  19.8007798  27.6647528  -2.6953083  19.3937479  28.3322387  -2.7554124
  27.1972141  18.6759419  -1.9896156  26.3583241  18.7020698  -2.2257893
  27.2676508  19.3230155  -1.4090809  27.0840534  18.7755545  -1.9387039
  16.8886250  24.7453693   1.7361299  17.4007347  25.0237946   1.0870059
  16.6022593  25.4842987   2.1024112  16.9221113  24.8956047   1.6951177
  20.4069975  16.8380082   1.7962341  20.2153172  16.8535216   2.6461764
  21.2568571  17.0343756   1.7728995  20.5045697  16.8694433   1.9185635
  27.1781615  24.2117888   3.9599808  27.1729653  23.3397704   3.9642235
  27.8842609  24.4106057   3.4869264  27.2826619  24.1121762   3.8906844
  20.9052508  23.9394872   3.3313628  21.0495884  24.5196080   2.6956738
  21.2528157  24.3171169   4.0363483  20.9779969  24.0815576   3.3412623
  23.0772425  23.1385040   1.1138760  22.3295739  23.3316055   0.7087038
  23.2313951  22.3130260   0.8762881  22.9894853  23.0450152   1.0184166
  19.9780263  32.1297644   0.1974655  20.1269827  31.5700560  -0.4551940
  20.7580265  32.2089645   0.5807174  20.1154357  32.0583209   0.1571604
  22.5033564  32.3012287   1.4759146  22.4277235  31.6321097   2.0309934
  22.4323423  33.0030075   1.9899812  22.4814171  32.3057194   1.6335994
  23.3174202  17.0335591   2.0034164  23.7746816  17.7659565   2.1306956
  23.3930531  16.6102056   2.7621420  23.3965172  17.0792829   2.1335240
  15.5607194  17.2801411   3.0923607  15.0249383  16.6681769   3.4084375
  15.6224958  17.8549547   3.7457274  15.4902826  17.2748338   3.2359034
  21.1956580  19.0237695  -1.1524012  20.4052655  18.8429155  -0.8306676
  21.5917203  18.2464647  -1.1693718  21.1373457  18.8825156  -1.1071464
  23.7094411  21.4997954   3.3299487  23.6453552  22.3607910   3.2019623
  23.8491598  21.1829947   2.5295038  23.7209881  21.5798121   3.1927700
  22.3913504  24.1930093  -2.5284310  21.9675754  24.3934592  -3.2645292
  22.2158360  23.3458941  -2.4160011  22.3024385  24.0978875  -2.6210620
  28.0892201  28.2742676   8.8863938  28.9027067  28.0027825   9.0469070
  27.9287168  27.9750216   8.0824133  28.1862150  28.1897602   8.7909343
  25.3664363  18.9576333   1.8259326  25.5806333  18.3187247   1.2722680
  24.7498263  19.4022157   1.3967188  25.3069693  18.9286477   1.6809757
  27.5303451  20.5665398   2.7642633  26.7180133  20.2591288   2.8455806
  27.9893386  20.0864398   3.3285345  27.4783836  20.4501890   2.8597227
  24.6256959  21.9725469   7.5471335  25.0956590  22.5967586   7.9339209
  24.6718839  21.3042445   8.1064550  24.7024835  21.9660150   7.6871407
  28.1013445  29.3348966   4.1586778  28.7393166  28.8409162   3.8249234
  27.4587537  29.2626366   3.5739005  28.1007672  29.2507974   4.0229133
  29.8270446  21.1838112  -1.2747306  29.3998054  21.0964461  -2.0299207
  29.1896499  21.2915887  -0.6892462  29.6700053  21.1870772  -1.3001865
  23.5177608  11.5042442   2.3923251  24.1470726  12.0402743   2.1144322
  23.6863470  11.4119801   3.2436817  23.6355402  11.5703805   2.4771780
  23.3191523  16.2913637   4.6649663  24.1464952  16.0198786   4.7208278
  23.3399369  17.0874479   5.0213481  23.4444373  16.3693391   4.7264846
  17.8961012  23.4377500  -2.1480076  17.0549019  23.3381374  -1.9401182
  18.1051020  24.2072980  -1.7965756  17.8025705  23.5369543  -2.0652761
  19.7696028  28.5808620   1.8089619  19.6616383  28.5910682   2.6751677
  19.9791810  29.4063400   1.6194573  19.7846139  28.7049695   1.9093711
  17.7869820  25.8321262  -0.7288443  17.1957754  26.4730760  -0.7585428
  18.5490844  26.2558880  -0.7557144  17.8118081  25.9897101  -0.7373296
  19.8313793  17.6589955   4.5051601  19.4399358  17.0123302   4.9407379
  19.9999656  18.2501390   5.1245857  19.7984703  17.6504223   4.6614307
  14.9718221  20.6212451   2.3131290  15.8343834  20.5208160   2.2268620
  14.6410004  20.0407160   1.7516863  15.0503417  20.5204077   2.2176696
  29.4633139  24.8494726   2.2388829  30.1867337  24.3967253   2.0599849
  29.1983101  25.1299392   1.4561157  29.5314412  24.8245695   2.0967545
  15.0445682  27.5055360   0.4145473  14.5145607  26.8147799   0.4640448
  15.3170776  27.4965545  -0.4141819  15.0070405  27.4022492   0.2992889
  25.2451928  24.9478604   0.3883845  24.6308921  24.4036655   0.6832480
  25.7619213  24.4342841  -0.0910339  25.2307590  24.7915013   0.3608073
  24.4848225  26.0182874  -1.8771857  24.0575833  25.3932593  -2.3106421
  24.4773170  25.7357796  -1.0512850  24.4207366  25.8835655  -1.8192029
  17.6010752  21.0548047   1.1916577  17.7604239  20.2991372   1.5968299
  17.4203646  21.6038987   1.8457315  17.5976111  21.0241861   1.3479283
  25.5431055  13.2209283   1.7467367  25.0471617  13.4172957   1.0558933
  26.3000117  13.6201951   1.5756168  25.5817880  13.3087017   1.6187503
  21.2764870  25.1883187   5.8196716  20.4260501  25.3254901   5.9554361
  21.4392998  24.4546965   6.2644418  21.1748734  25.0997288   5.9052315
  20.5149620  22.1382957   0.0150320  19.6841550  22.3056775  -0.1914431
  20.4601138  21.7618908   0.7999206  20.3839035  22.1072688   0.0998849
  18.3233404  15.6291850   5.6506731  18.9486107  15.0853983   5.9236163
  17.8683884  15.1486768   5.0814522  18.3481664  15.4781331   5.6068325
  31.8968452  23.8121137   0.7419379  32.4886293  24.4518388   0.7737577
  32.3327447  23.1144174   1.0311446  32.0486884  23.8039487   0.7900212
  23.7261842  28.2338509   1.3677273  23.2186933  28.7874356   1.8117904
  23.4288489  28.2946799   0.5496048  23.6066727  28.3244821   1.3125730
  25.8924025  16.5991829   0.2101936  26.3179096  16.1464355  -0.4014538
  25.2781018  16.0451900   0.4866724  25.8652670  16.4505805   0.1606961
  27.0828987  20.7457608  -0.1002263  27.0626914  20.5640903   0.7532516
  27.1308188  21.6169626  -0.1242679  27.0863628  20.8474146   0.0221032
  25.0275317  27.3344800   5.8246214  24.9871172  26.6894477   5.2391370
  25.8398635  27.2781417   6.1371626  25.1418471  27.2303767   5.7843163
  20.7153026  20.9641736   2.3795971  20.2031929  20.3562919   2.7381003
  20.5432522  21.6798329   2.8469947  20.6142663  20.9805036   2.5012195
  15.5618740  19.4079312   5.0298333  15.3921331  20.0680687   4.4846540
  15.1184690  19.6185873   5.7510822  15.4718074  19.5365294   5.0559963
  24.5922096  18.8865981   4.8198227  25.1493526  18.6579791   4.1876692
  24.2683161  19.6471647   4.5433439  24.6268506  18.9649818   4.6854724
  22.3105213  21.9733634   5.7850234  23.0616540  22.2885311   6.0989788
  22.5027790  21.7712805   4.9584156  22.4496627  21.9901016   5.7093630
  26.8831356  22.7804702  -3.3189764  27.3785021  22.0627697  -3.3585743
  26.0731131  22.4775500  -3.4335277  26.8375249  22.6302349  -3.3416038
  27.6238758  30.8543968   7.8780595  27.7335724  30.0652528   8.2337342
  27.9529655  30.7649904   7.0754933  27.6891164  30.7249820   7.8122985
  22.4531269  14.0170125   2.6546617  22.5859174  13.2201118   2.9827593
  22.8376422  14.5436528   3.2344893  22.5287598  13.9770041   2.7890120
  26.1735720  29.0360588   2.4616215  25.6256666  28.4118472   2.1936280
  26.6348749  29.2254860   1.7460295  26.1602930  28.9719639   2.3166646
  28.9829584  17.1045943  -0.1532593  28.3992573  17.6055149  -0.5655025
  29.3033879  16.5975499  -0.7868269  28.9442760  17.1037778  -0.3074085
  15.9250274  27.7745716  -2.2236681  16.5295132  27.7341550  -2.8522860
  15.7177587  28.6216868  -2.1932625  15.9839172  27.8933718  -2.3120564
  31.8958296  32.1279200   8.1276682  31.5811737  32.8978762   7.8646245
  31.5748229  31.5649456   7.5428909  31.8017215  32.1589468   8.0018032
  31.5274802  34.7276451   6.8661897  30.7174577  35.0334230   6.7551739
  32.0049488  35.4482033   6.9814481  31.4778280  34.8791052   6.8668968
  26.5339777  32.7986719   3.0923607  25.9981967  32.1867077   3.4084375
  26.5957542  33.3734855   3.7457274  26.4635410  32.7933646   3.2359034
  30.8046376  33.1775263   4.5051601  30.4131942  32.5308610   4.9407379
  30.9732239  33.7686698   5.1245857  30.7717287  33.1689531   4.6614307
  29.2965987  31.1477158   5.6506731  29.9218691  30.6039291   5.9236163
  28.8416467  30.6672075   5.0814522  29.3214248  30.9966639   5.6068325
  26.5351324  34.9264620   5.0298333  26.3653914  35.5865994   4.4846540
  26.0917274  35.1371181   5.7510822  26.4450658  35.0550602   5.0559963
  46.6495463  46.6495463  46.6495463 109.4712190 109.4712190 109.4712190
