%VERSION  VERSION_STAMP = V0001.000  DATE = 07/13/26  12:29:42                  
%FLAG TITLE                                                                     
%FORMAT(20a4)                                                                   
ACE                                                                             
%FLAG POINTERS                                                                  
%FORMAT(10I8)                                                                   
    8962      12    6702    2261      71      50     153     131       0       0
   15919    2229    2261      50     131      20      32      26      15       0
       0       0       0       0       0       0       0       2      21       0
    2223
%FLAG ATOM_NAME                                                                 
%FORMAT(20a4)                                                                   
H1  CH3 H2  H3  C   O   N   H   CA  HA  CB  HB2 HB3 CG  CD1 HD1 CE1 HE1 CZ  OH  
HH  CE2 HE2 CD2 HD2 C   O   N   H   CA  HA  CB  HB1 HB2 HB3 C   O   N   H   CA  
HA2 HA3 C   O   N   H   CA  HA  CB  HB2 HB3 CG  CD1 HD1 CE1 HE1 CZ  HZ  CE2 HE2 
CD2 HD2 C   O   N   H   C   H1  H2  H3  O   H1  H2  EPW O   H1  H2  EPW O   H1  
H2  EPW O   H1  H2  EPW O   H1  H2  EPW O   H1  H2  EPW O   H1  H2  EPW O   H1  
H2  EPW O   H1  H2  EPW O   H1  H2  EPW O   H1  H2  EPW O   H1  H2  EPW O   H1  
H2  EPW O   H1  H2  EPW O   H1  H2  EPW O   H1  H2  EPW O   H1  H2  EPW O   H1  
H2  EPW O   H1  H2  EPW O   H1  H2  EPW O   H1  H2  EPW O   H1  H2  EPW O   H1  
H2  EPW O   H1  H2  EPW O   H1  H2  EPW O   H1  H2  EPW O   H1  H2  EPW O   H1  
H2  EPW O   H1  H2  EPW O   H1  H2  EPW O   H1  H2  EPW O   H1  H2  EPW O   H1  
H2  EPW O   H1  H2  EPW O   H1  H2  EPW O   H1  H2  EPW O   H1  H2  EPW O   H1  
H2  EPW O   H1  H2  EPW O   H1  H2  EPW O   H1  H2  EPW O   H1  H2  EPW O   H1  
H2  EPW O   H1  H2  EPW O   H1  H2  EPW O   H1  H2  EPW O   H1  H2  EPW O   H1  
H2  EPW O   H1  H2  EPW O   H1  H2  EPW O   H1  H2  EPW O   H1  H2  EPW O   H1  
H2  EPW O   H1  H2  EPW O   H1  H2  EPW O   H1  H2  EPW O   H1  H2  EPW O   H1  
H2  EPW O   H1  H2  EPW O   H1  H2  EPW O   H1  H2  EPW O   H1  H2  EPW O   H1  
H2  EPW O   H1  H2  EPW O   H1  H2  EPW O   H1  H2  EPW O   H1  H2  EPW O   H1  
H2  EPW O   H1  H2  EPW O   H1  H2  EPW O   H1  H2  EPW O   H1  H2  EPW O   H1  
H2  EPW O   H1  H2  EPW O   H1  H2  EPW O   H1  H2  EPW O   H1  H2  EPW O   H1  
H2  EPW O   H1  H2  EPW O   H1  H2  EPW O   H1  H2  EPW O   H1  H2  EPW O   H1  
H2  EPW O   H1  H2  EPW O   H1  H2  EPW O   H1  H2  EPW O   H1  H2  EPW O   H1  
H2  EPW O   H1  H2  EPW O   H1  H2  EPW O   H1  H2  EPW O   H1  H2  EPW O   H1  
H2  EPW O   H1  H2  EPW O   H1  H2  EPW O   H1  H2  EPW O   H1  H2  EPW O   H1  
H2  EPW O   H1  H2  EPW O   H1  H2  EPW O   H1  H2  EPW O   H1  H2  EPW O   H1  
H2  EPW O   H1  H2  EPW O   H1  H2  EPW O   H1  H2  EPW O   H1  H2  EPW O   H1  
H2  EPW O   H1  H2  EPW O   H1  H2  EPW O   H1  H2  EPW O   H1  H2  EPW O   H1  
H2  EPW O   H1  H2  EPW O   H1  H2  EPW O   H1  H2  EPW O   H1  H2  EPW O   H1  
H2  EPW O   H1  H2  EPW O   H1  H2  EPW O   H1  H2  EPW O   H1  H2  EPW O   H1  
H2  EPW O   H1  H2  EPW O   H1  H2  EPW O   H1  H2  EPW O   H1  H2  EPW O   H1  
H2  EPW O   H1  H2  EPW O   H1  H2  EPW O   H1  H2  EPW O   H1  H2  EPW O   H1  
H2  EPW O   H1  H2  EPW O   H1  H2  EPW O   H1  H2  EPW O   H1  H2  EPW O   H1  
H2  EPW O   H1  H2  EPW O   H1  H2  EPW O   H1  H2  EPW O   H1  H2  EPW O   H1  
H2  EPW O   H1  H2  EPW O   H1  H2  EPW O   H1  H2  EPW O   H1  H2  EPW O   H1  
H2  EPW O   H1  H2  EPW O   H1  H2  EPW O   H1  H2  EPW O   H1  H2  EPW O   H1  
H2  EPW O   H1  H2  EPW O   H1  H2  EPW O   H1  H2  EPW O   H1  H2  EPW O   H1  
H2  EPW O   H1  H2  EPW O   H1  H2  EPW O   H1  H2  EPW O   H1  H2  EPW O   H1  
H2  EPW O   H1  H2  EPW O   H1  H2  EPW O   H1  H2  EPW O   H1  H2  EPW O   H1  
H2  EPW O   H1  H2  EPW O   H1  H2  EPW O   H1  H2  EPW O   H1  H2  EPW O   H1  
H2  EPW O   H1  H2  EPW O   H1  H2  EPW O   H1  H2  EPW O   H1  H2  EPW O   H1  
H2  EPW O   H1  H2  EPW O   H1  H2  EPW O   H1  H2  EPW O   H1  H2  EPW O   H1  
H2  EPW O   H1  H2  EPW O   H1  H2  EPW O   H1  H2  EPW O   H1  H2  EPW O   H1  
H2  EPW O   H1  H2  EPW O   H1  H2  EPW O   H1  H2  EPW O   H1  H2  EPW O   H1  
H2  EPW O   H1  H2  EPW O   H1  H2  EPW O   H1  H2  EPW O   H1  H2  EPW O   H1  
H2  EPW O   H1  H2  EPW O   H1  H2  EPW O   H1  H2  EPW O   H1  H2  EPW O   H1  
H2  EPW O   H1  H2  EPW O   H1  H2  EPW O   H1  H2  EPW O   H1  H2  EPW O   H1  
H2  EPW O   H1  H2  EPW O   H1  H2  EPW O   H1  H2  EPW O   H1  H2  EPW O   H1  
H2  EPW O   H1  H2  EPW O   H1  H2  EPW O   H1  H2  EPW O   H1  H2  EPW O   H1  
H2  EPW O   H1  H2  EPW O   H1  H2  EPW O   H1  H2  EPW O   H1  H2  EPW O   H1  
H2  EPW O   H1  H2  EPW O   H1  H2  EPW O   H1  H2  EPW O   H1  H2  EPW O   H1  
H2  EPW O   H1  H2  EPW O   H1  H2  EPW O   H1  H2  EPW O   H1  H2  EPW O   H1  
H2  EPW O   H1  H2  EPW O   H1  H2  EPW O   H1  H2  EPW O   H1  H2  EPW O   H1  
H2  EPW O   H1  H2  EPW O   H1  H2  EPW O   H1  H2  EPW O   H1  H2  EPW O   H1  
H2  EPW O   H1  H2  EPW O   H1  H2  EPW O   H1  H2  EPW O   H1  H2  EPW O   H1  
H2  EPW O   H1  H2  EPW O   H1  H2  EPW O   H1  H2  EPW O   H1  H2  EPW O   H1  
H2  EPW O   H1  H2  EPW O   H1  H2  EPW O   H1  H2  EPW O   H1  H2  EPW O   H1  
H2  EPW O   H1  H2  EPW O   H1  H2  EPW O   H1  H2  EPW O   H1  H2  EPW O   H1  
H2  EPW O   H1  H2  EPW O   H1  H2  EPW O   H1  H2  EPW O   H1  H2  EPW O   H1  
H2  EPW O   H1  H2  EPW O   H1  H2  EPW O   H1  H2  EPW O   H1  H2  EPW O   H1  
H2  EPW O   H1  H2  EPW O   H1  H2  EPW O   H1  H2  EPW O   H1  H2  EPW O   H1  
H2  EPW O   H1  H2  EPW O   H1  H2  EPW O   H1  H2  EPW O   H1  H2  EPW O   H1  
H2  EPW O   H1  H2  EPW O   H1  H2  EPW O   H1  H2  EPW O   H1  H2  EPW O   H1  
H2  EPW O   H1  H2  EPW O   H1  H2  EPW O   H1  H2  EPW O   H1  H2  EPW O   H1  
H2  EPW O   H1  H2  EPW O   H1  H2  EPW O   H1  H2  EPW O   H1  H2  EPW O   H1  
H2  EPW O   H1  H2  EPW O   H1  H2  EPW O   H1  H2  EPW O   H1  H2  EPW O   H1  
H2  EPW O   H1  H2  EPW O   H1  H2  EPW O   H1  H2  EPW O   H1  H2  EPW O   H1  
H2  EPW O   H1  H2  EPW O   H1  H2  EPW O   H1  H2  EPW O   H1  H2  EPW O   H1  
H2  EPW O   H1  H2  EPW O   H1  H2  EPW O   H1  H2  EPW O   H1  H2  EPW O   H1  
H2  EPW O   H1  H2  EPW O   H1  H2  EPW O   H1  H2  EPW O   H1  H2  EPW O   H1  
H2  EPW O   H1  H2  EPW O   H1  H2  EPW O   H1  H2  EPW O   H1  H2  EPW O   H1  
H2  EPW O   H1  H2  EPW O   H1  H2  EPW O   H1  H2  EPW O   H1  H2  EPW O   H1  
H2  EPW O   H1  H2  EPW O   H1  H2  EPW O   H1  H2  EPW O   H1  H2  EPW O   H1  
H2  EPW O   H1  H2  EPW O   H1  H2  EPW O   H1  H2  EPW O   H1  H2  EPW O   H1  
H2  EPW O   H1  H2  EPW O   H1  H2  EPW O   H1  H2  EPW O   H1  H2  EPW O   H1  
H2  EPW O   H1  H2  EPW O   H1  H2  EPW O   H1  H2  EPW O   H1  H2  EPW O   H1  
H2  EPW O   H1  H2  EPW O   H1  H2  EPW O   H1  H2  EPW O   H1  H2  EPW O   H1  
H2  EPW O   H1  H2  EPW O   H1  H2  EPW O   H1  H2  EPW O   H1  H2  EPW O   H1  
H2  EPW O   H1  H2  EPW O   H1  H2  EPW O   H1  H2  EPW O   H1  H2  EPW O   H1  
H2  EPW O   H1  H2  EPW O   H1  H2  EPW O   H1  H2  EPW O   H1  H2  EPW O   H1  
H2  EPW O   H1  H2  EPW O   H1  H2  EPW O   H1  H2  EPW O   H1  H2  EPW O   H1  
H2  EPW O   H1  H2  EPW O   H1  H2  EPW O   H1  H2  EPW O   H1  H2  EPW O   H1  
H2  EPW O   H1  H2  EPW O   H1  H2  EPW O   H1  H2  EPW O   H1  H2  EPW O   H1  
H2  EPW O   H1  H2  EPW O   H1  H2  EPW O   H1  H2  EPW O   H1  H2  EPW O   H1  
H2  EPW O   H1  H2  EPW O   H1  H2  EPW O   H1  H2  EPW O   H1  H2  EPW O   H1  
H2  EPW O   H1  H2  EPW O   H1  H2  EPW O   H1  H2  EPW O   H1  H2  EPW O   H1  
H2  EPW O   H1  H2  EPW O   H1  H2  EPW O   H1  H2  EPW O   H1  H2  EPW O   H1  
H2  EPW O   H1  H2  EPW O   H1  H2  EPW O   H1  H2  EPW O   H1  H2  EPW O   H1  
H2  EPW O   H1  H2  EPW O   H1  H2  EPW O   H1  H2  EPW O   H1  H2  EPW O   H1  
H2  EPW O   H1  H2  EPW O   H1  H2  EPW O   H1  H2  EPW O   H1  H2  EPW O   H1  
H2  EPW O   H1  H2  EPW O   H1  H2  EPW O   H1  H2  EPW O   H1  H2  EPW O   H1  
H2  EPW O   H1  H2  EPW O   H1  H2  EPW O   H1  H2  EPW O   H1  H2  EPW O   H1  
H2  EPW O   H1  H2  EPW O   H1  H2  EPW O   H1  H2  EPW O   H1  H2  EPW O   H1  
H2  EPW O   H1  H2  EPW O   H1  H2  EPW O   H1  H2  EPW O   H1  H2  EPW O   H1  
H2  EPW O   H1  H2  EPW O   H1  H2  EPW O   H1  H2  EPW O   H1  H2  EPW O   H1  
H2  EPW O   H1  H2  EPW O   H1  H2  EPW O   H1  H2  EPW O   H1  H2  EPW O   H1  
H2  EPW O   H1  H2  EPW O   H1  H2  EPW O   H1  H2  EPW O   H1  H2  EPW O   H1  
H2  EPW O   H1  H2  EPW O   H1  H2  EPW O   H1  H2  EPW O   H1  H2  EPW O   H1  
H2  EPW O   H1  H2  EPW O   H1  H2  EPW O   H1  H2  EPW O   H1  H2  EPW O   H1  
H2  EPW O   H1  H2  EPW O   H1  H2  EPW O   H1  H2  EPW O   H1  H2  EPW O   H1  
H2  EPW O   H1  H2  EPW O   H1  H2  EPW O   H1  H2  EPW O   H1  H2  EPW O   H1  
H2  EPW O   H1  H2  EPW O   H1  H2  EPW O   H1  H2  EPW O   H1  H2  EPW O   H1  
H2  EPW O   H1  H2  EPW O   H1  H2  EPW O   H1  H2  EPW O   H1  H2  EPW O   H1  
H2  EPW O   H1  H2  EPW O   H1  H2  EPW O   H1  H2  EPW O   H1  H2  EPW O   H1  
H2  EPW O   H1  H2  EPW O   H1  H2  EPW O   H1  H2  EPW O   H1  H2  EPW O   H1  
H2  EPW O   H1  H2  EPW O   H1  H2  EPW O   H1  H2  EPW O   H1  H2  EPW O   H1  
H2  EPW O   H1  H2  EPW O   H1  H2  EPW O   H1  H2  EPW O   H1  H2  EPW O   H1  
H2  EPW O   H1  H2  EPW O   H1  H2  EPW O   H1  H2  EPW O   H1  H2  EPW O   H1  
H2  EPW O   H1  H2  EPW O   H1  H2  EPW O   H1  H2  EPW O   H1  H2  EPW O   H1  
H2  EPW O   H1  H2  EPW O   H1  H2  EPW O   H1  H2  EPW O   H1  H2  EPW O   H1  
H2  EPW O   H1  H2  EPW O   H1  H2  EPW O   H1  H2  EPW O   H1  H2  EPW O   H1  
H2  EPW O   H1  H2  EPW O   H1  H2  EPW O   H1  H2  EPW O   H1  H2  EPW O   H1  
H2  EPW O   H1  H2  EPW O   H1  H2  EPW O   H1  H2  EPW O   H1  H2  EPW O   H1  
H2  EPW O   H1  H2  EPW O   H1  H2  EPW O   H1  H2  EPW O   H1  H2  EPW O   H1  
H2  EPW O   H1  H2  EPW O   H1  H2  EPW O   H1  H2  EPW O   H1  H2  EPW O   H1  
H2  EPW O   H1  H2  EPW O   H1  H2  EPW O   H1  H2  EPW O   H1  H2  EPW O   H1  
H2  EPW O   H1  H2  EPW O   H1  H2  EPW O   H1  H2  EPW O   H1  H2  EPW O   H1  
H2  EPW O   H1  H2  EPW O   H1  H2  EPW O   H1  H2  EPW O   H1  H2  EPW O   H1  
H2  EPW O   H1  H2  EPW O   H1  H2  EPW O   H1  H2  EPW O   H1  H2  EPW O   H1  
H2  EPW O   H1  H2  EPW O   H1  H2  EPW O   H1  H2  EPW O   H1  H2  EPW O   H1  
H2  EPW O   H1  H2  EPW O   H1  H2  EPW O   H1  H2  EPW O   H1  H2  EPW O   H1  
H2  EPW O   H1  H2  EPW O   H1  H2  EPW O   H1  H2  EPW O   H1  H2  EPW O   H1  
H2  EPW O   H1  H2  EPW O   H1  H2  EPW O   H1  H2  EPW O   H1  H2  EPW O   H1  
H2  EPW O   H1  H2  EPW O   H1  H2  EPW O   H1  H2  EPW O   H1  H2  EPW O   H1  
H2  EPW O   H1  H2  EPW O   H1  H2  EPW O   H1  H2  EPW O   H1  H2  EPW O   H1  
H2  EPW O   H1  H2  EPW O   H1  H2  EPW O   H1  H2  EPW O   H1  H2  EPW O   H1  
H2  EPW O   H1  H2  EPW O   H1  H2  EPW O   H1  H2  EPW O   H1  H2  EPW O   H1  
H2  EPW O   H1  H2  EPW O   H1  H2  EPW O   H1  H2  EPW O   H1  H2  EPW O   H1  
H2  EPW O   H1  H2  EPW O   H1  H2  EPW O   H1  H2  EPW O   H1  H2  EPW O   H1  
H2  EPW O   H1  H2  EPW O   H1  H2  EPW O   H1  H2  EPW O   H1  H2  EPW O   H1  
H2  EPW O   H1  H2  EPW O   H1  H2  EPW O   H1  H2  EPW O   H1  H2  EPW O   H1  
H2  EPW O   H1  H2  EPW O   H1  H2  EPW O   H1  H2  EPW O   H1  H2  EPW O   H1  
H2  EPW O   H1  H2  EPW O   H1  H2  EPW O   H1  H2  EPW O   H1  H2  EPW O   H1  
H2  EPW O   H1  H2  EPW O   H1  H2  EPW O   H1  H2  EPW O   H1  H2  EPW O   H1  
H2  EPW O   H1  H2  EPW O   H1  H2  EPW O   H1  H2  EPW O   H1  H2  EPW O   H1  
H2  EPW O   H1  H2  EPW O   H1  H2  EPW O   H1  H2  EPW O   H1  H2  EPW O   H1  
H2  EPW O   H1  H2  EPW O   H1  H2  EPW O   H1  H2  EPW O   H1  H2  EPW O   H1  
H2  EPW O   H1  H2  EPW O   H1  H2  EPW O   H1  H2  EPW O   H1  H2  EPW O   H1  
H2  EPW O   H1  H2  EPW O   H1  H2  EPW O   H1  H2  EPW O   H1  H2  EPW O   H1  
H2  EPW O   H1  H2  EPW O   H1  H2  EPW O   H1  H2  EPW O   H1  H2  EPW O   H1  
H2  EPW O   H1  H2  EPW O   H1  H2  EPW O   H1  H2  EPW O   H1  H2  EPW O   H1  
H2  EPW O   H1  H2  EPW O   H1  H2  EPW O   H1  H2  EPW O   H1  H2  EPW O   H1  
H2  EPW O   H1  H2  EPW O   H1  H2  EPW O   H1  H2  EPW O   H1  H2  EPW O   H1  
H2  EPW O   H1  H2  EPW O   H1  H2  EPW O   H1  H2  EPW O   H1  H2  EPW O   H1  
H2  EPW O   H1  H2  EPW O   H1  H2  EPW O   H1  H2  EPW O   H1  H2  EPW O   H1  
H2  EPW O   H1  H2  EPW O   H1  H2  EPW O   H1  H2  EPW O   H1  H2  EPW O   H1  
H2  EPW O   H1  H2  EPW O   H1  H2  EPW O   H1  H2  EPW O   H1  H2  EPW O   H1  
H2  EPW O   H1  H2  EPW O   H1  H2  EPW O   H1  H2  EPW O   H1  H2  EPW O   H1  
H2  EPW O   H1  H2  EPW O   H1  H2  EPW O   H1  H2  EPW O   H1  H2  EPW O   H1  
H2  EPW O   H1  H2  EPW O   H1  H2  EPW O   H1  H2  EPW O   H1  H2  EPW O   H1  
H2  EPW O   H1  H2  EPW O   H1  H2  EPW O   H1  H2  EPW O   H1  H2  EPW O   H1  
H2  EPW O   H1  H2  EPW O   H1  H2  EPW O   H1  H2  EPW O   H1  H2  EPW O   H1  
H2  EPW O   H1  H2  EPW O   H1  H2  EPW O   H1  H2  EPW O   H1  H2  EPW O   H1  
H2  EPW O   H1  H2  EPW O   H1  H2  EPW O   H1  H2  EPW O   H1  H2  EPW O   H1  
H2  EPW O   H1  H2  EPW O   H1  H2  EPW O   H1  H2  EPW O   H1  H2  EPW O   H1  
H2  EPW O   H1  H2  EPW O   H1  H2  EPW O   H1  H2  EPW O   H1  H2  EPW O   H1  
H2  EPW O   H1  H2  EPW O   H1  H2  EPW O   H1  H2  EPW O   H1  H2  EPW O   H1  
H2  EPW O   H1  H2  EPW O   H1  H2  EPW O   H1  H2  EPW O   H1  H2  EPW O   H1  
H2  EPW O   H1  H2  EPW O   H1  H2  EPW O   H1  H2  EPW O   H1  H2  EPW O   H1  
H2  EPW O   H1  H2  EPW O   H1  H2  EPW O   H1  H2  EPW O   H1  H2  EPW O   H1  
H2  EPW O   H1  H2  EPW O   H1  H2  EPW O   H1  H2  EPW O   H1  H2  EPW O   H1  
H2  EPW O   H1  H2  EPW O   H1  H2  EPW O   H1  H2  EPW O   H1  H2  EPW O   H1  
H2  EPW O   H1  H2  EPW O   H1  H2  EPW O   H1  H2  EPW O   H1  H2  EPW O   H1  
H2  EPW O   H1  H2  EPW O   H1  H2  EPW O   H1  H2  EPW O   H1  H2  EPW O   H1  
H2  EPW O   H1  H2  EPW O   H1  H2  EPW O   H1  H2  EPW O   H1  H2  EPW O   H1  
H2  EPW O   H1  H2  EPW O   H1  H2  EPW O   H1  H2  EPW O   H1  H2  EPW O   H1  
H2  EPW O   H1  H2  EPW O   H1  H2  EPW O   H1  H2  EPW O   H1  H2  EPW O   H1  
H2  EPW O   H1  H2  EPW O   H1  H2  EPW O   H1  H2  EPW O   H1  H2  EPW O   H1  
H2  EPW O   H1  H2  EPW O   H1  H2  EPW O   H1  H2  EPW O   H1  H2  EPW O   H1  
H2  EPW O   H1  H2  EPW O   H1  H2  EPW O   H1  H2  EPW O   H1  H2  EPW O   H1  
H2  EPW O   H1  H2  EPW O   H1  H2  EPW O   H1  H2  EPW O   H1  H2  EPW O   H1  
H2  EPW O   H1  H2  EPW O   H1  H2  EPW O   H1  H2  EPW O   H1  H2  EPW O   H1  
H2  EPW O   H1  H2  EPW O   H1  H2  EPW O   H1  H2  EPW O   H1  H2  EPW O   H1  
H2  EPW O   H1  H2  EPW O   H1  H2  EPW O   H1  H2  EPW O   H1  H2  EPW O   H1  
H2  EPW O   H1  H2  EPW O   H1  H2  EPW O   H1  H2  EPW O   H1  H2  EPW O   H1  
H2  EPW O   H1  H2  EPW O   H1  H2  EPW O   H1  H2  EPW O   H1  H2  EPW O   H1  
H2  EPW O   H1  H2  EPW O   H1  H2  EPW O   H1  H2  EPW O   H1  H2  EPW O   H1  
H2  EPW O   H1  H2  EPW O   H1  H2  EPW O   H1  H2  EPW O   H1  H2  EPW O   H1  
H2  EPW O   H1  H2  EPW O   H1  H2  EPW O   H1  H2  EPW O   H1  H2  EPW O   H1  
H2  EPW O   H1  H2  EPW O   H1  H2  EPW O   H1  H2  EPW O   H1  H2  EPW O   H1  
H2  EPW O   H1  H2  EPW O   H1  H2  EPW O   H1  H2  EPW O   H1  H2  EPW O   H1  
H2  EPW O   H1  H2  EPW O   H1  H2  EPW O   H1  H2  EPW O   H1  H2  EPW O   H1  
H2  EPW O   H1  H2  EPW O   H1  H2  EPW O   H1  H2  EPW O   H1  H2  EPW O   H1  
H2  EPW O   H1  H2  EPW O   H1  H2  EPW O   H1  H2  EPW O   H1  H2  EPW O   H1  
H2  EPW O   H1  H2  EPW O   H1  H2  EPW O   H1  H2  EPW O   H1  H2  EPW O   H1  
H2  EPW O   H1  H2  EPW O   H1  H2  EPW O   H1  H2  EPW O   H1  H2  EPW O   H1  
H2  EPW O   H1  H2  EPW O   H1  H2  EPW O   H1  H2  EPW O   H1  H2  EPW O   H1  
H2  EPW O   H1  H2  EPW O   H1  H2  EPW O   H1  H2  EPW O   H1  H2  EPW O   H1  
H2  EPW O   H1  H2  EPW O   H1  H2  EPW O   H1  H2  EPW O   H1  H2  EPW O   H1  
H2  EPW O   H1  H2  EPW O   H1  H2  EPW O   H1  H2  EPW O   H1  H2  EPW O   H1  
H2  EPW O   H1  H2  EPW O   H1  H2  EPW O   H1  H2  EPW O   H1  H2  EPW O   H1  
H2  EPW O   H1  H2  EPW O   H1  H2  EPW O   H1  H2  EPW O   H1  H2  EPW O   H1  
H2  EPW O   H1  H2  EPW O   H1  H2  EPW O   H1  H2  EPW O   H1  H2  EPW O   H1  
H2  EPW O   H1  H2  EPW O   H1  H2  EPW O   H1  H2  EPW O   H1  H2  EPW O   H1  
H2  EPW O   H1  H2  EPW O   H1  H2  EPW O   H1  H2  EPW O   H1  H2  EPW O   H1  
H2  EPW O   H1  H2  EPW O   H1  H2  EPW O   H1  H2  EPW O   H1  H2  EPW O   H1  
H2  EPW O   H1  H2  EPW O   H1  H2  EPW O   H1  H2  EPW O   H1  H2  EPW O   H1  
H2  EPW O   H1  H2  EPW O   H1  H2  EPW O   H1  H2  EPW O   H1  H2  EPW O   H1  
H2  EPW O   H1  H2  EPW O   H1  H2  EPW O   H1  H2  EPW O   H1  H2  EPW O   H1  
H2  EPW O   H1  H2  EPW O   H1  H2  EPW O   H1  H2  EPW O   H1  H2  EPW O   H1  
H2  EPW O   H1  H2  EPW O   H1  H2  EPW O   H1  H2  EPW O   H1  H2  EPW O   H1  
H2  EPW O   H1  H2  EPW O   H1  H2  EPW O   H1  H2  EPW O   H1  H2  EPW O   H1  
H2  EPW O   H1  H2  EPW O   H1  H2  EPW O   H1  H2  EPW O   H1  H2  EPW O   H1  
H2  EPW O   H1  H2  EPW O   H1  H2  EPW O   H1  H2  EPW O   H1  H2  EPW O   H1  
H2  EPW O   H1  H2  EPW O   H1  H2  EPW O   H1  H2  EPW O   H1  H2  EPW O   H1  
H2  EPW O   H1  H2  EPW O   H1  H2  EPW O   H1  H2  EPW O   H1  H2  EPW O   H1  
H2  EPW O   H1  H2  EPW O   H1  H2  EPW O   H1  H2  EPW O   H1  H2  EPW O   H1  
H2  EPW O   H1  H2  EPW O   H1  H2  EPW O   H1  H2  EPW O   H1  H2  EPW O   H1  
H2  EPW O   H1  H2  EPW O   H1  H2  EPW O   H1  H2  EPW O   H1  H2  EPW O   H1  
H2  EPW O   H1  H2  EPW O   H1  H2  EPW O   H1  H2  EPW O   H1  H2  EPW O   H1  
H2  EPW O   H1  H2  EPW O   H1  H2  EPW O   H1  H2  EPW O   H1  H2  EPW O   H1  
H2  EPW O   H1  H2  EPW O   H1  H2  EPW O   H1  H2  EPW O   H1  H2  EPW O   H1  
H2  EPW O   H1  H2  EPW O   H1  H2  EPW O   H1  H2  EPW O   H1  H2  EPW O   H1  
H2  EPW O   H1  H2  EPW O   H1  H2  EPW O   H1  H2  EPW O   H1  H2  EPW O   H1  
H2  EPW O   H1  H2  EPW O   H1  H2  EPW O   H1  H2  EPW O   H1  H2  EPW O   H1  
H2  EPW O   H1  H2  EPW O   H1  H2  EPW O   H1  H2  EPW O   H1  H2  EPW O   H1  
H2  EPW O   H1  H2  EPW O   H1  H2  EPW O   H1  H2  EPW O   H1  H2  EPW O   H1  
H2  EPW O   H1  H2  EPW O   H1  H2  EPW O   H1  H2  EPW O   H1  H2  EPW O   H1  
H2  EPW O   H1  H2  EPW O   H1  H2  EPW O   H1  H2  EPW O   H1  H2  EPW O   H1  
H2  EPW O   H1  H2  EPW O   H1  H2  EPW O   H1  H2  EPW O   H1  H2  EPW O   H1  
H2  EPW O   H1  H2  EPW O   H1  H2  EPW O   H1  H2  EPW O   H1  H2  EPW O   H1  
H2  EPW O   H1  H2  EPW O   H1  H2  EPW O   H1  H2  EPW O   H1  H2  EPW O   H1  
H2  EPW O   H1  H2  EPW O   H1  H2  EPW O   H1  H2  EPW O   H1  H2  EPW O   H1  
H2  EPW O   H1  H2  EPW O   H1  H2  EPW O   H1  H2  EPW O   H1  H2  EPW O   H1  
H2  EPW O   H1  H2  EPW O   H1  H2  EPW O   H1  H2  EPW O   H1  H2  EPW O   H1  
H2  EPW O   H1  H2  EPW O   H1  H2  EPW O   H1  H2  EPW O   H1  H2  EPW O   H1  
H2  EPW O   H1  H2  EPW O   H1  H2  EPW O   H1  H2  EPW O   H1  H2  EPW O   H1  
H2  EPW O   H1  H2  EPW O   H1  H2  EPW O   H1  H2  EPW O   H1  H2  EPW O   H1  
H2  EPW O   H1  H2  EPW O   H1  H2  EPW O   H1  H2  EPW O   H1  H2  EPW O   H1  
H2  EPW O   H1  H2  EPW O   H1  H2  EPW O   H1  H2  EPW O   H1  H2  EPW O   H1  
H2  EPW O   H1  H2  EPW O   H1  H2  EPW O   H1  H2  EPW O   H1  H2  EPW O   H1  
H2  EPW O   H1  H2  EPW O   H1  H2  EPW O   H1  H2  EPW O   H1  H2  EPW O   H1  
H2  EPW O   H1  H2  EPW O   H1  H2  EPW O   H1  H2  EPW O   H1  H2  EPW O   H1  
H2  EPW O   H1  H2  EPW O   H1  H2  EPW O   H1  H2  EPW O   H1  H2  EPW O   H1  
H2  EPW O   H1  H2  EPW O   H1  H2  EPW O   H1  H2  EPW O   H1  H2  EPW O   H1  
H2  EPW O   H1  H2  EPW O   H1  H2  EPW O   H1  H2  EPW O   H1  H2  EPW O   H1  
H2  EPW O   H1  H2  EPW O   H1  H2  EPW O   H1  H2  EPW O   H1  H2  EPW O   H1  
H2  EPW O   H1  H2  EPW O   H1  H2  EPW O   H1  H2  EPW O   H1  H2  EPW O   H1  
H2  EPW O   H1  H2  EPW O   H1  H2  EPW O   H1  H2  EPW O   H1  H2  EPW O   H1  
H2  EPW O   H1  H2  EPW O   H1  H2  EPW O   H1  H2  EPW O   H1  H2  EPW O   H1  
H2  EPW O   H1  H2  EPW O   H1  H2  EPW O   H1  H2  EPW O   H1  H2  EPW O   H1  
H2  EPW O   H1  H2  EPW O   H1  H2  EPW O   H1  H2  EPW O   H1  H2  EPW O   H1  
H2  EPW O   H1  H2  EPW O   H1  H2  EPW O   H1  H2  EPW O   H1  H2  EPW O   H1  
H2  EPW O   H1  H2  EPW O   H1  H2  EPW O   H1  H2  EPW O   H1  H2  EPW O   H1  
H2  EPW O   H1  H2  EPW O   H1  H2  EPW O   H1  H2  EPW O   H1  H2  EPW O   H1  
H2  EPW O   H1  H2  EPW O   H1  H2  EPW O   H1  H2  EPW O   H1  H2  EPW O   H1  
H2  EPW O   H1  H2  EPW O   H1  H2  EPW O   H1  H2  EPW O   H1  H2  EPW O   H1  
H2  EPW O   H1  H2  EPW O   H1  H2  EPW O   H1  H2  EPW O   H1  H2  EPW O   H1  
H2  EPW O   H1  H2  EPW O   H1  H2  EPW O   H1  H2  EPW O   H1  H2  EPW O   H1  
H2  EPW O   H1  H2  EPW O   H1  H2  EPW O   H1  H2  EPW O   H1  H2  EPW O   H1  
H2  EPW O   H1  H2  EPW O   H1  H2  EPW O   H1  H2  EPW O   H1  H2  EPW O   H1  
H2  EPW O   H1  H2  EPW O   H1  H2  EPW O   H1  H2  EPW O   H1  H2  EPW O   H1  
H2  EPW O   H1  H2  EPW O   H1  H2  EPW O   H1  H2  EPW O   H1  H2  EPW O   H1  
H2  EPW O   H1  H2  EPW O   H1  H2  EPW O   H1  H2  EPW O   H1  H2  EPW O   H1  
H2  EPW O   H1  H2  EPW O   H1  H2  EPW O   H1  H2  EPW O   H1  H2  EPW O   H1  
H2  EPW O   H1  H2  EPW O   H1  H2  EPW O   H1  H2  EPW O   H1  H2  EPW O   H1  
H2  EPW O   H1  H2  EPW O   H1  H2  EPW O   H1  H2  EPW O   H1  H2  EPW O   H1  
H2  EPW O   H1  H2  EPW O   H1  H2  EPW O   H1  H2  EPW O   H1  H2  EPW O   H1  
H2  EPW O   H1  H2  EPW O   H1  H2  EPW O   H1  H2  EPW O   H1  H2  EPW O   H1  
H2  EPW O   H1  H2  EPW O   H1  H2  EPW O   H1  H2  EPW O   H1  H2  EPW O   H1  
H2  EPW O   H1  H2  EPW O   H1  H2  EPW O   H1  H2  EPW O   H1  H2  EPW O   H1  
H2  EPW O   H1  H2  EPW O   H1  H2  EPW O   H1  H2  EPW O   H1  H2  EPW O   H1  
H2  EPW O   H1  H2  EPW O   H1  H2  EPW O   H1  H2  EPW O   H1  H2  EPW O   H1  
H2  EPW O   H1  H2  EPW O   H1  H2  EPW O   H1  H2  EPW O   H1  H2  EPW O   H1  
H2  EPW O   H1  H2  EPW O   H1  H2  EPW O   H1  H2  EPW O   H1  H2  EPW O   H1  
H2  EPW O   H1  H2  EPW O   H1  H2  EPW O   H1  H2  EPW O   H1  H2  EPW O   H1  
H2  EPW O   H1  H2  EPW O   H1  H2  EPW O   H1  H2  EPW O   H1  H2  EPW O   H1  
H2  EPW O   H1  H2  EPW O   H1  H2  EPW O   H1  H2  EPW O   H1  H2  EPW O   H1  
H2  EPW O   H1  H2  EPW O   H1  H2  EPW O   H1  H2  EPW O   H1  H2  EPW O   H1  
H2  EPW O   H1  H2  EPW O   H1  H2  EPW O   H1  H2  EPW O   H1  H2  EPW O   H1  
H2  EPW O   H1  H2  EPW O   H1  H2  EPW O   H1  H2  EPW O   H1  H2  EPW O   H1  
H2  EPW O   H1  H2  EPW O   H1  H2  EPW O   H1  H2  EPW O   H1  H2  EPW O   H1  
H2  EPW O   H1  H2  EPW O   H1  H2  EPW O   H1  H2  EPW O   H1  H2  EPW O   H1  
H2  EPW O   H1  H2  EPW O   H1  H2  EPW O   H1  H2  EPW O   H1  H2  EPW O   H1  
H2  EPW O   H1  H2  EPW O   H1  H2  EPW O   H1  H2  EPW O   H1  H2  EPW O   H1  
H2  EPW O   H1  H2  EPW O   H1  H2  EPW O   H1  H2  EPW O   H1  H2  EPW O   H1  
H2  EPW O   H1  H2  EPW O   H1  H2  EPW O   H1  H2  EPW O   H1  H2  EPW O   H1  
H2  EPW O   H1  H2  EPW O   H1  H2  EPW O   H1  H2  EPW O   H1  H2  EPW O   H1  
H2  EPW O   H1  H2  EPW O   H1  H2  EPW O   H1  H2  EPW O   H1  H2  EPW O   H1  
H2  EPW O   H1  H2  EPW O   H1  H2  EPW O   H1  H2  EPW O   H1  H2  EPW O   H1  
H2  EPW O   H1  H2  EPW O   H1  H2  EPW O   H1  H2  EPW O   H1  H2  EPW O   H1  
H2  EPW O   H1  H2  EPW O   H1  H2  EPW O   H1  H2  EPW O   H1  H2  EPW O   H1  
H2  EPW O   H1  H2  EPW O   H1  H2  EPW O   H1  H2  EPW O   H1  H2  EPW O   H1  
H2  EPW O   H1  H2  EPW O   H1  H2  EPW O   H1  H2  EPW O   H1  H2  EPW O   H1  
H2  EPW O   H1  H2  EPW O   H1  H2  EPW O   H1  H2  EPW O   H1  H2  EPW O   H1  
H2  EPW O   H1  H2  EPW O   H1  H2  EPW O   H1  H2  EPW O   H1  H2  EPW O   H1  
H2  EPW O   H1  H2  EPW O   H1  H2  EPW O   H1  H2  EPW O   H1  H2  EPW O   H1  
H2  EPW O   H1  H2  EPW O   H1  H2  EPW O   H1  H2  EPW O   H1  H2  EPW O   H1  
H2  EPW O   H1  H2  EPW O   H1  H2  EPW O   H1  H2  EPW O   H1  H2  EPW O   H1  
H2  EPW O   H1  H2  EPW O   H1  H2  EPW O   H1  H2  EPW O   H1  H2  EPW O   H1  
H2  EPW O   H1  H2  EPW O   H1  H2  EPW O   H1  H2  EPW O   H1  H2  EPW O   H1  
H2  EPW O   H1  H2  EPW O   H1  H2  EPW O   H1  H2  EPW O   H1  H2  EPW O   H1  
H2  EPW O   H1  H2  EPW O   H1  H2  EPW O   H1  H2  EPW O   H1  H2  EPW O   H1  
H2  EPW O   H1  H2  EPW O   H1  H2  EPW O   H1  H2  EPW O   H1  H2  EPW O   H1  
H2  EPW O   H1  H2  EPW O   H1  H2  EPW O   H1  H2  EPW O   H1  H2  EPW O   H1  
H2  EPW O   H1  H2  EPW O   H1  H2  EPW O   H1  H2  EPW O   H1  H2  EPW O   H1  
H2  EPW O   H1  H2  EPW O   H1  H2  EPW O   H1  H2  EPW O   H1  H2  EPW O   H1  
H2  EPW O   H1  H2  EPW O   H1  H2  EPW O   H1  H2  EPW O   H1  H2  EPW O   H1  
H2  EPW O   H1  H2  EPW O   H1  H2  EPW O   H1  H2  EPW O   H1  H2  EPW O   H1  
H2  EPW O   H1  H2  EPW O   H1  H2  EPW O   H1  H2  EPW O   H1  H2  EPW O   H1  
H2  EPW O   H1  H2  EPW O   H1  H2  EPW O   H1  H2  EPW O   H1  H2  EPW O   H1  
H2  EPW O   H1  H2  EPW O   H1  H2  EPW O   H1  H2  EPW O   H1  H2  EPW O   H1  
H2  EPW O   H1  H2  EPW O   H1  H2  EPW O   H1  H2  EPW O   H1  H2  EPW O   H1  
H2  EPW O   H1  H2  EPW O   H1  H2  EPW O   H1  H2  EPW O   H1  H2  EPW O   H1  
H2  EPW O   H1  H2  EPW O   H1  H2  EPW O   H1  H2  EPW O   H1  H2  EPW O   H1  
H2  EPW O   H1  H2  EPW O   H1  H2  EPW O   H1  H2  EPW O   H1  H2  EPW O   H1  
H2  EPW O   H1  H2  EPW O   H1  H2  EPW O   H1  H2  EPW O   H1  H2  EPW O   H1  
H2  EPW O   H1  H2  EPW O   H1  H2  EPW O   H1  H2  EPW O   H1  H2  EPW O   H1  
H2  EPW O   H1  H2  EPW O   H1  H2  EPW O   H1  H2  EPW O   H1  H2  EPW O   H1  
H2  EPW O   H1  H2  EPW O   H1  H2  EPW O   H1  H2  EPW O   H1  H2  EPW O   H1  
H2  EPW O   H1  H2  EPW O   H1  H2  EPW O   H1  H2  EPW O   H1  H2  EPW O   H1  
H2  EPW O   H1  H2  EPW O   H1  H2  EPW O   H1  H2  EPW O   H1  H2  EPW O   H1  
H2  EPW O   H1  H2  EPW O   H1  H2  EPW O   H1  H2  EPW O   H1  H2  EPW O   H1  
H2  EPW O   H1  H2  EPW O   H1  H2  EPW O   H1  H2  EPW O   H1  H2  EPW O   H1  
H2  EPW O   H1  H2  EPW O   H1  H2  EPW O   H1  H2  EPW O   H1  H2  EPW O   H1  
H2  EPW O   H1  H2  EPW O   H1  H2  EPW O   H1  H2  EPW O   H1  H2  EPW O   H1  
H2  EPW O   H1  H2  EPW O   H1  H2  EPW O   H1  H2  EPW O   H1  H2  EPW O   H1  
H2  EPW O   H1  H2  EPW O   H1  H2  EPW O   H1  H2  EPW O   H1  H2  EPW O   H1  
H2  EPW O   H1  H2  EPW O   H1  H2  EPW O   H1  H2  EPW O   H1  H2  EPW O   H1  
H2  EPW O   H1  H2  EPW O   H1  H2  EPW O   H1  H2  EPW O   H1  H2  EPW O   H1  
H2  EPW O   H1  H2  EPW O   H1  H2  EPW O   H1  H2  EPW O   H1  H2  EPW O   H1  
H2  EPW O   H1  H2  EPW O   H1  H2  EPW O   H1  H2  EPW O   H1  H2  EPW O   H1  
H2  EPW O   H1  H2  EPW O   H1  H2  EPW O   H1  H2  EPW O   H1  H2  EPW O   H1  
H2  EPW O   H1  H2  EPW O   H1  H2  EPW O   H1  H2  EPW O   H1  H2  EPW O   H1  
H2  EPW O   H1  H2  EPW O   H1  H2  EPW O   H1  H2  EPW O   H1  H2  EPW O   H1  
H2  EPW O   H1  H2  EPW O   H1  H2  EPW O   H1  H2  EPW O   H1  H2  EPW O   H1  
H2  EPW O   H1  H2  EPW O   H1  H2  EPW O   H1  H2  EPW O   H1  H2  EPW O   H1  
H2  EPW O   H1  H2  EPW O   H1  H2  EPW O   H1  H2  EPW O   H1  H2  EPW O   H1  
H2  EPW O   H1  H2  EPW O   H1  H2  EPW O   H1  H2  EPW O   H1  H2  EPW O   H1  
H2  EPW O   H1  H2  EPW O   H1  H2  EPW O   H1  H2  EPW O   H1  H2  EPW O   H1  
H2  EPW O   H1  H2  EPW O   H1  H2  EPW O   H1  H2  EPW O   H1  H2  EPW O   H1  
H2  EPW O   H1  H2  EPW O   H1  H2  EPW O   H1  H2  EPW O   H1  H2  EPW O   H1  
H2  EPW O   H1  H2  EPW O   H1  H2  EPW O   H1  H2  EPW O   H1  H2  EPW O   H1  
H2  EPW O   H1  H2  EPW O   H1  H2  EPW O   H1  H2  EPW O   H1  H2  EPW O   H1  
H2  EPW O   H1  H2  EPW O   H1  H2  EPW O   H1  H2  EPW O   H1  H2  EPW O   H1  
H2  EPW O   H1  H2  EPW O   H1  H2  EPW O   H1  H2  EPW O   H1  H2  EPW O   H1  
H2  EPW O   H1  H2  EPW O   H1  H2  EPW O   H1  H2  EPW O   H1  H2  EPW O   H1  
H2  EPW O   H1  H2  EPW O   H1  H2  EPW O   H1  H2  EPW O   H1  H2  EPW O   H1  
H2  EPW O   H1  H2  EPW O   H1  H2  EPW O   H1  H2  EPW O   H1  H2  EPW O   H1  
H2  EPW O   H1  H2  EPW O   H1  H2  EPW O   H1  H2  EPW O   H1  H2  EPW O   H1  
H2  EPW O   H1  H2  EPW O   H1  H2  EPW O   H1  H2  EPW O   H1  H2  EPW O   H1  
H2  EPW O   H1  H2  EPW O   H1  H2  EPW O   H1  H2  EPW O   H1  H2  EPW O   H1  
H2  EPW O   H1  H2  EPW O   H1  H2  EPW O   H1  H2  EPW O   H1  H2  EPW O   H1  
H2  EPW O   H1  H2  EPW O   H1  H2  EPW O   H1  H2  EPW O   H1  H2  EPW O   H1  
H2  EPW O   H1  H2  EPW O   H1  H2  EPW O   H1  H2  EPW O   H1  H2  EPW O   H1  
H2  EPW O   H1  H2  EPW O   H1  H2  EPW O   H1  H2  EPW O   H1  H2  EPW O   H1  
H2  EPW O   H1  H2  EPW O   H1  H2  EPW O   H1  H2  EPW O   H1  H2  EPW O   H1  
H2  EPW O   H1  H2  EPW O   H1  H2  EPW O   H1  H2  EPW O   H1  H2  EPW O   H1  
H2  EPW O   H1  H2  EPW O   H1  H2  EPW O   H1  H2  EPW O   H1  H2  EPW O   H1  
H2  EPW O   H1  H2  EPW O   H1  H2  EPW O   H1  H2  EPW O   H1  H2  EPW O   H1  
H2  EPW O   H1  H2  EPW O   H1  H2  EPW O   H1  H2  EPW O   H1  H2  EPW O   H1  
H2  EPW O   H1  H2  EPW O   H1  H2  EPW O   H1  H2  EPW O   H1  H2  EPW O   H1  
H2  EPW O   H1  H2  EPW O   H1  H2  EPW O   H1  H2  EPW O   H1  H2  EPW O   H1  
H2  EPW O   H1  H2  EPW O   H1  H2  EPW O   H1  H2  EPW O   H1  H2  EPW O   H1  
H2  EPW O   H1  H2  EPW O   H1  H2  EPW O   H1  H2  EPW O   H1  H2  EPW O   H1  
H2  EPW O   H1  H2  EPW O   H1  H2  EPW O   H1  H2  EPW O   H1  H2  EPW O   H1  
H2  EPW O   H1  H2  EPW O   H1  H2  EPW O   H1  H2  EPW O   H1  H2  EPW O   H1  
H2  EPW O   H1  H2  EPW O   H1  H2  EPW O   H1  H2  EPW O   H1  H2  EPW O   H1  
H2  EPW O   H1  H2  EPW O   H1  H2  EPW O   H1  H2  EPW O   H1  H2  EPW O   H1  
H2  EPW O   H1  H2  EPW O   H1  H2  EPW O   H1  H2  EPW O   H1  H2  EPW O   H1  
H2  EPW O   H1  H2  EPW O   H1  H2  EPW O   H1  H2  EPW O   H1  H2  EPW O   H1  
H2  EPW O   H1  H2  EPW O   H1  H2  EPW O   H1  H2  EPW O   H1  H2  EPW O   H1  
H2  EPW O   H1  H2  EPW O   H1  H2  EPW O   H1  H2  EPW O   H1  H2  EPW O   H1  
H2  EPW O   H1  H2  EPW O   H1  H2  EPW O   H1  H2  EPW O   H1  H2  EPW O   H1  
H2  EPW O   H1  H2  EPW O   H1  H2  EPW O   H1  H2  EPW O   H1  H2  EPW O   H1  
H2  EPW O   H1  H2  EPW O   H1  H2  EPW O   H1  H2  EPW O   H1  H2  EPW O   H1  
H2  EPW O   H1  H2  EPW O   H1  H2  EPW O   H1  H2  EPW O   H1  H2  EPW O   H1  
H2  EPW O   H1  H2  EPW O   H1  H2  EPW O   H1  H2  EPW O   H1  H2  EPW O   H1  
H2  EPW O   H1  H2  EPW O   H1  H2  EPW O   H1  H2  EPW O   H1  H2  EPW O   H1  
H2  EPW O   H1  H2  EPW O   H1  H2  EPW O   H1  H2  EPW O   H1  H2  EPW O   H1  
H2  EPW O   H1  H2  EPW O   H1  H2  EPW O   H1  H2  EPW O   H1  H2  EPW O   H1  
H2  EPW O   H1  H2  EPW O   H1  H2  EPW O   H1  H2  EPW O   H1  H2  EPW O   H1  
H2  EPW O   H1  H2  EPW O   H1  H2  EPW O   H1  H2  EPW O   H1  H2  EPW O   H1  
H2  EPW O   H1  H2  EPW O   H1  H2  EPW O   H1  H2  EPW O   H1  H2  EPW O   H1  
H2  EPW O   H1  H2  EPW O   H1  H2  EPW O   H1  H2  EPW O   H1  H2  EPW O   H1  
H2  EPW O   H1  H2  EPW O   H1  H2  EPW O   H1  H2  EPW O   H1  H2  EPW O   H1  
H2  EPW O   H1  H2  EPW O   H1  H2  EPW O   H1  H2  EPW O   H1  H2  EPW O   H1  
H2  EPW O   H1  H2  EPW O   H1  H2  EPW O   H1  H2  EPW O   H1  H2  EPW O   H1  
H2  EPW O   H1  H2  EPW O   H1  H2  EPW O   H1  H2  EPW O   H1  H2  EPW O   H1  
H2  EPW O   H1  H2  EPW O   H1  H2  EPW O   H1  H2  EPW O   H1  H2  EPW O   H1  
H2  EPW O   H1  H2  EPW O   H1  H2  EPW O   H1  H2  EPW O   H1  H2  EPW O   H1  
H2  EPW O   H1  H2  EPW O   H1  H2  EPW O   H1  H2  EPW O   H1  H2  EPW O   H1  
H2  EPW O   H1  H2  EPW O   H1  H2  EPW O   H1  H2  EPW O   H1  H2  EPW O   H1  
H2  EPW O   H1  H2  EPW O   H1  H2  EPW O   H1  H2  EPW O   H1  H2  EPW O   H1  
H2  EPW O   H1  H2  EPW O   H1  H2  EPW O   H1  H2  EPW O   H1  H2  EPW O   H1  
H2  EPW O   H1  H2  EPW O   H1  H2  EPW O   H1  H2  EPW O   H1  H2  EPW O   H1  
H2  EPW O   H1  H2  EPW O   H1  H2  EPW O   H1  H2  EPW O   H1  H2  EPW O   H1  
H2  EPW O   H1  H2  EPW O   H1  H2  EPW O   H1  H2  EPW O   H1  H2  EPW O   H1  
H2  EPW O   H1  H2  EPW O   H1  H2  EPW O   H1  H2  EPW O   H1  H2  EPW O   H1  
H2  EPW O   H1  H2  EPW O   H1  H2  EPW O   H1  H2  EPW O   H1  H2  EPW O   H1  
H2  EPW O   H1  H2  EPW O   H1  H2  EPW O   H1  H2  EPW O   H1  H2  EPW O   H1  
H2  EPW O   H1  H2  EPW O   H1  H2  EPW O   H1  H2  EPW O   H1  H2  EPW O   H1  
H2  EPW O   H1  H2  EPW O   H1  H2  EPW O   H1  H2  EPW O   H1  H2  EPW O   H1  
H2  EPW O   H1  H2  EPW O   H1  H2  EPW O   H1  H2  EPW O   H1  H2  EPW O   H1  
H2  EPW O   H1  H2  EPW O   H1  H2  EPW O   H1  H2  EPW O   H1  H2  EPW O   H1  
H2  EPW O   H1  H2  EPW O   H1  H2  EPW O   H1  H2  EPW O   H1  H2  EPW O   H1  
H2  EPW O   H1  H2  EPW O   H1  H2  EPW O   H1  H2  EPW O   H1  H2  EPW O   H1  
H2  EPW O   H1  H2  EPW O   H1  H2  EPW O   H1  H2  EPW O   H1  H2  EPW O   H1  
H2  EPW O   H1  H2  EPW O   H1  H2  EPW O   H1  H2  EPW O   H1  H2  EPW O   H1  
H2  EPW O   H1  H2  EPW O   H1  H2  EPW O   H1  H2  EPW O   H1  H2  EPW O   H1  
H2  EPW O   H1  H2  EPW O   H1  H2  EPW O   H1  H2  EPW O   H1  H2  EPW O   H1  
H2  EPW O   H1  H2  EPW O   H1  H2  EPW O   H1  H2  EPW O   H1  H2  EPW O   H1  
H2  EPW O   H1  H2  EPW O   H1  H2  EPW O   H1  H2  EPW O   H1  H2  EPW O   H1  
H2  EPW O   H1  H2  EPW O   H1  H2  EPW O   H1  H2  EPW O   H1  H2  EPW O   H1  
H2  EPW O   H1  H2  EPW O   H1  H2  EPW O   H1  H2  EPW O   H1  H2  EPW O   H1  
H2  EPW O   H1  H2  EPW O   H1  H2  EPW O   H1  H2  EPW O   H1  H2  EPW O   H1  
H2  EPW O   H1  H2  EPW O   H1  H2  EPW O   H1  H2  EPW O   H1  H2  EPW O   H1  
H2  EPW O   H1  H2  EPW O   H1  H2  EPW O   H1  H2  EPW O   H1  H2  EPW O   H1  
H2  EPW O   H1  H2  EPW O   H1  H2  EPW O   H1  H2  EPW O   H1  H2  EPW O   H1  
H2  EPW O   H1  H2  EPW O   H1  H2  EPW O   H1  H2  EPW O   H1  H2  EPW O   H1  
H2  EPW O   H1  H2  EPW O   H1  H2  EPW O   H1  H2  EPW O   H1  H2  EPW O   H1  
H2  EPW O   H1  H2  EPW O   H1  H2  EPW O   H1  H2  EPW O   H1  H2  EPW O   H1  
H2  EPW O   H1  H2  EPW O   H1  H2  EPW O   H1  H2  EPW O   H1  H2  EPW O   H1  
H2  EPW O   H1  H2  EPW O   H1  H2  EPW O   H1  H2  EPW O   H1  H2  EPW O   H1  
H2  EPW O   H1  H2  EPW O   H1  H2  EPW O   H1  H2  EPW O   H1  H2  EPW O   H1  
H2  EPW O   H1  H2  EPW O   H1  H2  EPW O   H1  H2  EPW O   H1  H2  EPW O   H1  
H2  EPW O   H1  H2  EPW O   H1  H2  EPW O   H1  H2  EPW O   H1  H2  EPW O   H1  
H2  EPW O   H1  H2  EPW O   H1  H2  EPW O   H1  H2  EPW O   H1  H2  EPW O   H1  
H2  EPW O   H1  H2  EPW O   H1  H2  EPW O   H1  H2  EPW O   H1  H2  EPW O   H1  
H2  EPW O   H1  H2  EPW O   H1  H2  EPW O   H1  H2  EPW O   H1  H2  EPW O   H1  
H2  EPW O   H1  H2  EPW O   H1  H2  EPW O   H1  H2  EPW O   H1  H2  EPW O   H1  
H2  EPW O   H1  H2  EPW O   H1  H2  EPW O   H1  H2  EPW O   H1  H2  EPW O   H1  
H2  EPW O   H1  H2  EPW O   H1  H2  EPW O   H1  H2  EPW O   H1  H2  EPW O   H1  
H2  EPW O   H1  H2  EPW O   H1  H2  EPW O   H1  H2  EPW O   H1  H2  EPW O   H1  
H2  EPW O   H1  H2  EPW O   H1  H2  EPW O   H1  H2  EPW O   H1  H2  EPW O   H1  
H2  EPW O   H1  H2  EPW O   H1  H2  EPW O   H1  H2  EPW O   H1  H2  EPW O   H1  
H2  EPW O   H1  H2  EPW O   H1  H2  EPW O   H1  H2  EPW O   H1  H2  EPW O   H1  
H2  EPW O   H1  H2  EPW O   H1  H2  EPW O   H1  H2  EPW O   H1  H2  EPW O   H1  
H2  EPW O   H1  H2  EPW O   H1  H2  EPW O   H1  H2  EPW O   H1  H2  EPW O   H1  
H2  EPW O   H1  H2  EPW O   H1  H2  EPW O   H1  H2  EPW O   H1  H2  EPW O   H1  
H2  EPW O   H1  H2  EPW O   H1  H2  EPW O   H1  H2  EPW O   H1  H2  EPW O   H1  
H2  EPW O   H1  H2  EPW O   H1  H2  EPW O   H1  H2  EPW O   H1  H2  EPW O   H1  
H2  EPW O   H1  H2  EPW O   H1  H2  EPW O   H1  H2  EPW O   H1  H2  EPW O   H1  
H2  EPW O   H1  H2  EPW O   H1  H2  EPW O   H1  H2  EPW O   H1  H2  EPW O   H1  
H2  EPW O   H1  H2  EPW O   H1  H2  EPW O   H1  H2  EPW O   H1  H2  EPW O   H1  
H2  EPW O   H1  H2  EPW O   H1  H2  EPW O   H1  H2  EPW O   H1  H2  EPW O   H1  
H2  EPW O   H1  H2  EPW O   H1  H2  EPW O   H1  H2  EPW O   H1  H2  EPW O   H1  
H2  EPW O   H1  H2  EPW O   H1  H2  EPW O   H1  H2  EPW O   H1  H2  EPW O   H1  
H2  EPW O   H1  H2  EPW O   H1  H2  EPW O   H1  H2  EPW O   H1  H2  EPW O   H1  
H2  EPW O   H1  H2  EPW O   H1  H2  EPW O   H1  H2  EPW O   H1  H2  EPW O   H1  
H2  EPW O   H1  H2  EPW O   H1  H2  EPW O   H1  H2  EPW O   H1  H2  EPW O   H1  
H2  EPW O   H1  H2  EPW O   H1  H2  EPW O   H1  H2  EPW O   H1  H2  EPW O   H1  
H2  EPW O   H1  H2  EPW O   H1  H2  EPW O   H1  H2  EPW O   H1  H2  EPW O   H1  
H2  EPW O   H1  H2  EPW O   H1  H2  EPW O   H1  H2  EPW O   H1  H2  EPW O   H1  
H2  EPW O   H1  H2  EPW O   H1  H2  EPW O   H1  H2  EPW O   H1  H2  EPW O   H1  
H2  EPW O   H1  H2  EPW O   H1  H2  EPW O   H1  H2  EPW O   H1  H2  EPW O   H1  
H2  EPW O   H1  H2  EPW O   H1  H2  EPW O   H1  H2  EPW O   H1  H2  EPW O   H1  
H2  EPW O   H1  H2  EPW O   H1  H2  EPW O   H1  H2  EPW O   H1  H2  EPW O   H1  
H2  EPW O   H1  H2  EPW O   H1  H2  EPW O   H1  H2  EPW O   H1  H2  EPW O   H1  
H2  EPW O   H1  H2  EPW O   H1  H2  EPW O   H1  H2  EPW O   H1  H2  EPW O   H1  
H2  EPW 
%FLAG CHARGE                                                                    
%FORMAT(5E16.8)                                                                 
  2.04636429E+00 -6.67300626E+00  2.04636429E+00  2.04636429E+00  1.08823576E+01
 -1.03484442E+01 -7.57501011E+00  4.95464337E+00 -2.55112200E-02  1.59627348E+00
 -2.76978960E-01  5.37557850E-01  5.37557850E-01 -2.00445300E-02 -3.47317038E+00
  3.09596877E+00 -4.26584043E+00  3.01761288E+00  5.87851398E+00 -1.01662212E+01
  7.27434216E+00 -4.26584043E+00  3.01761288E+00 -3.47317038E+00  3.09596877E+00
  1.08841798E+01 -1.03484442E+01 -7.57501011E+00  4.95464337E+00  6.14091510E-01
  1.49969529E+00 -3.32556975E+00  1.09880469E+00  1.09880469E+00  1.09880469E+00
  1.08841798E+01 -1.03484442E+01 -7.57501011E+00  4.95464337E+00 -4.59201960E-01
  1.27191654E+00  1.27191654E+00  1.08841798E+01 -1.03484442E+01 -7.57501011E+00
  4.95464337E+00 -4.37335200E-02  1.78214094E+00 -6.25024890E-01  5.37557850E-01
  5.37557850E-01  2.15023140E-01 -2.28872088E+00  2.42356590E+00 -3.10507992E+00
  2.60578890E+00 -1.95343056E+00  2.36343231E+00 -3.10507992E+00  2.60578890E+00
 -2.28872088E+00  2.42356590E+00  1.08841798E+01 -1.03484442E+01 -7.57501011E+00
  4.95464337E+00 -2.71512270E+00  1.77849648E+00  1.77849648E+00  1.77849648E+00
  0.00000000E+00  1.23755293E+01  1.23755293E+01 -2.47510585E+01  0.00000000E+00
  1.23755293E+01  1.23755293E+01 -2.47510585E+01  0.00000000E+00  1.23755293E+01
  1.23755293E+01 -2.47510585E+01  0.00000000E+00  1.23755293E+01  1.23755293E+01
 -2.47510585E+01  0.00000000E+00  1.23755293E+01  1.23755293E+01 -2.47510585E+01
  0.00000000E+00  1.23755293E+01  1.23755293E+01 -2.47510585E+01  0.00000000E+00
  1.23755293E+01  1.23755293E+01 -2.47510585E+01  0.00000000E+00  1.23755293E+01
  1.23755293E+01 -2.47510585E+01  0.00000000E+00  1.23755293E+01  1.23755293E+01
 -2.47510585E+01  0.00000000E+00  1.23755293E+01  1.23755293E+01 -2.47510585E+01
  0.00000000E+00  1.23755293E+01  1.23755293E+01 -2.47510585E+01  0.00000000E+00
  1.23755293E+01  1.23755293E+01 -2.47510585E+01  0.00000000E+00  1.23755293E+01
  1.23755293E+01 -2.47510585E+01  0.00000000E+00  1.23755293E+01  1.23755293E+01
 -2.47510585E+01  0.00000000E+00  1.23755293E+01  1.23755293E+01 -2.47510585E+01
  0.00000000E+00  1.23755293E+01  1.23755293E+01 -2.47510585E+01  0.00000000E+00
  1.23755293E+01  1.23755293E+01 -2.47510585E+01  0.00000000E+00  1.23755293E+01
  1.23755293E+01 -2.47510585E+01  0.00000000E+00  1.23755293E+01  1.23755293E+01
 -2.47510585E+01  0.00000000E+00  1.23755293E+01  1.23755293E+01 -2.47510585E+01
  0.00000000E+00  1.23755293E+01  1.23755293E+01 -2.47510585E+01  0.00000000E+00
  1.23755293E+01  1.23755293E+01 -2.47510585E+01  0.00000000E+00  1.23755293E+01
  1.23755293E+01 -2.47510585E+01  0.00000000E+00  1.23755293E+01  1.23755293E+01
 -2.47510585E+01  0.00000000E+00  1.23755293E+01  1.23755293E+01 -2.47510585E+01
  0.00000000E+00  1.23755293E+01  1.23755293E+01 -2.47510585E+01  0.00000000E+00
  1.23755293E+01  1.23755293E+01 -2.47510585E+01  0.00000000E+00  1.23755293E+01
  1.23755293E+01 -2.47510585E+01  0.00000000E+00  1.23755293E+01  1.23755293E+01
 -2.47510585E+01  0.00000000E+00  1.23755293E+01  1.23755293E+01 -2.47510585E+01
  0.00000000E+00  1.23755293E+01  1.23755293E+01 -2.47510585E+01  0.00000000E+00
  1.23755293E+01  1.23755293E+01 -2.47510585E+01  0.00000000E+00  1.23755293E+01
  1.23755293E+01 -2.47510585E+01  0.00000000E+00  1.23755293E+01  1.23755293E+01
 -2.47510585E+01  0.00000000E+00  1.23755293E+01  1.23755293E+01 -2.47510585E+01
  0.00000000E+00  1.23755293E+01  1.23755293E+01 -2.47510585E+01  0.00000000E+00
  1.23755293E+01  1.23755293E+01 -2.47510585E+01  0.00000000E+00  1.23755293E+01
  1.23755293E+01 -2.47510585E+01  0.00000000E+00  1.23755293E+01  1.23755293E+01
 -2.47510585E+01  0.00000000E+00  1.23755293E+01  1.23755293E+01 -2.47510585E+01
  0.00000000E+00  1.23755293E+01  1.23755293E+01 -2.47510585E+01  0.00000000E+00
  1.23755293E+01  1.23755293E+01 -2.47510585E+01  0.00000000E+00  1.23755293E+01
  1.23755293E+01 -2.47510585E+01  0.00000000E+00  1.23755293E+01  1.23755293E+01
 -2.47510585E+01  0.00000000E+00  1.23755293E+01  1.23755293E+01 -2.47510585E+01
  0.00000000E+00  1.23755293E+01  1.23755293E+01 -2.47510585E+01  0.00000000E+00
  1.23755293E+01  1.23755293E+01 -2.47510585E+01  0.00000000E+00  1.23755293E+01
  1.23755293E+01 -2.47510585E+01  0.00000000E+00  1.23755293E+01  1.23755293E+01
 -2.47510585E+01  0.00000000E+00  1.23755293E+01  1.23755293E+01 -2.47510585E+01
  0.00000000E+00  1.23755293E+01  1.23755293E+01 -2.47510585E+01  0.00000000E+00
  1.23755293E+01  1.23755293E+01 -2.47510585E+01  0.00000000E+00  1.23755293E+01
  1.23755293E+01 -2.47510585E+01  0.00000000E+00  1.23755293E+01  1.23755293E+01
 -2.47510585E+01  0.00000000E+00  1.23755293E+01  1.23755293E+01 -2.47510585E+01
  0.00000000E+00  1.23755293E+01  1.23755293E+01 -2.47510585E+01  0.00000000E+00
  1.23755293E+01  1.23755293E+01 -2.47510585E+01  0.00000000E+00  1.23755293E+01
  1.23755293E+01 -2.47510585E+01  0.00000000E+00  1.23755293E+01  1.23755293E+01
 -2.47510585E+01  0.00000000E+00  1.23755293E+01  1.23755293E+01 -2.47510585E+01
  0.00000000E+00  1.23755293E+01  1.23755293E+01 -2.47510585E+01  0.00000000E+00
  1.23755293E+01  1.23755293E+01 -2.47510585E+01  0.00000000E+00  1.23755293E+01
  1.23755293E+01 -2.47510585E+01  0.00000000E+00  1.23755293E+01  1.23755293E+01
 -2.47510585E+01  0.00000000E+00  1.23755293E+01  1.23755293E+01 -2.47510585E+01
  0.00000000E+00  1.23755293E+01  1.23755293E+01 -2.47510585E+01  0.00000000E+00
  1.23755293E+01  1.23755293E+01 -2.47510585E+01  0.00000000E+00  1.23755293E+01
  1.23755293E+01 -2.47510585E+01  0.00000000E+00  1.23755293E+01  1.23755293E+01
 -2.47510585E+01  0.00000000E+00  1.23755293E+01  1.23755293E+01 -2.47510585E+01
  0.00000000E+00  1.23755293E+01  1.23755293E+01 -2.47510585E+01  0.00000000E+00
  1.23755293E+01  1.23755293E+01 -2.47510585E+01  0.00000000E+00  1.23755293E+01
  1.23755293E+01 -2.47510585E+01  0.00000000E+00  1.23755293E+01  1.23755293E+01
 -2.47510585E+01  0.00000000E+00  1.23755293E+01  1.23755293E+01 -2.47510585E+01
  0.00000000E+00  1.23755293E+01  1.23755293E+01 -2.47510585E+01  0.00000000E+00
  1.23755293E+01  1.23755293E+01 -2.47510585E+01  0.00000000E+00  1.23755293E+01
  1.23755293E+01 -2.47510585E+01  0.00000000E+00  1.23755293E+01  1.23755293E+01
 -2.47510585E+01  0.00000000E+00  1.23755293E+01  1.23755293E+01 -2.47510585E+01
  0.00000000E+00  1.23755293E+01  1.23755293E+01 -2.47510585E+01  0.00000000E+00
  1.23755293E+01  1.23755293E+01 -2.47510585E+01  0.00000000E+00  1.23755293E+01
  1.23755293E+01 -2.47510585E+01  0.00000000E+00  1.23755293E+01  1.23755293E+01
 -2.47510585E+01  0.00000000E+00  1.23755293E+01  1.23755293E+01 -2.47510585E+01
  0.00000000E+00  1.23755293E+01  1.23755293E+01 -2.47510585E+01  0.00000000E+00
  1.23755293E+01  1.23755293E+01 -2.47510585E+01  0.00000000E+00  1.23755293E+01
  1.23755293E+01 -2.47510585E+01  0.00000000E+00  1.23755293E+01  1.23755293E+01
 -2.47510585E+01  0.00000000E+00  1.23755293E+01  1.23755293E+01 -2.47510585E+01
  0.00000000E+00  1.23755293E+01  1.23755293E+01 -2.47510585E+01  0.00000000E+00
  1.23755293E+01  1.23755293E+01 -2.47510585E+01  0.00000000E+00  1.23755293E+01
  1.23755293E+01 -2.47510585E+01  0.00000000E+00  1.23755293E+01  1.23755293E+01
 -2.47510585E+01  0.00000000E+00  1.23755293E+01  1.23755293E+01 -2.47510585E+01
  0.00000000E+00  1.23755293E+01  1.23755293E+01 -2.47510585E+01  0.00000000E+00
  1.23755293E+01  1.23755293E+01 -2.47510585E+01  0.00000000E+00  1.23755293E+01
  1.23755293E+01 -2.47510585E+01  0.00000000E+00  1.23755293E+01  1.23755293E+01
 -2.47510585E+01  0.00000000E+00  1.23755293E+01  1.23755293E+01 -2.47510585E+01
  0.00000000E+00  1.23755293E+01  1.23755293E+01 -2.47510585E+01  0.00000000E+00
  1.23755293E+01  1.23755293E+01 -2.47510585E+01  0.00000000E+00  1.23755293E+01
  1.23755293E+01 -2.47510585E+01  0.00000000E+00  1.23755293E+01  1.23755293E+01
 -2.47510585E+01  0.00000000E+00  1.23755293E+01  1.23755293E+01 -2.47510585E+01
  0.00000000E+00  1.23755293E+01  1.23755293E+01 -2.47510585E+01  0.00000000E+00
  1.23755293E+01  1.23755293E+01 -2.47510585E+01  0.00000000E+00  1.23755293E+01
  1.23755293E+01 -2.47510585E+01  0.00000000E+00  1.23755293E+01  1.23755293E+01
 -2.47510585E+01  0.00000000E+00  1.23755293E+01  1.23755293E+01 -2.47510585E+01
  0.00000000E+00  1.23755293E+01  1.23755293E+01 -2.47510585E+01  0.00000000E+00
  1.23755293E+01  1.23755293E+01 -2.47510585E+01  0.00000000E+00  1.23755293E+01
  1.23755293E+01 -2.47510585E+01  0.00000000E+00  1.23755293E+01  1.23755293E+01
 -2.47510585E+01  0.00000000E+00  1.23755293E+01  1.23755293E+01 -2.47510585E+01
  0.00000000E+00  1.23755293E+01  1.23755293E+01 -2.47510585E+01  0.00000000E+00
  1.23755293E+01  1.23755293E+01 -2.47510585E+01  0.00000000E+00  1.23755293E+01
  1.23755293E+01 -2.47510585E+01  0.00000000E+00  1.23755293E+01  1.23755293E+01
 -2.47510585E+01  0.00000000E+00  1.23755293E+01  1.23755293E+01 -2.47510585E+01
  0.00000000E+00  1.23755293E+01  1.23755293E+01 -2.47510585E+01  0.00000000E+00
  1.23755293E+01  1.23755293E+01 -2.47510585E+01  0.00000000E+00  1.23755293E+01
  1.23755293E+01 -2.47510585E+01  0.00000000E+00  1.23755293E+01  1.23755293E+01
 -2.47510585E+01  0.00000000E+00  1.23755293E+01  1.23755293E+01 -2.47510585E+01
  0.00000000E+00  1.23755293E+01  1.23755293E+01 -2.47510585E+01  0.00000000E+00
  1.23755293E+01  1.23755293E+01 -2.47510585E+01  0.00000000E+00  1.23755293E+01
  1.23755293E+01 -2.47510585E+01  0.00000000E+00  1.23755293E+01  1.23755293E+01
 -2.47510585E+01  0.00000000E+00  1.23755293E+01  1.23755293E+01 -2.47510585E+01
  0.00000000E+00  1.23755293E+01  1.23755293E+01 -2.47510585E+01  0.00000000E+00
  1.23755293E+01  1.23755293E+01 -2.47510585E+01  0.00000000E+00  1.23755293E+01
  1.23755293E+01 -2.47510585E+01  0.00000000E+00  1.23755293E+01  1.23755293E+01
 -2.47510585E+01  0.00000000E+00  1.23755293E+01  1.23755293E+01 -2.47510585E+01
  0.00000000E+00  1.23755293E+01  1.23755293E+01 -2.47510585E+01  0.00000000E+00
  1.23755293E+01  1.23755293E+01 -2.47510585E+01  0.00000000E+00  1.23755293E+01
  1.23755293E+01 -2.47510585E+01  0.00000000E+00  1.23755293E+01  1.23755293E+01
 -2.47510585E+01  0.00000000E+00  1.23755293E+01  1.23755293E+01 -2.47510585E+01
  0.00000000E+00  1.23755293E+01  1.23755293E+01 -2.47510585E+01  0.00000000E+00
  1.23755293E+01  1.23755293E+01 -2.47510585E+01  0.00000000E+00  1.23755293E+01
  1.23755293E+01 -2.47510585E+01  0.00000000E+00  1.23755293E+01  1.23755293E+01
 -2.47510585E+01  0.00000000E+00  1.23755293E+01  1.23755293E+01 -2.47510585E+01
  0.00000000E+00  1.23755293E+01  1.23755293E+01 -2.47510585E+01  0.00000000E+00
  1.23755293E+01  1.23755293E+01 -2.47510585E+01  0.00000000E+00  1.23755293E+01
  1.23755293E+01 -2.47510585E+01  0.00000000E+00  1.23755293E+01  1.23755293E+01
 -2.47510585E+01  0.00000000E+00  1.23755293E+01  1.23755293E+01 -2.47510585E+01
  0.00000000E+00  1.23755293E+01  1.23755293E+01 -2.47510585E+01  0.00000000E+00
  1.23755293E+01  1.23755293E+01 -2.47510585E+01  0.00000000E+00  1.23755293E+01
  1.23755293E+01 -2.47510585E+01  0.00000000E+00  1.23755293E+01  1.23755293E+01
 -2.47510585E+01  0.00000000E+00  1.23755293E+01  1.23755293E+01 -2.47510585E+01
  0.00000000E+00  1.23755293E+01  1.23755293E+01 -2.47510585E+01  0.00000000E+00
  1.23755293E+01  1.23755293E+01 -2.47510585E+01  0.00000000E+00  1.23755293E+01
  1.23755293E+01 -2.47510585E+01  0.00000000E+00  1.23755293E+01  1.23755293E+01
 -2.47510585E+01  0.00000000E+00  1.23755293E+01  1.23755293E+01 -2.47510585E+01
  0.00000000E+00  1.23755293E+01  1.23755293E+01 -2.47510585E+01  0.00000000E+00
  1.23755293E+01  1.23755293E+01 -2.47510585E+01  0.00000000E+00  1.23755293E+01
  1.23755293E+01 -2.47510585E+01  0.00000000E+00  1.23755293E+01  1.23755293E+01
 -2.47510585E+01  0.00000000E+00  1.23755293E+01  1.23755293E+01 -2.47510585E+01
  0.00000000E+00  1.23755293E+01  1.23755293E+01 -2.47510585E+01  0.00000000E+00
  1.23755293E+01  1.23755293E+01 -2.47510585E+01  0.00000000E+00  1.23755293E+01
  1.23755293E+01 -2.47510585E+01  0.00000000E+00  1.23755293E+01  1.23755293E+01
 -2.47510585E+01  0.00000000E+00  1.23755293E+01  1.23755293E+01 -2.47510585E+01
  0.00000000E+00  1.23755293E+01  1.23755293E+01 -2.47510585E+01  0.00000000E+00
  1.23755293E+01  1.23755293E+01 -2.47510585E+01  0.00000000E+00  1.23755293E+01
  1.23755293E+01 -2.47510585E+01  0.00000000E+00  1.23755293E+01  1.23755293E+01
 -2.47510585E+01  0.00000000E+00  1.23755293E+01  1.23755293E+01 -2.47510585E+01
  0.00000000E+00  1.23755293E+01  1.23755293E+01 -2.47510585E+01  0.00000000E+00
  1.23755293E+01  1.23755293E+01 -2.47510585E+01  0.00000000E+00  1.23755293E+01
  1.23755293E+01 -2.47510585E+01  0.00000000E+00  1.23755293E+01  1.23755293E+01
 -2.47510585E+01  0.00000000E+00  1.23755293E+01  1.23755293E+01 -2.47510585E+01
  0.00000000E+00  1.23755293E+01  1.23755293E+01 -2.47510585E+01  0.00000000E+00
  1.23755293E+01  1.23755293E+01 -2.47510585E+01  0.00000000E+00  1.23755293E+01
  1.23755293E+01 -2.47510585E+01  0.00000000E+00  1.23755293E+01  1.23755293E+01
 -2.47510585E+01  0.00000000E+00  1.23755293E+01  1.23755293E+01 -2.47510585E+01
  0.00000000E+00  1.23755293E+01  1.23755293E+01 -2.47510585E+01  0.00000000E+00
  1.23755293E+01  1.23755293E+01 -2.47510585E+01  0.00000000E+00  1.23755293E+01
  1.23755293E+01 -2.47510585E+01  0.00000000E+00  1.23755293E+01  1.23755293E+01
 -2.47510585E+01  0.00000000E+00  1.23755293E+01  1.23755293E+01 -2.47510585E+01
  0.00000000E+00  1.23755293E+01  1.23755293E+01 -2.47510585E+01  0.00000000E+00
  1.23755293E+01  1.23755293E+01 -2.47510585E+01  0.00000000E+00  1.23755293E+01
  1.23755293E+01 -2.47510585E+01  0.00000000E+00  1.23755293E+01  1.23755293E+01
 -2.47510585E+01  0.00000000E+00  1.23755293E+01  1.23755293E+01 -2.47510585E+01
  0.00000000E+00  1.23755293E+01  1.23755293E+01 -2.47510585E+01  0.00000000E+00
  1.23755293E+01  1.23755293E+01 -2.47510585E+01  0.00000000E+00  1.23755293E+01
  1.23755293E+01 -2.47510585E+01  0.00000000E+00  1.23755293E+01  1.23755293E+01
 -2.47510585E+01  0.00000000E+00  1.23755293E+01  1.23755293E+01 -2.47510585E+01
  0.00000000E+00  1.23755293E+01  1.23755293E+01 -2.47510585E+01  0.00000000E+00
  1.23755293E+01  1.23755293E+01 -2.47510585E+01  0.00000000E+00  1.23755293E+01
  1.23755293E+01 -2.47510585E+01  0.00000000E+00  1.23755293E+01  1.23755293E+01
 -2.47510585E+01  0.00000000E+00  1.23755293E+01  1.23755293E+01 -2.47510585E+01
  0.00000000E+00  1.23755293E+01  1.23755293E+01 -2.47510585E+01  0.00000000E+00
  1.23755293E+01  1.23755293E+01 -2.47510585E+01  0.00000000E+00  1.23755293E+01
  1.23755293E+01 -2.47510585E+01  0.00000000E+00  1.23755293E+01  1.23755293E+01
 -2.47510585E+01  0.00000000E+00  1.23755293E+01  1.23755293E+01 -2.47510585E+01
  0.00000000E+00  1.23755293E+01  1.23755293E+01 -2.47510585E+01  0.00000000E+00
  1.23755293E+01  1.23755293E+01 -2.47510585E+01  0.00000000E+00  1.23755293E+01
  1.23755293E+01 -2.47510585E+01  0.00000000E+00  1.23755293E+01  1.23755293E+01
 -2.47510585E+01  0.00000000E+00  1.23755293E+01  1.23755293E+01 -2.47510585E+01
  0.00000000E+00  1.23755293E+01  1.23755293E+01 -2.47510585E+01  0.00000000E+00
  1.23755293E+01  1.23755293E+01 -2.47510585E+01  0.00000000E+00  1.23755293E+01
  1.23755293E+01 -2.47510585E+01  0.00000000E+00  1.23755293E+01  1.23755293E+01
 -2.47510585E+01  0.00000000E+00  1.23755293E+01  1.23755293E+01 -2.47510585E+01
  0.00000000E+00  1.23755293E+01  1.23755293E+01 -2.47510585E+01  0.00000000E+00
  1.23755293E+01  1.23755293E+01 -2.47510585E+01  0.00000000E+00  1.23755293E+01
  1.23755293E+01 -2.47510585E+01  0.00000000E+00  1.23755293E+01  1.23755293E+01
 -2.47510585E+01  0.00000000E+00  1.23755293E+01  1.23755293E+01 -2.47510585E+01
  0.00000000E+00  1.23755293E+01  1.23755293E+01 -2.47510585E+01  0.00000000E+00
  1.23755293E+01  1.23755293E+01 -2.47510585E+01  0.00000000E+00  1.23755293E+01
  1.23755293E+01 -2.47510585E+01  0.00000000E+00  1.23755293E+01  1.23755293E+01
 -2.47510585E+01  0.00000000E+00  1.23755293E+01  1.23755293E+01 -2.47510585E+01
  0.00000000E+00  1.23755293E+01  1.23755293E+01 -2.47510585E+01  0.00000000E+00
  1.23755293E+01  1.23755293E+01 -2.47510585E+01  0.00000000E+00  1.23755293E+01
  1.23755293E+01 -2.47510585E+01  0.00000000E+00  1.23755293E+01  1.23755293E+01
 -2.47510585E+01  0.00000000E+00  1.23755293E+01  1.23755293E+01 -2.47510585E+01
  0.00000000E+00  1.23755293E+01  1.23755293E+01 -2.47510585E+01  0.00000000E+00
  1.23755293E+01  1.23755293E+01 -2.47510585E+01  0.00000000E+00  1.23755293E+01
  1.23755293E+01 -2.47510585E+01  0.00000000E+00  1.23755293E+01  1.23755293E+01
 -2.47510585E+01  0.00000000E+00  1.23755293E+01  1.23755293E+01 -2.47510585E+01
  0.00000000E+00  1.23755293E+01  1.23755293E+01 -2.47510585E+01  0.00000000E+00
  1.23755293E+01  1.23755293E+01 -2.47510585E+01  0.00000000E+00  1.23755293E+01
  1.23755293E+01 -2.47510585E+01  0.00000000E+00  1.23755293E+01  1.23755293E+01
 -2.47510585E+01  0.00000000E+00  1.23755293E+01  1.23755293E+01 -2.47510585E+01
  0.00000000E+00  1.23755293E+01  1.23755293E+01 -2.47510585E+01  0.00000000E+00
  1.23755293E+01  1.23755293E+01 -2.47510585E+01  0.00000000E+00  1.23755293E+01
  1.23755293E+01 -2.47510585E+01  0.00000000E+00  1.23755293E+01  1.23755293E+01
 -2.47510585E+01  0.00000000E+00  1.23755293E+01  1.23755293E+01 -2.47510585E+01
  0.00000000E+00  1.23755293E+01  1.23755293E+01 -2.47510585E+01  0.00000000E+00
  1.23755293E+01  1.23755293E+01 -2.47510585E+01  0.00000000E+00  1.23755293E+01
  1.23755293E+01 -2.47510585E+01  0.00000000E+00  1.23755293E+01  1.23755293E+01
 -2.47510585E+01  0.00000000E+00  1.23755293E+01  1.23755293E+01 -2.47510585E+01
  0.00000000E+00  1.23755293E+01  1.23755293E+01 -2.47510585E+01  0.00000000E+00
  1.23755293E+01  1.23755293E+01 -2.47510585E+01  0.00000000E+00  1.23755293E+01
  1.23755293E+01 -2.47510585E+01  0.00000000E+00  1.23755293E+01  1.23755293E+01
 -2.47510585E+01  0.00000000E+00  1.23755293E+01  1.23755293E+01 -2.47510585E+01
  0.00000000E+00  1.23755293E+01  1.23755293E+01 -2.47510585E+01  0.00000000E+00
  1.23755293E+01  1.23755293E+01 -2.47510585E+01  0.00000000E+00  1.23755293E+01
  1.23755293E+01 -2.47510585E+01  0.00000000E+00  1.23755293E+01  1.23755293E+01
 -2.47510585E+01  0.00000000E+00  1.23755293E+01  1.23755293E+01 -2.47510585E+01
  0.00000000E+00  1.23755293E+01  1.23755293E+01 -2.47510585E+01  0.00000000E+00
  1.23755293E+01  1.23755293E+01 -2.47510585E+01  0.00000000E+00  1.23755293E+01
  1.23755293E+01 -2.47510585E+01  0.00000000E+00  1.23755293E+01  1.23755293E+01
 -2.47510585E+01  0.00000000E+00  1.23755293E+01  1.23755293E+01 -2.47510585E+01
  0.00000000E+00  1.23755293E+01  1.23755293E+01 -2.47510585E+01  0.00000000E+00
  1.23755293E+01  1.23755293E+01 -2.47510585E+01  0.00000000E+00  1.23755293E+01
  1.23755293E+01 -2.47510585E+01  0.00000000E+00  1.23755293E+01  1.23755293E+01
 -2.47510585E+01  0.00000000E+00  1.23755293E+01  1.23755293E+01 -2.47510585E+01
  0.00000000E+00  1.23755293E+01  1.23755293E+01 -2.47510585E+01  0.00000000E+00
  1.23755293E+01  1.23755293E+01 -2.47510585E+01  0.00000000E+00  1.23755293E+01
  1.23755293E+01 -2.47510585E+01  0.00000000E+00  1.23755293E+01  1.23755293E+01
 -2.47510585E+01  0.00000000E+00  1.23755293E+01  1.23755293E+01 -2.47510585E+01
  0.00000000E+00  1.23755293E+01  1.23755293E+01 -2.47510585E+01  0.00000000E+00
  1.23755293E+01  1.23755293E+01 -2.47510585E+01  0.00000000E+00  1.23755293E+01
  1.23755293E+01 -2.47510585E+01  0.00000000E+00  1.23755293E+01  1.23755293E+01
 -2.47510585E+01  0.00000000E+00  1.23755293E+01  1.23755293E+01 -2.47510585E+01
  0.00000000E+00  1.23755293E+01  1.23755293E+01 -2.47510585E+01  0.00000000E+00
  1.23755293E+01  1.23755293E+01 -2.47510585E+01  0.00000000E+00  1.23755293E+01
  1.23755293E+01 -2.47510585E+01  0.00000000E+00  1.23755293E+01  1.23755293E+01
 -2.47510585E+01  0.00000000E+00  1.23755293E+01  1.23755293E+01 -2.47510585E+01
  0.00000000E+00  1.23755293E+01  1.23755293E+01 -2.47510585E+01  0.00000000E+00
  1.23755293E+01  1.23755293E+01 -2.47510585E+01  0.00000000E+00  1.23755293E+01
  1.23755293E+01 -2.47510585E+01  0.00000000E+00  1.23755293E+01  1.23755293E+01
 -2.47510585E+01  0.00000000E+00  1.23755293E+01  1.23755293E+01 -2.47510585E+01
  0.00000000E+00  1.23755293E+01  1.23755293E+01 -2.47510585E+01  0.00000000E+00
  1.23755293E+01  1.23755293E+01 -2.47510585E+01  0.00000000E+00  1.23755293E+01
  1.23755293E+01 -2.47510585E+01  0.00000000E+00  1.23755293E+01  1.23755293E+01
 -2.47510585E+01  0.00000000E+00  1.23755293E+01  1.23755293E+01 -2.47510585E+01
  0.00000000E+00  1.23755293E+01  1.23755293E+01 -2.47510585E+01  0.00000000E+00
  1.23755293E+01  1.23755293E+01 -2.47510585E+01  0.00000000E+00  1.23755293E+01
  1.23755293E+01 -2.47510585E+01  0.00000000E+00  1.23755293E+01  1.23755293E+01
 -2.47510585E+01  0.00000000E+00  1.23755293E+01  1.23755293E+01 -2.47510585E+01
  0.00000000E+00  1.23755293E+01  1.23755293E+01 -2.47510585E+01  0.00000000E+00
  1.23755293E+01  1.23755293E+01 -2.47510585E+01  0.00000000E+00  1.23755293E+01
  1.23755293E+01 -2.47510585E+01  0.00000000E+00  1.23755293E+01  1.23755293E+01
 -2.47510585E+01  0.00000000E+00  1.23755293E+01  1.23755293E+01 -2.47510585E+01
  0.00000000E+00  1.23755293E+01  1.23755293E+01 -2.47510585E+01  0.00000000E+00
  1.23755293E+01  1.23755293E+01 -2.47510585E+01  0.00000000E+00  1.23755293E+01
  1.23755293E+01 -2.47510585E+01  0.00000000E+00  1.23755293E+01  1.23755293E+01
 -2.47510585E+01  0.00000000E+00  1.23755293E+01  1.23755293E+01 -2.47510585E+01
  0.00000000E+00  1.23755293E+01  1.23755293E+01 -2.47510585E+01  0.00000000E+00
  1.23755293E+01  1.23755293E+01 -2.47510585E+01  0.00000000E+00  1.23755293E+01
  1.23755293E+01 -2.47510585E+01  0.00000000E+00  1.23755293E+01  1.23755293E+01
 -2.47510585E+01  0.00000000E+00  1.23755293E+01  1.23755293E+01 -2.47510585E+01
  0.00000000E+00  1.23755293E+01  1.23755293E+01 -2.47510585E+01  0.00000000E+00
  1.23755293E+01  1.23755293E+01 -2.47510585E+01  0.00000000E+00  1.23755293E+01
  1.23755293E+01 -2.47510585E+01  0.00000000E+00  1.23755293E+01  1.23755293E+01
 -2.47510585E+01  0.00000000E+00  1.23755293E+01  1.23755293E+01 -2.47510585E+01
  0.00000000E+00  1.23755293E+01  1.23755293E+01 -2.47510585E+01  0.00000000E+00
  1.23755293E+01  1.23755293E+01 -2.47510585E+01  0.00000000E+00  1.23755293E+01
  1.23755293E+01 -2.47510585E+01  0.00000000E+00  1.23755293E+01  1.23755293E+01
 -2.47510585E+01  0.00000000E+00  1.23755293E+01  1.23755293E+01 -2.47510585E+01
  0.00000000E+00  1.23755293E+01  1.23755293E+01 -2.47510585E+01  0.00000000E+00
  1.23755293E+01  1.23755293E+01 -2.47510585E+01  0.00000000E+00  1.23755293E+01
  1.23755293E+01 -2.47510585E+01  0.00000000E+00  1.23755293E+01  1.23755293E+01
 -2.47510585E+01  0.00000000E+00  1.23755293E+01  1.23755293E+01 -2.47510585E+01
  0.00000000E+00  1.23755293E+01  1.23755293E+01 -2.47510585E+01  0.00000000E+00
  1.23755293E+01  1.23755293E+01 -2.47510585E+01  0.00000000E+00  1.23755293E+01
  1.23755293E+01 -2.47510585E+01  0.00000000E+00  1.23755293E+01  1.23755293E+01
 -2.47510585E+01  0.00000000E+00  1.23755293E+01  1.23755293E+01 -2.47510585E+01
  0.00000000E+00  1.23755293E+01  1.23755293E+01 -2.47510585E+01  0.00000000E+00
  1.23755293E+01  1.23755293E+01 -2.47510585E+01  0.00000000E+00  1.23755293E+01
  1.23755293E+01 -2.47510585E+01  0.00000000E+00  1.23755293E+01  1.23755293E+01
 -2.47510585E+01  0.00000000E+00  1.23755293E+01  1.23755293E+01 -2.47510585E+01
  0.00000000E+00  1.23755293E+01  1.23755293E+01 -2.47510585E+01  0.00000000E+00
  1.23755293E+01  1.23755293E+01 -2.47510585E+01  0.00000000E+00  1.23755293E+01
  1.23755293E+01 -2.47510585E+01  0.00000000E+00  1.23755293E+01  1.23755293E+01
 -2.47510585E+01  0.00000000E+00  1.23755293E+01  1.23755293E+01 -2.47510585E+01
  0.00000000E+00  1.23755293E+01  1.23755293E+01 -2.47510585E+01  0.00000000E+00
  1.23755293E+01  1.23755293E+01 -2.47510585E+01  0.00000000E+00  1.23755293E+01
  1.23755293E+01 -2.47510585E+01  0.00000000E+00  1.23755293E+01  1.23755293E+01
 -2.47510585E+01  0.00000000E+00  1.23755293E+01  1.23755293E+01 -2.47510585E+01
  0.00000000E+00  1.23755293E+01  1.23755293E+01 -2.47510585E+01  0.00000000E+00
  1.23755293E+01  1.23755293E+01 -2.47510585E+01  0.00000000E+00  1.23755293E+01
  1.23755293E+01 -2.47510585E+01  0.00000000E+00  1.23755293E+01  1.23755293E+01
 -2.47510585E+01  0.00000000E+00  1.23755293E+01  1.23755293E+01 -2.47510585E+01
  0.00000000E+00  1.23755293E+01  1.23755293E+01 -2.47510585E+01  0.00000000E+00
  1.23755293E+01  1.23755293E+01 -2.47510585E+01  0.00000000E+00  1.23755293E+01
  1.23755293E+01 -2.47510585E+01  0.00000000E+00  1.23755293E+01  1.23755293E+01
 -2.47510585E+01  0.00000000E+00  1.23755293E+01  1.23755293E+01 -2.47510585E+01
  0.00000000E+00  1.23755293E+01  1.23755293E+01 -2.47510585E+01  0.00000000E+00
  1.23755293E+01  1.23755293E+01 -2.47510585E+01  0.00000000E+00  1.23755293E+01
  1.23755293E+01 -2.47510585E+01  0.00000000E+00  1.23755293E+01  1.23755293E+01
 -2.47510585E+01  0.00000000E+00  1.23755293E+01  1.23755293E+01 -2.47510585E+01
  0.00000000E+00  1.23755293E+01  1.23755293E+01 -2.47510585E+01  0.00000000E+00
  1.23755293E+01  1.23755293E+01 -2.47510585E+01  0.00000000E+00  1.23755293E+01
  1.23755293E+01 -2.47510585E+01  0.00000000E+00  1.23755293E+01  1.23755293E+01
 -2.47510585E+01  0.00000000E+00  1.23755293E+01  1.23755293E+01 -2.47510585E+01
  0.00000000E+00  1.23755293E+01  1.23755293E+01 -2.47510585E+01  0.00000000E+00
  1.23755293E+01  1.23755293E+01 -2.47510585E+01  0.00000000E+00  1.23755293E+01
  1.23755293E+01 -2.47510585E+01  0.00000000E+00  1.23755293E+01  1.23755293E+01
 -2.47510585E+01  0.00000000E+00  1.23755293E+01  1.23755293E+01 -2.47510585E+01
  0.00000000E+00  1.23755293E+01  1.23755293E+01 -2.47510585E+01  0.00000000E+00
  1.23755293E+01  1.23755293E+01 -2.47510585E+01  0.00000000E+00  1.23755293E+01
  1.23755293E+01 -2.47510585E+01  0.00000000E+00  1.23755293E+01  1.23755293E+01
 -2.47510585E+01  0.00000000E+00  1.23755293E+01  1.23755293E+01 -2.47510585E+01
  0.00000000E+00  1.23755293E+01  1.23755293E+01 -2.47510585E+01  0.00000000E+00
  1.23755293E+01  1.23755293E+01 -2.47510585E+01  0.00000000E+00  1.23755293E+01
  1.23755293E+01 -2.47510585E+01  0.00000000E+00  1.23755293E+01  1.23755293E+01
 -2.47510585E+01  0.00000000E+00  1.23755293E+01  1.23755293E+01 -2.47510585E+01
  0.00000000E+00  1.23755293E+01  1.23755293E+01 -2.47510585E+01  0.00000000E+00
  1.23755293E+01  1.23755293E+01 -2.47510585E+01  0.00000000E+00  1.23755293E+01
  1.23755293E+01 -2.47510585E+01  0.00000000E+00  1.23755293E+01  1.23755293E+01
 -2.47510585E+01  0.00000000E+00  1.23755293E+01  1.23755293E+01 -2.47510585E+01
  0.00000000E+00  1.23755293E+01  1.23755293E+01 -2.47510585E+01  0.00000000E+00
  1.23755293E+01  1.23755293E+01 -2.47510585E+01  0.00000000E+00  1.23755293E+01
  1.23755293E+01 -2.47510585E+01  0.00000000E+00  1.23755293E+01  1.23755293E+01
 -2.47510585E+01  0.00000000E+00  1.23755293E+01  1.23755293E+01 -2.47510585E+01
  0.00000000E+00  1.23755293E+01  1.23755293E+01 -2.47510585E+01  0.00000000E+00
  1.23755293E+01  1.23755293E+01 -2.47510585E+01  0.00000000E+00  1.23755293E+01
  1.23755293E+01 -2.47510585E+01  0.00000000E+00  1.23755293E+01  1.23755293E+01
 -2.47510585E+01  0.00000000E+00  1.23755293E+01  1.23755293E+01 -2.47510585E+01
  0.00000000E+00  1.23755293E+01  1.23755293E+01 -2.47510585E+01  0.00000000E+00
  1.23755293E+01  1.23755293E+01 -2.47510585E+01  0.00000000E+00  1.23755293E+01
  1.23755293E+01 -2.47510585E+01  0.00000000E+00  1.23755293E+01  1.23755293E+01
 -2.47510585E+01  0.00000000E+00  1.23755293E+01  1.23755293E+01 -2.47510585E+01
  0.00000000E+00  1.23755293E+01  1.23755293E+01 -2.47510585E+01  0.00000000E+00
  1.23755293E+01  1.23755293E+01 -2.47510585E+01  0.00000000E+00  1.23755293E+01
  1.23755293E+01 -2.47510585E+01  0.00000000E+00  1.23755293E+01  1.23755293E+01
 -2.47510585E+01  0.00000000E+00  1.23755293E+01  1.23755293E+01 -2.47510585E+01
  0.00000000E+00  1.23755293E+01  1.23755293E+01 -2.47510585E+01  0.00000000E+00
  1.23755293E+01  1.23755293E+01 -2.47510585E+01  0.00000000E+00  1.23755293E+01
  1.23755293E+01 -2.47510585E+01  0.00000000E+00  1.23755293E+01  1.23755293E+01
 -2.47510585E+01  0.00000000E+00  1.23755293E+01  1.23755293E+01 -2.47510585E+01
  0.00000000E+00  1.23755293E+01  1.23755293E+01 -2.47510585E+01  0.00000000E+00
  1.23755293E+01  1.23755293E+01 -2.47510585E+01  0.00000000E+00  1.23755293E+01
  1.23755293E+01 -2.47510585E+01  0.00000000E+00  1.23755293E+01  1.23755293E+01
 -2.47510585E+01  0.00000000E+00  1.23755293E+01  1.23755293E+01 -2.47510585E+01
  0.00000000E+00  1.23755293E+01  1.23755293E+01 -2.47510585E+01  0.00000000E+00
  1.23755293E+01  1.23755293E+01 -2.47510585E+01  0.00000000E+00  1.23755293E+01
  1.23755293E+01 -2.47510585E+01  0.00000000E+00  1.23755293E+01  1.23755293E+01
 -2.47510585E+01  0.00000000E+00  1.23755293E+01  1.23755293E+01 -2.47510585E+01
  0.00000000E+00  1.23755293E+01  1.23755293E+01 -2.47510585E+01  0.00000000E+00
  1.23755293E+01  1.23755293E+01 -2.47510585E+01  0.00000000E+00  1.23755293E+01
  1.23755293E+01 -2.47510585E+01  0.00000000E+00  1.23755293E+01  1.23755293E+01
 -2.47510585E+01  0.00000000E+00  1.23755293E+01  1.23755293E+01 -2.47510585E+01
  0.00000000E+00  1.23755293E+01  1.23755293E+01 -2.47510585E+01  0.00000000E+00
  1.23755293E+01  1.23755293E+01 -2.47510585E+01  0.00000000E+00  1.23755293E+01
  1.23755293E+01 -2.47510585E+01  0.00000000E+00  1.23755293E+01  1.23755293E+01
 -2.47510585E+01  0.00000000E+00  1.23755293E+01  1.23755293E+01 -2.47510585E+01
  0.00000000E+00  1.23755293E+01  1.23755293E+01 -2.47510585E+01  0.00000000E+00
  1.23755293E+01  1.23755293E+01 -2.47510585E+01  0.00000000E+00  1.23755293E+01
  1.23755293E+01 -2.47510585E+01  0.00000000E+00  1.23755293E+01  1.23755293E+01
 -2.47510585E+01  0.00000000E+00  1.23755293E+01  1.23755293E+01 -2.47510585E+01
  0.00000000E+00  1.23755293E+01  1.23755293E+01 -2.47510585E+01  0.00000000E+00
  1.23755293E+01  1.23755293E+01 -2.47510585E+01  0.00000000E+00  1.23755293E+01
  1.23755293E+01 -2.47510585E+01  0.00000000E+00  1.23755293E+01  1.23755293E+01
 -2.47510585E+01  0.00000000E+00  1.23755293E+01  1.23755293E+01 -2.47510585E+01
  0.00000000E+00  1.23755293E+01  1.23755293E+01 -2.47510585E+01  0.00000000E+00
  1.23755293E+01  1.23755293E+01 -2.47510585E+01  0.00000000E+00  1.23755293E+01
  1.23755293E+01 -2.47510585E+01  0.00000000E+00  1.23755293E+01  1.23755293E+01
 -2.47510585E+01  0.00000000E+00  1.23755293E+01  1.23755293E+01 -2.47510585E+01
  0.00000000E+00  1.23755293E+01  1.23755293E+01 -2.47510585E+01  0.00000000E+00
  1.23755293E+01  1.23755293E+01 -2.47510585E+01  0.00000000E+00  1.23755293E+01
  1.23755293E+01 -2.47510585E+01  0.00000000E+00  1.23755293E+01  1.23755293E+01
 -2.47510585E+01  0.00000000E+00  1.23755293E+01  1.23755293E+01 -2.47510585E+01
  0.00000000E+00  1.23755293E+01  1.23755293E+01 -2.47510585E+01  0.00000000E+00
  1.23755293E+01  1.23755293E+01 -2.47510585E+01  0.00000000E+00  1.23755293E+01
  1.23755293E+01 -2.47510585E+01  0.00000000E+00  1.23755293E+01  1.23755293E+01
 -2.47510585E+01  0.00000000E+00  1.23755293E+01  1.23755293E+01 -2.47510585E+01
  0.00000000E+00  1.23755293E+01  1.23755293E+01 -2.47510585E+01  0.00000000E+00
  1.23755293E+01  1.23755293E+01 -2.47510585E+01  0.00000000E+00  1.23755293E+01
  1.23755293E+01 -2.47510585E+01  0.00000000E+00  1.23755293E+01  1.23755293E+01
 -2.47510585E+01  0.00000000E+00  1.23755293E+01  1.23755293E+01 -2.47510585E+01
  0.00000000E+00  1.23755293E+01  1.23755293E+01 -2.47510585E+01  0.00000000E+00
  1.23755293E+01  1.23755293E+01 -2.47510585E+01  0.00000000E+00  1.23755293E+01
  1.23755293E+01 -2.47510585E+01  0.00000000E+00  1.23755293E+01  1.23755293E+01
 -2.47510585E+01  0.00000000E+00  1.23755293E+01  1.23755293E+01 -2.47510585E+01
  0.00000000E+00  1.23755293E+01  1.23755293E+01 -2.47510585E+01  0.00000000E+00
  1.23755293E+01  1.23755293E+01 -2.47510585E+01  0.00000000E+00  1.23755293E+01
  1.23755293E+01 -2.47510585E+01  0.00000000E+00  1.23755293E+01  1.23755293E+01
 -2.47510585E+01  0.00000000E+00  1.23755293E+01  1.23755293E+01 -2.47510585E+01
  0.00000000E+00  1.23755293E+01  1.23755293E+01 -2.47510585E+01  0.00000000E+00
  1.23755293E+01  1.23755293E+01 -2.47510585E+01  0.00000000E+00  1.23755293E+01
  1.23755293E+01 -2.47510585E+01  0.00000000E+00  1.23755293E+01  1.23755293E+01
 -2.47510585E+01  0.00000000E+00  1.23755293E+01  1.23755293E+01 -2.47510585E+01
  0.00000000E+00  1.23755293E+01  1.23755293E+01 -2.47510585E+01  0.00000000E+00
  1.23755293E+01  1.23755293E+01 -2.47510585E+01  0.00000000E+00  1.23755293E+01
  1.23755293E+01 -2.47510585E+01  0.00000000E+00  1.23755293E+01  1.23755293E+01
 -2.47510585E+01  0.00000000E+00  1.23755293E+01  1.23755293E+01 -2.47510585E+01
  0.00000000E+00  1.23755293E+01  1.23755293E+01 -2.47510585E+01  0.00000000E+00
  1.23755293E+01  1.23755293E+01 -2.47510585E+01  0.00000000E+00  1.23755293E+01
  1.23755293E+01 -2.47510585E+01  0.00000000E+00  1.23755293E+01  1.23755293E+01
 -2.47510585E+01  0.00000000E+00  1.23755293E+01  1.23755293E+01 -2.47510585E+01
  0.00000000E+00  1.23755293E+01  1.23755293E+01 -2.47510585E+01  0.00000000E+00
  1.23755293E+01  1.23755293E+01 -2.47510585E+01  0.00000000E+00  1.23755293E+01
  1.23755293E+01 -2.47510585E+01  0.00000000E+00  1.23755293E+01  1.23755293E+01
 -2.47510585E+01  0.00000000E+00  1.23755293E+01  1.23755293E+01 -2.47510585E+01
  0.00000000E+00  1.23755293E+01  1.23755293E+01 -2.47510585E+01  0.00000000E+00
  1.23755293E+01  1.23755293E+01 -2.47510585E+01  0.00000000E+00  1.23755293E+01
  1.23755293E+01 -2.47510585E+01  0.00000000E+00  1.23755293E+01  1.23755293E+01
 -2.47510585E+01  0.00000000E+00  1.23755293E+01  1.23755293E+01 -2.47510585E+01
  0.00000000E+00  1.23755293E+01  1.23755293E+01 -2.47510585E+01  0.00000000E+00
  1.23755293E+01  1.23755293E+01 -2.47510585E+01  0.00000000E+00  1.23755293E+01
  1.23755293E+01 -2.47510585E+01  0.00000000E+00  1.23755293E+01  1.23755293E+01
 -2.47510585E+01  0.00000000E+00  1.23755293E+01  1.23755293E+01 -2.47510585E+01
  0.00000000E+00  1.23755293E+01  1.23755293E+01 -2.47510585E+01  0.00000000E+00
  1.23755293E+01  1.23755293E+01 -2.47510585E+01  0.00000000E+00  1.23755293E+01
  1.23755293E+01 -2.47510585E+01  0.00000000E+00  1.23755293E+01  1.23755293E+01
 -2.47510585E+01  0.00000000E+00  1.23755293E+01  1.23755293E+01 -2.47510585E+01
  0.00000000E+00  1.23755293E+01  1.23755293E+01 -2.47510585E+01  0.00000000E+00
  1.23755293E+01  1.23755293E+01 -2.47510585E+01  0.00000000E+00  1.23755293E+01
  1.23755293E+01 -2.47510585E+01  0.00000000E+00  1.23755293E+01  1.23755293E+01
 -2.47510585E+01  0.00000000E+00  1.23755293E+01  1.23755293E+01 -2.47510585E+01
  0.00000000E+00  1.23755293E+01  1.23755293E+01 -2.47510585E+01  0.00000000E+00
  1.23755293E+01  1.23755293E+01 -2.47510585E+01  0.00000000E+00  1.23755293E+01
  1.23755293E+01 -2.47510585E+01  0.00000000E+00  1.23755293E+01  1.23755293E+01
 -2.47510585E+01  0.00000000E+00  1.23755293E+01  1.23755293E+01 -2.47510585E+01
  0.00000000E+00  1.23755293E+01  1.23755293E+01 -2.47510585E+01  0.00000000E+00
  1.23755293E+01  1.23755293E+01 -2.47510585E+01  0.00000000E+00  1.23755293E+01
  1.23755293E+01 -2.47510585E+01  0.00000000E+00  1.23755293E+01  1.23755293E+01
 -2.47510585E+01  0.00000000E+00  1.23755293E+01  1.23755293E+01 -2.47510585E+01
  0.00000000E+00  1.23755293E+01  1.23755293E+01 -2.47510585E+01  0.00000000E+00
  1.23755293E+01  1.23755293E+01 -2.47510585E+01  0.00000000E+00  1.23755293E+01
  1.23755293E+01 -2.47510585E+01  0.00000000E+00  1.23755293E+01  1.23755293E+01
 -2.47510585E+01  0.00000000E+00  1.23755293E+01  1.23755293E+01 -2.47510585E+01
  0.00000000E+00  1.23755293E+01  1.23755293E+01 -2.47510585E+01  0.00000000E+00
  1.23755293E+01  1.23755293E+01 -2.47510585E+01  0.00000000E+00  1.23755293E+01
  1.23755293E+01 -2.47510585E+01  0.00000000E+00  1.23755293E+01  1.23755293E+01
 -2.47510585E+01  0.00000000E+00  1.23755293E+01  1.23755293E+01 -2.47510585E+01
  0.00000000E+00  1.23755293E+01  1.23755293E+01 -2.47510585E+01  0.00000000E+00
  1.23755293E+01  1.23755293E+01 -2.47510585E+01  0.00000000E+00  1.23755293E+01
  1.23755293E+01 -2.47510585E+01  0.00000000E+00  1.23755293E+01  1.23755293E+01
 -2.47510585E+01  0.00000000E+00  1.23755293E+01  1.23755293E+01 -2.47510585E+01
  0.00000000E+00  1.23755293E+01  1.23755293E+01 -2.47510585E+01  0.00000000E+00
  1.23755293E+01  1.23755293E+01 -2.47510585E+01  0.00000000E+00  1.23755293E+01
  1.23755293E+01 -2.47510585E+01  0.00000000E+00  1.23755293E+01  1.23755293E+01
 -2.47510585E+01  0.00000000E+00  1.23755293E+01  1.23755293E+01 -2.47510585E+01
  0.00000000E+00  1.23755293E+01  1.23755293E+01 -2.47510585E+01  0.00000000E+00
  1.23755293E+01  1.23755293E+01 -2.47510585E+01  0.00000000E+00  1.23755293E+01
  1.23755293E+01 -2.47510585E+01  0.00000000E+00  1.23755293E+01  1.23755293E+01
 -2.47510585E+01  0.00000000E+00  1.23755293E+01  1.23755293E+01 -2.47510585E+01
  0.00000000E+00  1.23755293E+01  1.23755293E+01 -2.47510585E+01  0.00000000E+00
  1.23755293E+01  1.23755293E+01 -2.47510585E+01  0.00000000E+00  1.23755293E+01
  1.23755293E+01 -2.47510585E+01  0.00000000E+00  1.23755293E+01  1.23755293E+01
 -2.47510585E+01  0.00000000E+00  1.23755293E+01  1.23755293E+01 -2.47510585E+01
  0.00000000E+00  1.23755293E+01  1.23755293E+01 -2.47510585E+01  0.00000000E+00
  1.23755293E+01  1.23755293E+01 -2.47510585E+01  0.00000000E+00  1.23755293E+01
  1.23755293E+01 -2.47510585E+01  0.00000000E+00  1.23755293E+01  1.23755293E+01
 -2.47510585E+01  0.00000000E+00  1.23755293E+01  1.23755293E+01 -2.47510585E+01
  0.00000000E+00  1.23755293E+01  1.23755293E+01 -2.47510585E+01  0.00000000E+00
  1.23755293E+01  1.23755293E+01 -2.47510585E+01  0.00000000E+00  1.23755293E+01
  1.23755293E+01 -2.47510585E+01  0.00000000E+00  1.23755293E+01  1.23755293E+01
 -2.47510585E+01  0.00000000E+00  1.23755293E+01  1.23755293E+01 -2.47510585E+01
  0.00000000E+00  1.23755293E+01  1.23755293E+01 -2.47510585E+01  0.00000000E+00
  1.23755293E+01  1.23755293E+01 -2.47510585E+01  0.00000000E+00  1.23755293E+01
  1.23755293E+01 -2.47510585E+01  0.00000000E+00  1.23755293E+01  1.23755293E+01
 -2.47510585E+01  0.00000000E+00  1.23755293E+01  1.23755293E+01 -2.47510585E+01
  0.00000000E+00  1.23755293E+01  1.23755293E+01 -2.47510585E+01  0.00000000E+00
  1.23755293E+01  1.23755293E+01 -2.47510585E+01  0.00000000E+00  1.23755293E+01
  1.23755293E+01 -2.47510585E+01  0.00000000E+00  1.23755293E+01  1.23755293E+01
 -2.47510585E+01  0.00000000E+00  1.23755293E+01  1.23755293E+01 -2.47510585E+01
  0.00000000E+00  1.23755293E+01  1.23755293E+01 -2.47510585E+01  0.00000000E+00
  1.23755293E+01  1.23755293E+01 -2.47510585E+01  0.00000000E+00  1.23755293E+01
  1.23755293E+01 -2.47510585E+01  0.00000000E+00  1.23755293E+01  1.23755293E+01
 -2.47510585E+01  0.00000000E+00  1.23755293E+01  1.23755293E+01 -2.47510585E+01
  0.00000000E+00  1.23755293E+01  1.23755293E+01 -2.47510585E+01  0.00000000E+00
  1.23755293E+01  1.23755293E+01 -2.47510585E+01  0.00000000E+00  1.23755293E+01
  1.23755293E+01 -2.47510585E+01  0.00000000E+00  1.23755293E+01  1.23755293E+01
 -2.47510585E+01  0.00000000E+00  1.23755293E+01  1.23755293E+01 -2.47510585E+01
  0.00000000E+00  1.23755293E+01  1.23755293E+01 -2.47510585E+01  0.00000000E+00
  1.23755293E+01  1.23755293E+01 -2.47510585E+01  0.00000000E+00  1.23755293E+01
  1.23755293E+01 -2.47510585E+01  0.00000000E+00  1.23755293E+01  1.23755293E+01
 -2.47510585E+01  0.00000000E+00  1.23755293E+01  1.23755293E+01 -2.47510585E+01
  0.00000000E+00  1.23755293E+01  1.23755293E+01 -2.47510585E+01  0.00000000E+00
  1.23755293E+01  1.23755293E+01 -2.47510585E+01  0.00000000E+00  1.23755293E+01
  1.23755293E+01 -2.47510585E+01  0.00000000E+00  1.23755293E+01  1.23755293E+01
 -2.47510585E+01  0.00000000E+00  1.23755293E+01  1.23755293E+01 -2.47510585E+01
  0.00000000E+00  1.23755293E+01  1.23755293E+01 -2.47510585E+01  0.00000000E+00
  1.23755293E+01  1.23755293E+01 -2.47510585E+01  0.00000000E+00  1.23755293E+01
  1.23755293E+01 -2.47510585E+01  0.00000000E+00  1.23755293E+01  1.23755293E+01
 -2.47510585E+01  0.00000000E+00  1.23755293E+01  1.23755293E+01 -2.47510585E+01
  0.00000000E+00  1.23755293E+01  1.23755293E+01 -2.47510585E+01  0.00000000E+00
  1.23755293E+01  1.23755293E+01 -2.47510585E+01  0.00000000E+00  1.23755293E+01
  1.23755293E+01 -2.47510585E+01  0.00000000E+00  1.23755293E+01  1.23755293E+01
 -2.47510585E+01  0.00000000E+00  1.23755293E+01  1.23755293E+01 -2.47510585E+01
  0.00000000E+00  1.23755293E+01  1.23755293E+01 -2.47510585E+01  0.00000000E+00
  1.23755293E+01  1.23755293E+01 -2.47510585E+01  0.00000000E+00  1.23755293E+01
  1.23755293E+01 -2.47510585E+01  0.00000000E+00  1.23755293E+01  1.23755293E+01
 -2.47510585E+01  0.00000000E+00  1.23755293E+01  1.23755293E+01 -2.47510585E+01
  0.00000000E+00  1.23755293E+01  1.23755293E+01 -2.47510585E+01  0.00000000E+00
  1.23755293E+01  1.23755293E+01 -2.47510585E+01  0.00000000E+00  1.23755293E+01
  1.23755293E+01 -2.47510585E+01  0.00000000E+00  1.23755293E+01  1.23755293E+01
 -2.47510585E+01  0.00000000E+00  1.23755293E+01  1.23755293E+01 -2.47510585E+01
  0.00000000E+00  1.23755293E+01  1.23755293E+01 -2.47510585E+01  0.00000000E+00
  1.23755293E+01  1.23755293E+01 -2.47510585E+01  0.00000000E+00  1.23755293E+01
  1.23755293E+01 -2.47510585E+01  0.00000000E+00  1.23755293E+01  1.23755293E+01
 -2.47510585E+01  0.00000000E+00  1.23755293E+01  1.23755293E+01 -2.47510585E+01
  0.00000000E+00  1.23755293E+01  1.23755293E+01 -2.47510585E+01  0.00000000E+00
  1.23755293E+01  1.23755293E+01 -2.47510585E+01  0.00000000E+00  1.23755293E+01
  1.23755293E+01 -2.47510585E+01  0.00000000E+00  1.23755293E+01  1.23755293E+01
 -2.47510585E+01  0.00000000E+00  1.23755293E+01  1.23755293E+01 -2.47510585E+01
  0.00000000E+00  1.23755293E+01  1.23755293E+01 -2.47510585E+01  0.00000000E+00
  1.23755293E+01  1.23755293E+01 -2.47510585E+01  0.00000000E+00  1.23755293E+01
  1.23755293E+01 -2.47510585E+01  0.00000000E+00  1.23755293E+01  1.23755293E+01
 -2.47510585E+01  0.00000000E+00  1.23755293E+01  1.23755293E+01 -2.47510585E+01
  0.00000000E+00  1.23755293E+01  1.23755293E+01 -2.47510585E+01  0.00000000E+00
  1.23755293E+01  1.23755293E+01 -2.47510585E+01  0.00000000E+00  1.23755293E+01
  1.23755293E+01 -2.47510585E+01  0.00000000E+00  1.23755293E+01  1.23755293E+01
 -2.47510585E+01  0.00000000E+00  1.23755293E+01  1.23755293E+01 -2.47510585E+01
  0.00000000E+00  1.23755293E+01  1.23755293E+01 -2.47510585E+01  0.00000000E+00
  1.23755293E+01  1.23755293E+01 -2.47510585E+01  0.00000000E+00  1.23755293E+01
  1.23755293E+01 -2.47510585E+01  0.00000000E+00  1.23755293E+01  1.23755293E+01
 -2.47510585E+01  0.00000000E+00  1.23755293E+01  1.23755293E+01 -2.47510585E+01
  0.00000000E+00  1.23755293E+01  1.23755293E+01 -2.47510585E+01  0.00000000E+00
  1.23755293E+01  1.23755293E+01 -2.47510585E+01  0.00000000E+00  1.23755293E+01
  1.23755293E+01 -2.47510585E+01  0.00000000E+00  1.23755293E+01  1.23755293E+01
 -2.47510585E+01  0.00000000E+00  1.23755293E+01  1.23755293E+01 -2.47510585E+01
  0.00000000E+00  1.23755293E+01  1.23755293E+01 -2.47510585E+01  0.00000000E+00
  1.23755293E+01  1.23755293E+01 -2.47510585E+01  0.00000000E+00  1.23755293E+01
  1.23755293E+01 -2.47510585E+01  0.00000000E+00  1.23755293E+01  1.23755293E+01
 -2.47510585E+01  0.00000000E+00  1.23755293E+01  1.23755293E+01 -2.47510585E+01
  0.00000000E+00  1.23755293E+01  1.23755293E+01 -2.47510585E+01  0.00000000E+00
  1.23755293E+01  1.23755293E+01 -2.47510585E+01  0.00000000E+00  1.23755293E+01
  1.23755293E+01 -2.47510585E+01  0.00000000E+00  1.23755293E+01  1.23755293E+01
 -2.47510585E+01  0.00000000E+00  1.23755293E+01  1.23755293E+01 -2.47510585E+01
  0.00000000E+00  1.23755293E+01  1.23755293E+01 -2.47510585E+01  0.00000000E+00
  1.23755293E+01  1.23755293E+01 -2.47510585E+01  0.00000000E+00  1.23755293E+01
  1.23755293E+01 -2.47510585E+01  0.00000000E+00  1.23755293E+01  1.23755293E+01
 -2.47510585E+01  0.00000000E+00  1.23755293E+01  1.23755293E+01 -2.47510585E+01
  0.00000000E+00  1.23755293E+01  1.23755293E+01 -2.47510585E+01  0.00000000E+00
  1.23755293E+01  1.23755293E+01 -2.47510585E+01  0.00000000E+00  1.23755293E+01
  1.23755293E+01 -2.47510585E+01  0.00000000E+00  1.23755293E+01  1.23755293E+01
 -2.47510585E+01  0.00000000E+00  1.23755293E+01  1.23755293E+01 -2.47510585E+01
  0.00000000E+00  1.23755293E+01  1.23755293E+01 -2.47510585E+01  0.00000000E+00
  1.23755293E+01  1.23755293E+01 -2.47510585E+01  0.00000000E+00  1.23755293E+01
  1.23755293E+01 -2.47510585E+01  0.00000000E+00  1.23755293E+01  1.23755293E+01
 -2.47510585E+01  0.00000000E+00  1.23755293E+01  1.23755293E+01 -2.47510585E+01
  0.00000000E+00  1.23755293E+01  1.23755293E+01 -2.47510585E+01  0.00000000E+00
  1.23755293E+01  1.23755293E+01 -2.47510585E+01  0.00000000E+00  1.23755293E+01
  1.23755293E+01 -2.47510585E+01  0.00000000E+00  1.23755293E+01  1.23755293E+01
 -2.47510585E+01  0.00000000E+00  1.23755293E+01  1.23755293E+01 -2.47510585E+01
  0.00000000E+00  1.23755293E+01  1.23755293E+01 -2.47510585E+01  0.00000000E+00
  1.23755293E+01  1.23755293E+01 -2.47510585E+01  0.00000000E+00  1.23755293E+01
  1.23755293E+01 -2.47510585E+01  0.00000000E+00  1.23755293E+01  1.23755293E+01
 -2.47510585E+01  0.00000000E+00  1.23755293E+01  1.23755293E+01 -2.47510585E+01
  0.00000000E+00  1.23755293E+01  1.23755293E+01 -2.47510585E+01  0.00000000E+00
  1.23755293E+01  1.23755293E+01 -2.47510585E+01  0.00000000E+00  1.23755293E+01
  1.23755293E+01 -2.47510585E+01  0.00000000E+00  1.23755293E+01  1.23755293E+01
 -2.47510585E+01  0.00000000E+00  1.23755293E+01  1.23755293E+01 -2.47510585E+01
  0.00000000E+00  1.23755293E+01  1.23755293E+01 -2.47510585E+01  0.00000000E+00
  1.23755293E+01  1.23755293E+01 -2.47510585E+01  0.00000000E+00  1.23755293E+01
  1.23755293E+01 -2.47510585E+01  0.00000000E+00  1.23755293E+01  1.23755293E+01
 -2.47510585E+01  0.00000000E+00  1.23755293E+01  1.23755293E+01 -2.47510585E+01
  0.00000000E+00  1.23755293E+01  1.23755293E+01 -2.47510585E+01  0.00000000E+00
  1.23755293E+01  1.23755293E+01 -2.47510585E+01  0.00000000E+00  1.23755293E+01
  1.23755293E+01 -2.47510585E+01  0.00000000E+00  1.23755293E+01  1.23755293E+01
 -2.47510585E+01  0.00000000E+00  1.23755293E+01  1.23755293E+01 -2.47510585E+01
  0.00000000E+00  1.23755293E+01  1.23755293E+01 -2.47510585E+01  0.00000000E+00
  1.23755293E+01  1.23755293E+01 -2.47510585E+01  0.00000000E+00  1.23755293E+01
  1.23755293E+01 -2.47510585E+01  0.00000000E+00  1.23755293E+01  1.23755293E+01
 -2.47510585E+01  0.00000000E+00  1.23755293E+01  1.23755293E+01 -2.47510585E+01
  0.00000000E+00  1.23755293E+01  1.23755293E+01 -2.47510585E+01  0.00000000E+00
  1.23755293E+01  1.23755293E+01 -2.47510585E+01  0.00000000E+00  1.23755293E+01
  1.23755293E+01 -2.47510585E+01  0.00000000E+00  1.23755293E+01  1.23755293E+01
 -2.47510585E+01  0.00000000E+00  1.23755293E+01  1.23755293E+01 -2.47510585E+01
  0.00000000E+00  1.23755293E+01  1.23755293E+01 -2.47510585E+01  0.00000000E+00
  1.23755293E+01  1.23755293E+01 -2.47510585E+01  0.00000000E+00  1.23755293E+01
  1.23755293E+01 -2.47510585E+01  0.00000000E+00  1.23755293E+01  1.23755293E+01
 -2.47510585E+01  0.00000000E+00  1.23755293E+01  1.23755293E+01 -2.47510585E+01
  0.00000000E+00  1.23755293E+01  1.23755293E+01 -2.47510585E+01  0.00000000E+00
  1.23755293E+01  1.23755293E+01 -2.47510585E+01  0.00000000E+00  1.23755293E+01
  1.23755293E+01 -2.47510585E+01  0.00000000E+00  1.23755293E+01  1.23755293E+01
 -2.47510585E+01  0.00000000E+00  1.23755293E+01  1.23755293E+01 -2.47510585E+01
  0.00000000E+00  1.23755293E+01  1.23755293E+01 -2.47510585E+01  0.00000000E+00
  1.23755293E+01  1.23755293E+01 -2.47510585E+01  0.00000000E+00  1.23755293E+01
  1.23755293E+01 -2.47510585E+01  0.00000000E+00  1.23755293E+01  1.23755293E+01
 -2.47510585E+01  0.00000000E+00  1.23755293E+01  1.23755293E+01 -2.47510585E+01
  0.00000000E+00  1.23755293E+01  1.23755293E+01 -2.47510585E+01  0.00000000E+00
  1.23755293E+01  1.23755293E+01 -2.47510585E+01  0.00000000E+00  1.23755293E+01
  1.23755293E+01 -2.47510585E+01  0.00000000E+00  1.23755293E+01  1.23755293E+01
 -2.47510585E+01  0.00000000E+00  1.23755293E+01  1.23755293E+01 -2.47510585E+01
  0.00000000E+00  1.23755293E+01  1.23755293E+01 -2.47510585E+01  0.00000000E+00
  1.23755293E+01  1.23755293E+01 -2.47510585E+01  0.00000000E+00  1.23755293E+01
  1.23755293E+01 -2.47510585E+01  0.00000000E+00  1.23755293E+01  1.23755293E+01
 -2.47510585E+01  0.00000000E+00  1.23755293E+01  1.23755293E+01 -2.47510585E+01
  0.00000000E+00  1.23755293E+01  1.23755293E+01 -2.47510585E+01  0.00000000E+00
  1.23755293E+01  1.23755293E+01 -2.47510585E+01  0.00000000E+00  1.23755293E+01
  1.23755293E+01 -2.47510585E+01  0.00000000E+00  1.23755293E+01  1.23755293E+01
 -2.47510585E+01  0.00000000E+00  1.23755293E+01  1.23755293E+01 -2.47510585E+01
  0.00000000E+00  1.23755293E+01  1.23755293E+01 -2.47510585E+01  0.00000000E+00
  1.23755293E+01  1.23755293E+01 -2.47510585E+01  0.00000000E+00  1.23755293E+01
  1.23755293E+01 -2.47510585E+01  0.00000000E+00  1.23755293E+01  1.23755293E+01
 -2.47510585E+01  0.00000000E+00  1.23755293E+01  1.23755293E+01 -2.47510585E+01
  0.00000000E+00  1.23755293E+01  1.23755293E+01 -2.47510585E+01  0.00000000E+00
  1.23755293E+01  1.23755293E+01 -2.47510585E+01  0.00000000E+00  1.23755293E+01
  1.23755293E+01 -2.47510585E+01  0.00000000E+00  1.23755293E+01  1.23755293E+01
 -2.47510585E+01  0.00000000E+00  1.23755293E+01  1.23755293E+01 -2.47510585E+01
  0.00000000E+00  1.23755293E+01  1.23755293E+01 -2.47510585E+01  0.00000000E+00
  1.23755293E+01  1.23755293E+01 -2.47510585E+01  0.00000000E+00  1.23755293E+01
  1.23755293E+01 -2.47510585E+01  0.00000000E+00  1.23755293E+01  1.23755293E+01
 -2.47510585E+01  0.00000000E+00  1.23755293E+01  1.23755293E+01 -2.47510585E+01
  0.00000000E+00  1.23755293E+01  1.23755293E+01 -2.47510585E+01  0.00000000E+00
  1.23755293E+01  1.23755293E+01 -2.47510585E+01  0.00000000E+00  1.23755293E+01
  1.23755293E+01 -2.47510585E+01  0.00000000E+00  1.23755293E+01  1.23755293E+01
 -2.47510585E+01  0.00000000E+00  1.23755293E+01  1.23755293E+01 -2.47510585E+01
  0.00000000E+00  1.23755293E+01  1.23755293E+01 -2.47510585E+01  0.00000000E+00
  1.23755293E+01  1.23755293E+01 -2.47510585E+01  0.00000000E+00  1.23755293E+01
  1.23755293E+01 -2.47510585E+01  0.00000000E+00  1.23755293E+01  1.23755293E+01
 -2.47510585E+01  0.00000000E+00  1.23755293E+01  1.23755293E+01 -2.47510585E+01
  0.00000000E+00  1.23755293E+01  1.23755293E+01 -2.47510585E+01  0.00000000E+00
  1.23755293E+01  1.23755293E+01 -2.47510585E+01  0.00000000E+00  1.23755293E+01
  1.23755293E+01 -2.47510585E+01  0.00000000E+00  1.23755293E+01  1.23755293E+01
 -2.47510585E+01  0.00000000E+00  1.23755293E+01  1.23755293E+01 -2.47510585E+01
  0.00000000E+00  1.23755293E+01  1.23755293E+01 -2.47510585E+01  0.00000000E+00
  1.23755293E+01  1.23755293E+01 -2.47510585E+01  0.00000000E+00  1.23755293E+01
  1.23755293E+01 -2.47510585E+01  0.00000000E+00  1.23755293E+01  1.23755293E+01
 -2.47510585E+01  0.00000000E+00  1.23755293E+01  1.23755293E+01 -2.47510585E+01
  0.00000000E+00  1.23755293E+01  1.23755293E+01 -2.47510585E+01  0.00000000E+00
  1.23755293E+01  1.23755293E+01 -2.47510585E+01  0.00000000E+00  1.23755293E+01
  1.23755293E+01 -2.47510585E+01  0.00000000E+00  1.23755293E+01  1.23755293E+01
 -2.47510585E+01  0.00000000E+00  1.23755293E+01  1.23755293E+01 -2.47510585E+01
  0.00000000E+00  1.23755293E+01  1.23755293E+01 -2.47510585E+01  0.00000000E+00
  1.23755293E+01  1.23755293E+01 -2.47510585E+01  0.00000000E+00  1.23755293E+01
  1.23755293E+01 -2.47510585E+01  0.00000000E+00  1.23755293E+01  1.23755293E+01
 -2.47510585E+01  0.00000000E+00  1.23755293E+01  1.23755293E+01 -2.47510585E+01
  0.00000000E+00  1.23755293E+01  1.23755293E+01 -2.47510585E+01  0.00000000E+00
  1.23755293E+01  1.23755293E+01 -2.47510585E+01  0.00000000E+00  1.23755293E+01
  1.23755293E+01 -2.47510585E+01  0.00000000E+00  1.23755293E+01  1.23755293E+01
 -2.47510585E+01  0.00000000E+00  1.23755293E+01  1.23755293E+01 -2.47510585E+01
  0.00000000E+00  1.23755293E+01  1.23755293E+01 -2.47510585E+01  0.00000000E+00
  1.23755293E+01  1.23755293E+01 -2.47510585E+01  0.00000000E+00  1.23755293E+01
  1.23755293E+01 -2.47510585E+01  0.00000000E+00  1.23755293E+01  1.23755293E+01
 -2.47510585E+01  0.00000000E+00  1.23755293E+01  1.23755293E+01 -2.47510585E+01
  0.00000000E+00  1.23755293E+01  1.23755293E+01 -2.47510585E+01  0.00000000E+00
  1.23755293E+01  1.23755293E+01 -2.47510585E+01  0.00000000E+00  1.23755293E+01
  1.23755293E+01 -2.47510585E+01  0.00000000E+00  1.23755293E+01  1.23755293E+01
 -2.47510585E+01  0.00000000E+00  1.23755293E+01  1.23755293E+01 -2.47510585E+01
  0.00000000E+00  1.23755293E+01  1.23755293E+01 -2.47510585E+01  0.00000000E+00
  1.23755293E+01  1.23755293E+01 -2.47510585E+01  0.00000000E+00  1.23755293E+01
  1.23755293E+01 -2.47510585E+01  0.00000000E+00  1.23755293E+01  1.23755293E+01
 -2.47510585E+01  0.00000000E+00  1.23755293E+01  1.23755293E+01 -2.47510585E+01
  0.00000000E+00  1.23755293E+01  1.23755293E+01 -2.47510585E+01  0.00000000E+00
  1.23755293E+01  1.23755293E+01 -2.47510585E+01  0.00000000E+00  1.23755293E+01
  1.23755293E+01 -2.47510585E+01  0.00000000E+00  1.23755293E+01  1.23755293E+01
 -2.47510585E+01  0.00000000E+00  1.23755293E+01  1.23755293E+01 -2.47510585E+01
  0.00000000E+00  1.23755293E+01  1.23755293E+01 -2.47510585E+01  0.00000000E+00
  1.23755293E+01  1.23755293E+01 -2.47510585E+01  0.00000000E+00  1.23755293E+01
  1.23755293E+01 -2.47510585E+01  0.00000000E+00  1.23755293E+01  1.23755293E+01
 -2.47510585E+01  0.00000000E+00  1.23755293E+01  1.23755293E+01 -2.47510585E+01
  0.00000000E+00  1.23755293E+01  1.23755293E+01 -2.47510585E+01  0.00000000E+00
  1.23755293E+01  1.23755293E+01 -2.47510585E+01  0.00000000E+00  1.23755293E+01
  1.23755293E+01 -2.47510585E+01  0.00000000E+00  1.23755293E+01  1.23755293E+01
 -2.47510585E+01  0.00000000E+00  1.23755293E+01  1.23755293E+01 -2.47510585E+01
  0.00000000E+00  1.23755293E+01  1.23755293E+01 -2.47510585E+01  0.00000000E+00
  1.23755293E+01  1.23755293E+01 -2.47510585E+01  0.00000000E+00  1.23755293E+01
  1.23755293E+01 -2.47510585E+01  0.00000000E+00  1.23755293E+01  1.23755293E+01
 -2.47510585E+01  0.00000000E+00  1.23755293E+01  1.23755293E+01 -2.47510585E+01
  0.00000000E+00  1.23755293E+01  1.23755293E+01 -2.47510585E+01  0.00000000E+00
  1.23755293E+01  1.23755293E+01 -2.47510585E+01  0.00000000E+00  1.23755293E+01
  1.23755293E+01 -2.47510585E+01  0.00000000E+00  1.23755293E+01  1.23755293E+01
 -2.47510585E+01  0.00000000E+00  1.23755293E+01  1.23755293E+01 -2.47510585E+01
  0.00000000E+00  1.23755293E+01  1.23755293E+01 -2.47510585E+01  0.00000000E+00
  1.23755293E+01  1.23755293E+01 -2.47510585E+01  0.00000000E+00  1.23755293E+01
  1.23755293E+01 -2.47510585E+01  0.00000000E+00  1.23755293E+01  1.23755293E+01
 -2.47510585E+01  0.00000000E+00  1.23755293E+01  1.23755293E+01 -2.47510585E+01
  0.00000000E+00  1.23755293E+01  1.23755293E+01 -2.47510585E+01  0.00000000E+00
  1.23755293E+01  1.23755293E+01 -2.47510585E+01  0.00000000E+00  1.23755293E+01
  1.23755293E+01 -2.47510585E+01  0.00000000E+00  1.23755293E+01  1.23755293E+01
 -2.47510585E+01  0.00000000E+00  1.23755293E+01  1.23755293E+01 -2.47510585E+01
  0.00000000E+00  1.23755293E+01  1.23755293E+01 -2.47510585E+01  0.00000000E+00
  1.23755293E+01  1.23755293E+01 -2.47510585E+01  0.00000000E+00  1.23755293E+01
  1.23755293E+01 -2.47510585E+01  0.00000000E+00  1.23755293E+01  1.23755293E+01
 -2.47510585E+01  0.00000000E+00  1.23755293E+01  1.23755293E+01 -2.47510585E+01
  0.00000000E+00  1.23755293E+01  1.23755293E+01 -2.47510585E+01  0.00000000E+00
  1.23755293E+01  1.23755293E+01 -2.47510585E+01  0.00000000E+00  1.23755293E+01
  1.23755293E+01 -2.47510585E+01  0.00000000E+00  1.23755293E+01  1.23755293E+01
 -2.47510585E+01  0.00000000E+00  1.23755293E+01  1.23755293E+01 -2.47510585E+01
  0.00000000E+00  1.23755293E+01  1.23755293E+01 -2.47510585E+01  0.00000000E+00
  1.23755293E+01  1.23755293E+01 -2.47510585E+01  0.00000000E+00  1.23755293E+01
  1.23755293E+01 -2.47510585E+01  0.00000000E+00  1.23755293E+01  1.23755293E+01
 -2.47510585E+01  0.00000000E+00  1.23755293E+01  1.23755293E+01 -2.47510585E+01
  0.00000000E+00  1.23755293E+01  1.23755293E+01 -2.47510585E+01  0.00000000E+00
  1.23755293E+01  1.23755293E+01 -2.47510585E+01  0.00000000E+00  1.23755293E+01
  1.23755293E+01 -2.47510585E+01  0.00000000E+00  1.23755293E+01  1.23755293E+01
 -2.47510585E+01  0.00000000E+00  1.23755293E+01  1.23755293E+01 -2.47510585E+01
  0.00000000E+00  1.23755293E+01  1.23755293E+01 -2.47510585E+01  0.00000000E+00
  1.23755293E+01  1.23755293E+01 -2.47510585E+01  0.00000000E+00  1.23755293E+01
  1.23755293E+01 -2.47510585E+01  0.00000000E+00  1.23755293E+01  1.23755293E+01
 -2.47510585E+01  0.00000000E+00  1.23755293E+01  1.23755293E+01 -2.47510585E+01
  0.00000000E+00  1.23755293E+01  1.23755293E+01 -2.47510585E+01  0.00000000E+00
  1.23755293E+01  1.23755293E+01 -2.47510585E+01  0.00000000E+00  1.23755293E+01
  1.23755293E+01 -2.47510585E+01  0.00000000E+00  1.23755293E+01  1.23755293E+01
 -2.47510585E+01  0.00000000E+00  1.23755293E+01  1.23755293E+01 -2.47510585E+01
  0.00000000E+00  1.23755293E+01  1.23755293E+01 -2.47510585E+01  0.00000000E+00
  1.23755293E+01  1.23755293E+01 -2.47510585E+01  0.00000000E+00  1.23755293E+01
  1.23755293E+01 -2.47510585E+01  0.00000000E+00  1.23755293E+01  1.23755293E+01
 -2.47510585E+01  0.00000000E+00  1.23755293E+01  1.23755293E+01 -2.47510585E+01
  0.00000000E+00  1.23755293E+01  1.23755293E+01 -2.47510585E+01  0.00000000E+00
  1.23755293E+01  1.23755293E+01 -2.47510585E+01  0.00000000E+00  1.23755293E+01
  1.23755293E+01 -2.47510585E+01  0.00000000E+00  1.23755293E+01  1.23755293E+01
 -2.47510585E+01  0.00000000E+00  1.23755293E+01  1.23755293E+01 -2.47510585E+01
  0.00000000E+00  1.23755293E+01  1.23755293E+01 -2.47510585E+01  0.00000000E+00
  1.23755293E+01  1.23755293E+01 -2.47510585E+01  0.00000000E+00  1.23755293E+01
  1.23755293E+01 -2.47510585E+01  0.00000000E+00  1.23755293E+01  1.23755293E+01
 -2.47510585E+01  0.00000000E+00  1.23755293E+01  1.23755293E+01 -2.47510585E+01
  0.00000000E+00  1.23755293E+01  1.23755293E+01 -2.47510585E+01  0.00000000E+00
  1.23755293E+01  1.23755293E+01 -2.47510585E+01  0.00000000E+00  1.23755293E+01
  1.23755293E+01 -2.47510585E+01  0.00000000E+00  1.23755293E+01  1.23755293E+01
 -2.47510585E+01  0.00000000E+00  1.23755293E+01  1.23755293E+01 -2.47510585E+01
  0.00000000E+00  1.23755293E+01  1.23755293E+01 -2.47510585E+01  0.00000000E+00
  1.23755293E+01  1.23755293E+01 -2.47510585E+01  0.00000000E+00  1.23755293E+01
  1.23755293E+01 -2.47510585E+01  0.00000000E+00  1.23755293E+01  1.23755293E+01
 -2.47510585E+01  0.00000000E+00  1.23755293E+01  1.23755293E+01 -2.47510585E+01
  0.00000000E+00  1.23755293E+01  1.23755293E+01 -2.47510585E+01  0.00000000E+00
  1.23755293E+01  1.23755293E+01 -2.47510585E+01  0.00000000E+00  1.23755293E+01
  1.23755293E+01 -2.47510585E+01  0.00000000E+00  1.23755293E+01  1.23755293E+01
 -2.47510585E+01  0.00000000E+00  1.23755293E+01  1.23755293E+01 -2.47510585E+01
  0.00000000E+00  1.23755293E+01  1.23755293E+01 -2.47510585E+01  0.00000000E+00
  1.23755293E+01  1.23755293E+01 -2.47510585E+01  0.00000000E+00  1.23755293E+01
  1.23755293E+01 -2.47510585E+01  0.00000000E+00  1.23755293E+01  1.23755293E+01
 -2.47510585E+01  0.00000000E+00  1.23755293E+01  1.23755293E+01 -2.47510585E+01
  0.00000000E+00  1.23755293E+01  1.23755293E+01 -2.47510585E+01  0.00000000E+00
  1.23755293E+01  1.23755293E+01 -2.47510585E+01  0.00000000E+00  1.23755293E+01
  1.23755293E+01 -2.47510585E+01  0.00000000E+00  1.23755293E+01  1.23755293E+01
 -2.47510585E+01  0.00000000E+00  1.23755293E+01  1.23755293E+01 -2.47510585E+01
  0.00000000E+00  1.23755293E+01  1.23755293E+01 -2.47510585E+01  0.00000000E+00
  1.23755293E+01  1.23755293E+01 -2.47510585E+01  0.00000000E+00  1.23755293E+01
  1.23755293E+01 -2.47510585E+01  0.00000000E+00  1.23755293E+01  1.23755293E+01
 -2.47510585E+01  0.00000000E+00  1.23755293E+01  1.23755293E+01 -2.47510585E+01
  0.00000000E+00  1.23755293E+01  1.23755293E+01 -2.47510585E+01  0.00000000E+00
  1.23755293E+01  1.23755293E+01 -2.47510585E+01  0.00000000E+00  1.23755293E+01
  1.23755293E+01 -2.47510585E+01  0.00000000E+00  1.23755293E+01  1.23755293E+01
 -2.47510585E+01  0.00000000E+00  1.23755293E+01  1.23755293E+01 -2.47510585E+01
  0.00000000E+00  1.23755293E+01  1.23755293E+01 -2.47510585E+01  0.00000000E+00
  1.23755293E+01  1.23755293E+01 -2.47510585E+01  0.00000000E+00  1.23755293E+01
  1.23755293E+01 -2.47510585E+01  0.00000000E+00  1.23755293E+01  1.23755293E+01
 -2.47510585E+01  0.00000000E+00  1.23755293E+01  1.23755293E+01 -2.47510585E+01
  0.00000000E+00  1.23755293E+01  1.23755293E+01 -2.47510585E+01  0.00000000E+00
  1.23755293E+01  1.23755293E+01 -2.47510585E+01  0.00000000E+00  1.23755293E+01
  1.23755293E+01 -2.47510585E+01  0.00000000E+00  1.23755293E+01  1.23755293E+01
 -2.47510585E+01  0.00000000E+00  1.23755293E+01  1.23755293E+01 -2.47510585E+01
  0.00000000E+00  1.23755293E+01  1.23755293E+01 -2.47510585E+01  0.00000000E+00
  1.23755293E+01  1.23755293E+01 -2.47510585E+01  0.00000000E+00  1.23755293E+01
  1.23755293E+01 -2.47510585E+01  0.00000000E+00  1.23755293E+01  1.23755293E+01
 -2.47510585E+01  0.00000000E+00  1.23755293E+01  1.23755293E+01 -2.47510585E+01
  0.00000000E+00  1.23755293E+01  1.23755293E+01 -2.47510585E+01  0.00000000E+00
  1.23755293E+01  1.23755293E+01 -2.47510585E+01  0.00000000E+00  1.23755293E+01
  1.23755293E+01 -2.47510585E+01  0.00000000E+00  1.23755293E+01  1.23755293E+01
 -2.47510585E+01  0.00000000E+00  1.23755293E+01  1.23755293E+01 -2.47510585E+01
  0.00000000E+00  1.23755293E+01  1.23755293E+01 -2.47510585E+01  0.00000000E+00
  1.23755293E+01  1.23755293E+01 -2.47510585E+01  0.00000000E+00  1.23755293E+01
  1.23755293E+01 -2.47510585E+01  0.00000000E+00  1.23755293E+01  1.23755293E+01
 -2.47510585E+01  0.00000000E+00  1.23755293E+01  1.23755293E+01 -2.47510585E+01
  0.00000000E+00  1.23755293E+01  1.23755293E+01 -2.47510585E+01  0.00000000E+00
  1.23755293E+01  1.23755293E+01 -2.47510585E+01  0.00000000E+00  1.23755293E+01
  1.23755293E+01 -2.47510585E+01  0.00000000E+00  1.23755293E+01  1.23755293E+01
 -2.47510585E+01  0.00000000E+00  1.23755293E+01  1.23755293E+01 -2.47510585E+01
  0.00000000E+00  1.23755293E+01  1.23755293E+01 -2.47510585E+01  0.00000000E+00
  1.23755293E+01  1.23755293E+01 -2.47510585E+01  0.00000000E+00  1.23755293E+01
  1.23755293E+01 -2.47510585E+01  0.00000000E+00  1.23755293E+01  1.23755293E+01
 -2.47510585E+01  0.00000000E+00  1.23755293E+01  1.23755293E+01 -2.47510585E+01
  0.00000000E+00  1.23755293E+01  1.23755293E+01 -2.47510585E+01  0.00000000E+00
  1.23755293E+01  1.23755293E+01 -2.47510585E+01  0.00000000E+00  1.23755293E+01
  1.23755293E+01 -2.47510585E+01  0.00000000E+00  1.23755293E+01  1.23755293E+01
 -2.47510585E+01  0.00000000E+00  1.23755293E+01  1.23755293E+01 -2.47510585E+01
  0.00000000E+00  1.23755293E+01  1.23755293E+01 -2.47510585E+01  0.00000000E+00
  1.23755293E+01  1.23755293E+01 -2.47510585E+01  0.00000000E+00  1.23755293E+01
  1.23755293E+01 -2.47510585E+01  0.00000000E+00  1.23755293E+01  1.23755293E+01
 -2.47510585E+01  0.00000000E+00  1.23755293E+01  1.23755293E+01 -2.47510585E+01
  0.00000000E+00  1.23755293E+01  1.23755293E+01 -2.47510585E+01  0.00000000E+00
  1.23755293E+01  1.23755293E+01 -2.47510585E+01  0.00000000E+00  1.23755293E+01
  1.23755293E+01 -2.47510585E+01  0.00000000E+00  1.23755293E+01  1.23755293E+01
 -2.47510585E+01  0.00000000E+00  1.23755293E+01  1.23755293E+01 -2.47510585E+01
  0.00000000E+00  1.23755293E+01  1.23755293E+01 -2.47510585E+01  0.00000000E+00
  1.23755293E+01  1.23755293E+01 -2.47510585E+01  0.00000000E+00  1.23755293E+01
  1.23755293E+01 -2.47510585E+01  0.00000000E+00  1.23755293E+01  1.23755293E+01
 -2.47510585E+01  0.00000000E+00  1.23755293E+01  1.23755293E+01 -2.47510585E+01
  0.00000000E+00  1.23755293E+01  1.23755293E+01 -2.47510585E+01  0.00000000E+00
  1.23755293E+01  1.23755293E+01 -2.47510585E+01  0.00000000E+00  1.23755293E+01
  1.23755293E+01 -2.47510585E+01  0.00000000E+00  1.23755293E+01  1.23755293E+01
 -2.47510585E+01  0.00000000E+00  1.23755293E+01  1.23755293E+01 -2.47510585E+01
  0.00000000E+00  1.23755293E+01  1.23755293E+01 -2.47510585E+01  0.00000000E+00
  1.23755293E+01  1.23755293E+01 -2.47510585E+01  0.00000000E+00  1.23755293E+01
  1.23755293E+01 -2.47510585E+01  0.00000000E+00  1.23755293E+01  1.23755293E+01
 -2.47510585E+01  0.00000000E+00  1.23755293E+01  1.23755293E+01 -2.47510585E+01
  0.00000000E+00  1.23755293E+01  1.23755293E+01 -2.47510585E+01  0.00000000E+00
  1.23755293E+01  1.23755293E+01 -2.47510585E+01  0.00000000E+00  1.23755293E+01
  1.23755293E+01 -2.47510585E+01  0.00000000E+00  1.23755293E+01  1.23755293E+01
 -2.47510585E+01  0.00000000E+00  1.23755293E+01  1.23755293E+01 -2.47510585E+01
  0.00000000E+00  1.23755293E+01  1.23755293E+01 -2.47510585E+01  0.00000000E+00
  1.23755293E+01  1.23755293E+01 -2.47510585E+01  0.00000000E+00  1.23755293E+01
  1.23755293E+01 -2.47510585E+01  0.00000000E+00  1.23755293E+01  1.23755293E+01
 -2.47510585E+01  0.00000000E+00  1.23755293E+01  1.23755293E+01 -2.47510585E+01
  0.00000000E+00  1.23755293E+01  1.23755293E+01 -2.47510585E+01  0.00000000E+00
  1.23755293E+01  1.23755293E+01 -2.47510585E+01  0.00000000E+00  1.23755293E+01
  1.23755293E+01 -2.47510585E+01  0.00000000E+00  1.23755293E+01  1.23755293E+01
 -2.47510585E+01  0.00000000E+00  1.23755293E+01  1.23755293E+01 -2.47510585E+01
  0.00000000E+00  1.23755293E+01  1.23755293E+01 -2.47510585E+01  0.00000000E+00
  1.23755293E+01  1.23755293E+01 -2.47510585E+01  0.00000000E+00  1.23755293E+01
  1.23755293E+01 -2.47510585E+01  0.00000000E+00  1.23755293E+01  1.23755293E+01
 -2.47510585E+01  0.00000000E+00  1.23755293E+01  1.23755293E+01 -2.47510585E+01
  0.00000000E+00  1.23755293E+01  1.23755293E+01 -2.47510585E+01  0.00000000E+00
  1.23755293E+01  1.23755293E+01 -2.47510585E+01  0.00000000E+00  1.23755293E+01
  1.23755293E+01 -2.47510585E+01  0.00000000E+00  1.23755293E+01  1.23755293E+01
 -2.47510585E+01  0.00000000E+00  1.23755293E+01  1.23755293E+01 -2.47510585E+01
  0.00000000E+00  1.23755293E+01  1.23755293E+01 -2.47510585E+01  0.00000000E+00
  1.23755293E+01  1.23755293E+01 -2.47510585E+01  0.00000000E+00  1.23755293E+01
  1.23755293E+01 -2.47510585E+01  0.00000000E+00  1.23755293E+01  1.23755293E+01
 -2.47510585E+01  0.00000000E+00  1.23755293E+01  1.23755293E+01 -2.47510585E+01
  0.00000000E+00  1.23755293E+01  1.23755293E+01 -2.47510585E+01  0.00000000E+00
  1.23755293E+01  1.23755293E+01 -2.47510585E+01  0.00000000E+00  1.23755293E+01
  1.23755293E+01 -2.47510585E+01  0.00000000E+00  1.23755293E+01  1.23755293E+01
 -2.47510585E+01  0.00000000E+00  1.23755293E+01  1.23755293E+01 -2.47510585E+01
  0.00000000E+00  1.23755293E+01  1.23755293E+01 -2.47510585E+01  0.00000000E+00
  1.23755293E+01  1.23755293E+01 -2.47510585E+01  0.00000000E+00  1.23755293E+01
  1.23755293E+01 -2.47510585E+01  0.00000000E+00  1.23755293E+01  1.23755293E+01
 -2.47510585E+01  0.00000000E+00  1.23755293E+01  1.23755293E+01 -2.47510585E+01
  0.00000000E+00  1.23755293E+01  1.23755293E+01 -2.47510585E+01  0.00000000E+00
  1.23755293E+01  1.23755293E+01 -2.47510585E+01  0.00000000E+00  1.23755293E+01
  1.23755293E+01 -2.47510585E+01  0.00000000E+00  1.23755293E+01  1.23755293E+01
 -2.47510585E+01  0.00000000E+00  1.23755293E+01  1.23755293E+01 -2.47510585E+01
  0.00000000E+00  1.23755293E+01  1.23755293E+01 -2.47510585E+01  0.00000000E+00
  1.23755293E+01  1.23755293E+01 -2.47510585E+01  0.00000000E+00  1.23755293E+01
  1.23755293E+01 -2.47510585E+01  0.00000000E+00  1.23755293E+01  1.23755293E+01
 -2.47510585E+01  0.00000000E+00  1.23755293E+01  1.23755293E+01 -2.47510585E+01
  0.00000000E+00  1.23755293E+01  1.23755293E+01 -2.47510585E+01  0.00000000E+00
  1.23755293E+01  1.23755293E+01 -2.47510585E+01  0.00000000E+00  1.23755293E+01
  1.23755293E+01 -2.47510585E+01  0.00000000E+00  1.23755293E+01  1.23755293E+01
 -2.47510585E+01  0.00000000E+00  1.23755293E+01  1.23755293E+01 -2.47510585E+01
  0.00000000E+00  1.23755293E+01  1.23755293E+01 -2.47510585E+01  0.00000000E+00
  1.23755293E+01  1.23755293E+01 -2.47510585E+01  0.00000000E+00  1.23755293E+01
  1.23755293E+01 -2.47510585E+01  0.00000000E+00  1.23755293E+01  1.23755293E+01
 -2.47510585E+01  0.00000000E+00  1.23755293E+01  1.23755293E+01 -2.47510585E+01
  0.00000000E+00  1.23755293E+01  1.23755293E+01 -2.47510585E+01  0.00000000E+00
  1.23755293E+01  1.23755293E+01 -2.47510585E+01  0.00000000E+00  1.23755293E+01
  1.23755293E+01 -2.47510585E+01  0.00000000E+00  1.23755293E+01  1.23755293E+01
 -2.47510585E+01  0.00000000E+00  1.23755293E+01  1.23755293E+01 -2.47510585E+01
  0.00000000E+00  1.23755293E+01  1.23755293E+01 -2.47510585E+01  0.00000000E+00
  1.23755293E+01  1.23755293E+01 -2.47510585E+01  0.00000000E+00  1.23755293E+01
  1.23755293E+01 -2.47510585E+01  0.00000000E+00  1.23755293E+01  1.23755293E+01
 -2.47510585E+01  0.00000000E+00  1.23755293E+01  1.23755293E+01 -2.47510585E+01
  0.00000000E+00  1.23755293E+01  1.23755293E+01 -2.47510585E+01  0.00000000E+00
  1.23755293E+01  1.23755293E+01 -2.47510585E+01  0.00000000E+00  1.23755293E+01
  1.23755293E+01 -2.47510585E+01  0.00000000E+00  1.23755293E+01  1.23755293E+01
 -2.47510585E+01  0.00000000E+00  1.23755293E+01  1.23755293E+01 -2.47510585E+01
  0.00000000E+00  1.23755293E+01  1.23755293E+01 -2.47510585E+01  0.00000000E+00
  1.23755293E+01  1.23755293E+01 -2.47510585E+01  0.00000000E+00  1.23755293E+01
  1.23755293E+01 -2.47510585E+01  0.00000000E+00  1.23755293E+01  1.23755293E+01
 -2.47510585E+01  0.00000000E+00  1.23755293E+01  1.23755293E+01 -2.47510585E+01
  0.00000000E+00  1.23755293E+01  1.23755293E+01 -2.47510585E+01  0.00000000E+00
  1.23755293E+01  1.23755293E+01 -2.47510585E+01  0.00000000E+00  1.23755293E+01
  1.23755293E+01 -2.47510585E+01  0.00000000E+00  1.23755293E+01  1.23755293E+01
 -2.47510585E+01  0.00000000E+00  1.23755293E+01  1.23755293E+01 -2.47510585E+01
  0.00000000E+00  1.23755293E+01  1.23755293E+01 -2.47510585E+01  0.00000000E+00
  1.23755293E+01  1.23755293E+01 -2.47510585E+01  0.00000000E+00  1.23755293E+01
  1.23755293E+01 -2.47510585E+01  0.00000000E+00  1.23755293E+01  1.23755293E+01
 -2.47510585E+01  0.00000000E+00  1.23755293E+01  1.23755293E+01 -2.47510585E+01
  0.00000000E+00  1.23755293E+01  1.23755293E+01 -2.47510585E+01  0.00000000E+00
  1.23755293E+01  1.23755293E+01 -2.47510585E+01  0.00000000E+00  1.23755293E+01
  1.23755293E+01 -2.47510585E+01  0.00000000E+00  1.23755293E+01  1.23755293E+01
 -2.47510585E+01  0.00000000E+00  1.23755293E+01  1.23755293E+01 -2.47510585E+01
  0.00000000E+00  1.23755293E+01  1.23755293E+01 -2.47510585E+01  0.00000000E+00
  1.23755293E+01  1.23755293E+01 -2.47510585E+01  0.00000000E+00  1.23755293E+01
  1.23755293E+01 -2.47510585E+01  0.00000000E+00  1.23755293E+01  1.23755293E+01
 -2.47510585E+01  0.00000000E+00  1.23755293E+01  1.23755293E+01 -2.47510585E+01
  0.00000000E+00  1.23755293E+01  1.23755293E+01 -2.47510585E+01  0.00000000E+00
  1.23755293E+01  1.23755293E+01 -2.47510585E+01  0.00000000E+00  1.23755293E+01
  1.23755293E+01 -2.47510585E+01  0.00000000E+00  1.23755293E+01  1.23755293E+01
 -2.47510585E+01  0.00000000E+00  1.23755293E+01  1.23755293E+01 -2.47510585E+01
  0.00000000E+00  1.23755293E+01  1.23755293E+01 -2.47510585E+01  0.00000000E+00
  1.23755293E+01  1.23755293E+01 -2.47510585E+01  0.00000000E+00  1.23755293E+01
  1.23755293E+01 -2.47510585E+01  0.00000000E+00  1.23755293E+01  1.23755293E+01
 -2.47510585E+01  0.00000000E+00  1.23755293E+01  1.23755293E+01 -2.47510585E+01
  0.00000000E+00  1.23755293E+01  1.23755293E+01 -2.47510585E+01  0.00000000E+00
  1.23755293E+01  1.23755293E+01 -2.47510585E+01  0.00000000E+00  1.23755293E+01
  1.23755293E+01 -2.47510585E+01  0.00000000E+00  1.23755293E+01  1.23755293E+01
 -2.47510585E+01  0.00000000E+00  1.23755293E+01  1.23755293E+01 -2.47510585E+01
  0.00000000E+00  1.23755293E+01  1.23755293E+01 -2.47510585E+01  0.00000000E+00
  1.23755293E+01  1.23755293E+01 -2.47510585E+01  0.00000000E+00  1.23755293E+01
  1.23755293E+01 -2.47510585E+01  0.00000000E+00  1.23755293E+01  1.23755293E+01
 -2.47510585E+01  0.00000000E+00  1.23755293E+01  1.23755293E+01 -2.47510585E+01
  0.00000000E+00  1.23755293E+01  1.23755293E+01 -2.47510585E+01  0.00000000E+00
  1.23755293E+01  1.23755293E+01 -2.47510585E+01  0.00000000E+00  1.23755293E+01
  1.23755293E+01 -2.47510585E+01  0.00000000E+00  1.23755293E+01  1.23755293E+01
 -2.47510585E+01  0.00000000E+00  1.23755293E+01  1.23755293E+01 -2.47510585E+01
  0.00000000E+00  1.23755293E+01  1.23755293E+01 -2.47510585E+01  0.00000000E+00
  1.23755293E+01  1.23755293E+01 -2.47510585E+01  0.00000000E+00  1.23755293E+01
  1.23755293E+01 -2.47510585E+01  0.00000000E+00  1.23755293E+01  1.23755293E+01
 -2.47510585E+01  0.00000000E+00  1.23755293E+01  1.23755293E+01 -2.47510585E+01
  0.00000000E+00  1.23755293E+01  1.23755293E+01 -2.47510585E+01  0.00000000E+00
  1.23755293E+01  1.23755293E+01 -2.47510585E+01  0.00000000E+00  1.23755293E+01
  1.23755293E+01 -2.47510585E+01  0.00000000E+00  1.23755293E+01  1.23755293E+01
 -2.47510585E+01  0.00000000E+00  1.23755293E+01  1.23755293E+01 -2.47510585E+01
  0.00000000E+00  1.23755293E+01  1.23755293E+01 -2.47510585E+01  0.00000000E+00
  1.23755293E+01  1.23755293E+01 -2.47510585E+01  0.00000000E+00  1.23755293E+01
  1.23755293E+01 -2.47510585E+01  0.00000000E+00  1.23755293E+01  1.23755293E+01
 -2.47510585E+01  0.00000000E+00  1.23755293E+01  1.23755293E+01 -2.47510585E+01
  0.00000000E+00  1.23755293E+01  1.23755293E+01 -2.47510585E+01  0.00000000E+00
  1.23755293E+01  1.23755293E+01 -2.47510585E+01  0.00000000E+00  1.23755293E+01
  1.23755293E+01 -2.47510585E+01  0.00000000E+00  1.23755293E+01  1.23755293E+01
 -2.47510585E+01  0.00000000E+00  1.23755293E+01  1.23755293E+01 -2.47510585E+01
  0.00000000E+00  1.23755293E+01  1.23755293E+01 -2.47510585E+01  0.00000000E+00
  1.23755293E+01  1.23755293E+01 -2.47510585E+01  0.00000000E+00  1.23755293E+01
  1.23755293E+01 -2.47510585E+01  0.00000000E+00  1.23755293E+01  1.23755293E+01
 -2.47510585E+01  0.00000000E+00  1.23755293E+01  1.23755293E+01 -2.47510585E+01
  0.00000000E+00  1.23755293E+01  1.23755293E+01 -2.47510585E+01  0.00000000E+00
  1.23755293E+01  1.23755293E+01 -2.47510585E+01  0.00000000E+00  1.23755293E+01
  1.23755293E+01 -2.47510585E+01  0.00000000E+00  1.23755293E+01  1.23755293E+01
 -2.47510585E+01  0.00000000E+00  1.23755293E+01  1.23755293E+01 -2.47510585E+01
  0.00000000E+00  1.23755293E+01  1.23755293E+01 -2.47510585E+01  0.00000000E+00
  1.23755293E+01  1.23755293E+01 -2.47510585E+01  0.00000000E+00  1.23755293E+01
  1.23755293E+01 -2.47510585E+01  0.00000000E+00  1.23755293E+01  1.23755293E+01
 -2.47510585E+01  0.00000000E+00  1.23755293E+01  1.23755293E+01 -2.47510585E+01
  0.00000000E+00  1.23755293E+01  1.23755293E+01 -2.47510585E+01  0.00000000E+00
  1.23755293E+01  1.23755293E+01 -2.47510585E+01  0.00000000E+00  1.23755293E+01
  1.23755293E+01 -2.47510585E+01  0.00000000E+00  1.23755293E+01  1.23755293E+01
 -2.47510585E+01  0.00000000E+00  1.23755293E+01  1.23755293E+01 -2.47510585E+01
  0.00000000E+00  1.23755293E+01  1.23755293E+01 -2.47510585E+01  0.00000000E+00
  1.23755293E+01  1.23755293E+01 -2.47510585E+01  0.00000000E+00  1.23755293E+01
  1.23755293E+01 -2.47510585E+01  0.00000000E+00  1.23755293E+01  1.23755293E+01
 -2.47510585E+01  0.00000000E+00  1.23755293E+01  1.23755293E+01 -2.47510585E+01
  0.00000000E+00  1.23755293E+01  1.23755293E+01 -2.47510585E+01  0.00000000E+00
  1.23755293E+01  1.23755293E+01 -2.47510585E+01  0.00000000E+00  1.23755293E+01
  1.23755293E+01 -2.47510585E+01  0.00000000E+00  1.23755293E+01  1.23755293E+01
 -2.47510585E+01  0.00000000E+00  1.23755293E+01  1.23755293E+01 -2.47510585E+01
  0.00000000E+00  1.23755293E+01  1.23755293E+01 -2.47510585E+01  0.00000000E+00
  1.23755293E+01  1.23755293E+01 -2.47510585E+01  0.00000000E+00  1.23755293E+01
  1.23755293E+01 -2.47510585E+01  0.00000000E+00  1.23755293E+01  1.23755293E+01
 -2.47510585E+01  0.00000000E+00  1.23755293E+01  1.23755293E+01 -2.47510585E+01
  0.00000000E+00  1.23755293E+01  1.23755293E+01 -2.47510585E+01  0.00000000E+00
  1.23755293E+01  1.23755293E+01 -2.47510585E+01  0.00000000E+00  1.23755293E+01
  1.23755293E+01 -2.47510585E+01  0.00000000E+00  1.23755293E+01  1.23755293E+01
 -2.47510585E+01  0.00000000E+00  1.23755293E+01  1.23755293E+01 -2.47510585E+01
  0.00000000E+00  1.23755293E+01  1.23755293E+01 -2.47510585E+01  0.00000000E+00
  1.23755293E+01  1.23755293E+01 -2.47510585E+01  0.00000000E+00  1.23755293E+01
  1.23755293E+01 -2.47510585E+01  0.00000000E+00  1.23755293E+01  1.23755293E+01
 -2.47510585E+01  0.00000000E+00  1.23755293E+01  1.23755293E+01 -2.47510585E+01
  0.00000000E+00  1.23755293E+01  1.23755293E+01 -2.47510585E+01  0.00000000E+00
  1.23755293E+01  1.23755293E+01 -2.47510585E+01  0.00000000E+00  1.23755293E+01
  1.23755293E+01 -2.47510585E+01  0.00000000E+00  1.23755293E+01  1.23755293E+01
 -2.47510585E+01  0.00000000E+00  1.23755293E+01  1.23755293E+01 -2.47510585E+01
  0.00000000E+00  1.23755293E+01  1.23755293E+01 -2.47510585E+01  0.00000000E+00
  1.23755293E+01  1.23755293E+01 -2.47510585E+01  0.00000000E+00  1.23755293E+01
  1.23755293E+01 -2.47510585E+01  0.00000000E+00  1.23755293E+01  1.23755293E+01
 -2.47510585E+01  0.00000000E+00  1.23755293E+01  1.23755293E+01 -2.47510585E+01
  0.00000000E+00  1.23755293E+01  1.23755293E+01 -2.47510585E+01  0.00000000E+00
  1.23755293E+01  1.23755293E+01 -2.47510585E+01  0.00000000E+00  1.23755293E+01
  1.23755293E+01 -2.47510585E+01  0.00000000E+00  1.23755293E+01  1.23755293E+01
 -2.47510585E+01  0.00000000E+00  1.23755293E+01  1.23755293E+01 -2.47510585E+01
  0.00000000E+00  1.23755293E+01  1.23755293E+01 -2.47510585E+01  0.00000000E+00
  1.23755293E+01  1.23755293E+01 -2.47510585E+01  0.00000000E+00  1.23755293E+01
  1.23755293E+01 -2.47510585E+01  0.00000000E+00  1.23755293E+01  1.23755293E+01
 -2.47510585E+01  0.00000000E+00  1.23755293E+01  1.23755293E+01 -2.47510585E+01
  0.00000000E+00  1.23755293E+01  1.23755293E+01 -2.47510585E+01  0.00000000E+00
  1.23755293E+01  1.23755293E+01 -2.47510585E+01  0.00000000E+00  1.23755293E+01
  1.23755293E+01 -2.47510585E+01  0.00000000E+00  1.23755293E+01  1.23755293E+01
 -2.47510585E+01  0.00000000E+00  1.23755293E+01  1.23755293E+01 -2.47510585E+01
  0.00000000E+00  1.23755293E+01  1.23755293E+01 -2.47510585E+01  0.00000000E+00
  1.23755293E+01  1.23755293E+01 -2.47510585E+01  0.00000000E+00  1.23755293E+01
  1.23755293E+01 -2.47510585E+01  0.00000000E+00  1.23755293E+01  1.23755293E+01
 -2.47510585E+01  0.00000000E+00  1.23755293E+01  1.23755293E+01 -2.47510585E+01
  0.00000000E+00  1.23755293E+01  1.23755293E+01 -2.47510585E+01  0.00000000E+00
  1.23755293E+01  1.23755293E+01 -2.47510585E+01  0.00000000E+00  1.23755293E+01
  1.23755293E+01 -2.47510585E+01  0.00000000E+00  1.23755293E+01  1.23755293E+01
 -2.47510585E+01  0.00000000E+00  1.23755293E+01  1.23755293E+01 -2.47510585E+01
  0.00000000E+00  1.23755293E+01  1.23755293E+01 -2.47510585E+01  0.00000000E+00
  1.23755293E+01  1.23755293E+01 -2.47510585E+01  0.00000000E+00  1.23755293E+01
  1.23755293E+01 -2.47510585E+01  0.00000000E+00  1.23755293E+01  1.23755293E+01
 -2.47510585E+01  0.00000000E+00  1.23755293E+01  1.23755293E+01 -2.47510585E+01
  0.00000000E+00  1.23755293E+01  1.23755293E+01 -2.47510585E+01  0.00000000E+00
  1.23755293E+01  1.23755293E+01 -2.47510585E+01  0.00000000E+00  1.23755293E+01
  1.23755293E+01 -2.47510585E+01  0.00000000E+00  1.23755293E+01  1.23755293E+01
 -2.47510585E+01  0.00000000E+00  1.23755293E+01  1.23755293E+01 -2.47510585E+01
  0.00000000E+00  1.23755293E+01  1.23755293E+01 -2.47510585E+01  0.00000000E+00
  1.23755293E+01  1.23755293E+01 -2.47510585E+01  0.00000000E+00  1.23755293E+01
  1.23755293E+01 -2.47510585E+01  0.00000000E+00  1.23755293E+01  1.23755293E+01
 -2.47510585E+01  0.00000000E+00  1.23755293E+01  1.23755293E+01 -2.47510585E+01
  0.00000000E+00  1.23755293E+01  1.23755293E+01 -2.47510585E+01  0.00000000E+00
  1.23755293E+01  1.23755293E+01 -2.47510585E+01  0.00000000E+00  1.23755293E+01
  1.23755293E+01 -2.47510585E+01  0.00000000E+00  1.23755293E+01  1.23755293E+01
 -2.47510585E+01  0.00000000E+00  1.23755293E+01  1.23755293E+01 -2.47510585E+01
  0.00000000E+00  1.23755293E+01  1.23755293E+01 -2.47510585E+01  0.00000000E+00
  1.23755293E+01  1.23755293E+01 -2.47510585E+01  0.00000000E+00  1.23755293E+01
  1.23755293E+01 -2.47510585E+01  0.00000000E+00  1.23755293E+01  1.23755293E+01
 -2.47510585E+01  0.00000000E+00  1.23755293E+01  1.23755293E+01 -2.47510585E+01
  0.00000000E+00  1.23755293E+01  1.23755293E+01 -2.47510585E+01  0.00000000E+00
  1.23755293E+01  1.23755293E+01 -2.47510585E+01  0.00000000E+00  1.23755293E+01
  1.23755293E+01 -2.47510585E+01  0.00000000E+00  1.23755293E+01  1.23755293E+01
 -2.47510585E+01  0.00000000E+00  1.23755293E+01  1.23755293E+01 -2.47510585E+01
  0.00000000E+00  1.23755293E+01  1.23755293E+01 -2.47510585E+01  0.00000000E+00
  1.23755293E+01  1.23755293E+01 -2.47510585E+01  0.00000000E+00  1.23755293E+01
  1.23755293E+01 -2.47510585E+01  0.00000000E+00  1.23755293E+01  1.23755293E+01
 -2.47510585E+01  0.00000000E+00  1.23755293E+01  1.23755293E+01 -2.47510585E+01
  0.00000000E+00  1.23755293E+01  1.23755293E+01 -2.47510585E+01  0.00000000E+00
  1.23755293E+01  1.23755293E+01 -2.47510585E+01  0.00000000E+00  1.23755293E+01
  1.23755293E+01 -2.47510585E+01  0.00000000E+00  1.23755293E+01  1.23755293E+01
 -2.47510585E+01  0.00000000E+00  1.23755293E+01  1.23755293E+01 -2.47510585E+01
  0.00000000E+00  1.23755293E+01  1.23755293E+01 -2.47510585E+01  0.00000000E+00
  1.23755293E+01  1.23755293E+01 -2.47510585E+01  0.00000000E+00  1.23755293E+01
  1.23755293E+01 -2.47510585E+01  0.00000000E+00  1.23755293E+01  1.23755293E+01
 -2.47510585E+01  0.00000000E+00  1.23755293E+01  1.23755293E+01 -2.47510585E+01
  0.00000000E+00  1.23755293E+01  1.23755293E+01 -2.47510585E+01  0.00000000E+00
  1.23755293E+01  1.23755293E+01 -2.47510585E+01  0.00000000E+00  1.23755293E+01
  1.23755293E+01 -2.47510585E+01  0.00000000E+00  1.23755293E+01  1.23755293E+01
 -2.47510585E+01  0.00000000E+00  1.23755293E+01  1.23755293E+01 -2.47510585E+01
  0.00000000E+00  1.23755293E+01  1.23755293E+01 -2.47510585E+01  0.00000000E+00
  1.23755293E+01  1.23755293E+01 -2.47510585E+01  0.00000000E+00  1.23755293E+01
  1.23755293E+01 -2.47510585E+01  0.00000000E+00  1.23755293E+01  1.23755293E+01
 -2.47510585E+01  0.00000000E+00  1.23755293E+01  1.23755293E+01 -2.47510585E+01
  0.00000000E+00  1.23755293E+01  1.23755293E+01 -2.47510585E+01  0.00000000E+00
  1.23755293E+01  1.23755293E+01 -2.47510585E+01  0.00000000E+00  1.23755293E+01
  1.23755293E+01 -2.47510585E+01  0.00000000E+00  1.23755293E+01  1.23755293E+01
 -2.47510585E+01  0.00000000E+00  1.23755293E+01  1.23755293E+01 -2.47510585E+01
  0.00000000E+00  1.23755293E+01  1.23755293E+01 -2.47510585E+01  0.00000000E+00
  1.23755293E+01  1.23755293E+01 -2.47510585E+01  0.00000000E+00  1.23755293E+01
  1.23755293E+01 -2.47510585E+01  0.00000000E+00  1.23755293E+01  1.23755293E+01
 -2.47510585E+01  0.00000000E+00  1.23755293E+01  1.23755293E+01 -2.47510585E+01
  0.00000000E+00  1.23755293E+01  1.23755293E+01 -2.47510585E+01  0.00000000E+00
  1.23755293E+01  1.23755293E+01 -2.47510585E+01  0.00000000E+00  1.23755293E+01
  1.23755293E+01 -2.47510585E+01  0.00000000E+00  1.23755293E+01  1.23755293E+01
 -2.47510585E+01  0.00000000E+00  1.23755293E+01  1.23755293E+01 -2.47510585E+01
  0.00000000E+00  1.23755293E+01  1.23755293E+01 -2.47510585E+01  0.00000000E+00
  1.23755293E+01  1.23755293E+01 -2.47510585E+01  0.00000000E+00  1.23755293E+01
  1.23755293E+01 -2.47510585E+01  0.00000000E+00  1.23755293E+01  1.23755293E+01
 -2.47510585E+01  0.00000000E+00  1.23755293E+01  1.23755293E+01 -2.47510585E+01
  0.00000000E+00  1.23755293E+01  1.23755293E+01 -2.47510585E+01  0.00000000E+00
  1.23755293E+01  1.23755293E+01 -2.47510585E+01  0.00000000E+00  1.23755293E+01
  1.23755293E+01 -2.47510585E+01  0.00000000E+00  1.23755293E+01  1.23755293E+01
 -2.47510585E+01  0.00000000E+00  1.23755293E+01  1.23755293E+01 -2.47510585E+01
  0.00000000E+00  1.23755293E+01  1.23755293E+01 -2.47510585E+01  0.00000000E+00
  1.23755293E+01  1.23755293E+01 -2.47510585E+01  0.00000000E+00  1.23755293E+01
  1.23755293E+01 -2.47510585E+01  0.00000000E+00  1.23755293E+01  1.23755293E+01
 -2.47510585E+01  0.00000000E+00  1.23755293E+01  1.23755293E+01 -2.47510585E+01
  0.00000000E+00  1.23755293E+01  1.23755293E+01 -2.47510585E+01  0.00000000E+00
  1.23755293E+01  1.23755293E+01 -2.47510585E+01  0.00000000E+00  1.23755293E+01
  1.23755293E+01 -2.47510585E+01  0.00000000E+00  1.23755293E+01  1.23755293E+01
 -2.47510585E+01  0.00000000E+00  1.23755293E+01  1.23755293E+01 -2.47510585E+01
  0.00000000E+00  1.23755293E+01  1.23755293E+01 -2.47510585E+01  0.00000000E+00
  1.23755293E+01  1.23755293E+01 -2.47510585E+01  0.00000000E+00  1.23755293E+01
  1.23755293E+01 -2.47510585E+01  0.00000000E+00  1.23755293E+01  1.23755293E+01
 -2.47510585E+01  0.00000000E+00  1.23755293E+01  1.23755293E+01 -2.47510585E+01
  0.00000000E+00  1.23755293E+01  1.23755293E+01 -2.47510585E+01  0.00000000E+00
  1.23755293E+01  1.23755293E+01 -2.47510585E+01  0.00000000E+00  1.23755293E+01
  1.23755293E+01 -2.47510585E+01  0.00000000E+00  1.23755293E+01  1.23755293E+01
 -2.47510585E+01  0.00000000E+00  1.23755293E+01  1.23755293E+01 -2.47510585E+01
  0.00000000E+00  1.23755293E+01  1.23755293E+01 -2.47510585E+01  0.00000000E+00
  1.23755293E+01  1.23755293E+01 -2.47510585E+01  0.00000000E+00  1.23755293E+01
  1.23755293E+01 -2.47510585E+01  0.00000000E+00  1.23755293E+01  1.23755293E+01
 -2.47510585E+01  0.00000000E+00  1.23755293E+01  1.23755293E+01 -2.47510585E+01
  0.00000000E+00  1.23755293E+01  1.23755293E+01 -2.47510585E+01  0.00000000E+00
  1.23755293E+01  1.23755293E+01 -2.47510585E+01  0.00000000E+00  1.23755293E+01
  1.23755293E+01 -2.47510585E+01  0.00000000E+00  1.23755293E+01  1.23755293E+01
 -2.47510585E+01  0.00000000E+00  1.23755293E+01  1.23755293E+01 -2.47510585E+01
  0.00000000E+00  1.23755293E+01  1.23755293E+01 -2.47510585E+01  0.00000000E+00
  1.23755293E+01  1.23755293E+01 -2.47510585E+01  0.00000000E+00  1.23755293E+01
  1.23755293E+01 -2.47510585E+01  0.00000000E+00  1.23755293E+01  1.23755293E+01
 -2.47510585E+01  0.00000000E+00  1.23755293E+01  1.23755293E+01 -2.47510585E+01
  0.00000000E+00  1.23755293E+01  1.23755293E+01 -2.47510585E+01  0.00000000E+00
  1.23755293E+01  1.23755293E+01 -2.47510585E+01  0.00000000E+00  1.23755293E+01
  1.23755293E+01 -2.47510585E+01  0.00000000E+00  1.23755293E+01  1.23755293E+01
 -2.47510585E+01  0.00000000E+00  1.23755293E+01  1.23755293E+01 -2.47510585E+01
  0.00000000E+00  1.23755293E+01  1.23755293E+01 -2.47510585E+01  0.00000000E+00
  1.23755293E+01  1.23755293E+01 -2.47510585E+01  0.00000000E+00  1.23755293E+01
  1.23755293E+01 -2.47510585E+01  0.00000000E+00  1.23755293E+01  1.23755293E+01
 -2.47510585E+01  0.00000000E+00  1.23755293E+01  1.23755293E+01 -2.47510585E+01
  0.00000000E+00  1.23755293E+01  1.23755293E+01 -2.47510585E+01  0.00000000E+00
  1.23755293E+01  1.23755293E+01 -2.47510585E+01  0.00000000E+00  1.23755293E+01
  1.23755293E+01 -2.47510585E+01  0.00000000E+00  1.23755293E+01  1.23755293E+01
 -2.47510585E+01  0.00000000E+00  1.23755293E+01  1.23755293E+01 -2.47510585E+01
  0.00000000E+00  1.23755293E+01  1.23755293E+01 -2.47510585E+01  0.00000000E+00
  1.23755293E+01  1.23755293E+01 -2.47510585E+01  0.00000000E+00  1.23755293E+01
  1.23755293E+01 -2.47510585E+01  0.00000000E+00  1.23755293E+01  1.23755293E+01
 -2.47510585E+01  0.00000000E+00  1.23755293E+01  1.23755293E+01 -2.47510585E+01
  0.00000000E+00  1.23755293E+01  1.23755293E+01 -2.47510585E+01  0.00000000E+00
  1.23755293E+01  1.23755293E+01 -2.47510585E+01  0.00000000E+00  1.23755293E+01
  1.23755293E+01 -2.47510585E+01  0.00000000E+00  1.23755293E+01  1.23755293E+01
 -2.47510585E+01  0.00000000E+00  1.23755293E+01  1.23755293E+01 -2.47510585E+01
  0.00000000E+00  1.23755293E+01  1.23755293E+01 -2.47510585E+01  0.00000000E+00
  1.23755293E+01  1.23755293E+01 -2.47510585E+01  0.00000000E+00  1.23755293E+01
  1.23755293E+01 -2.47510585E+01  0.00000000E+00  1.23755293E+01  1.23755293E+01
 -2.47510585E+01  0.00000000E+00  1.23755293E+01  1.23755293E+01 -2.47510585E+01
  0.00000000E+00  1.23755293E+01  1.23755293E+01 -2.47510585E+01  0.00000000E+00
  1.23755293E+01  1.23755293E+01 -2.47510585E+01  0.00000000E+00  1.23755293E+01
  1.23755293E+01 -2.47510585E+01  0.00000000E+00  1.23755293E+01  1.23755293E+01
 -2.47510585E+01  0.00000000E+00  1.23755293E+01  1.23755293E+01 -2.47510585E+01
  0.00000000E+00  1.23755293E+01  1.23755293E+01 -2.47510585E+01  0.00000000E+00
  1.23755293E+01  1.23755293E+01 -2.47510585E+01  0.00000000E+00  1.23755293E+01
  1.23755293E+01 -2.47510585E+01  0.00000000E+00  1.23755293E+01  1.23755293E+01
 -2.47510585E+01  0.00000000E+00  1.23755293E+01  1.23755293E+01 -2.47510585E+01
  0.00000000E+00  1.23755293E+01  1.23755293E+01 -2.47510585E+01  0.00000000E+00
  1.23755293E+01  1.23755293E+01 -2.47510585E+01  0.00000000E+00  1.23755293E+01
  1.23755293E+01 -2.47510585E+01  0.00000000E+00  1.23755293E+01  1.23755293E+01
 -2.47510585E+01  0.00000000E+00  1.23755293E+01  1.23755293E+01 -2.47510585E+01
  0.00000000E+00  1.23755293E+01  1.23755293E+01 -2.47510585E+01  0.00000000E+00
  1.23755293E+01  1.23755293E+01 -2.47510585E+01  0.00000000E+00  1.23755293E+01
  1.23755293E+01 -2.47510585E+01  0.00000000E+00  1.23755293E+01  1.23755293E+01
 -2.47510585E+01  0.00000000E+00  1.23755293E+01  1.23755293E+01 -2.47510585E+01
  0.00000000E+00  1.23755293E+01  1.23755293E+01 -2.47510585E+01  0.00000000E+00
  1.23755293E+01  1.23755293E+01 -2.47510585E+01  0.00000000E+00  1.23755293E+01
  1.23755293E+01 -2.47510585E+01  0.00000000E+00  1.23755293E+01  1.23755293E+01
 -2.47510585E+01  0.00000000E+00  1.23755293E+01  1.23755293E+01 -2.47510585E+01
  0.00000000E+00  1.23755293E+01  1.23755293E+01 -2.47510585E+01  0.00000000E+00
  1.23755293E+01  1.23755293E+01 -2.47510585E+01  0.00000000E+00  1.23755293E+01
  1.23755293E+01 -2.47510585E+01  0.00000000E+00  1.23755293E+01  1.23755293E+01
 -2.47510585E+01  0.00000000E+00  1.23755293E+01  1.23755293E+01 -2.47510585E+01
  0.00000000E+00  1.23755293E+01  1.23755293E+01 -2.47510585E+01  0.00000000E+00
  1.23755293E+01  1.23755293E+01 -2.47510585E+01  0.00000000E+00  1.23755293E+01
  1.23755293E+01 -2.47510585E+01  0.00000000E+00  1.23755293E+01  1.23755293E+01
 -2.47510585E+01  0.00000000E+00  1.23755293E+01  1.23755293E+01 -2.47510585E+01
  0.00000000E+00  1.23755293E+01  1.23755293E+01 -2.47510585E+01  0.00000000E+00
  1.23755293E+01  1.23755293E+01 -2.47510585E+01  0.00000000E+00  1.23755293E+01
  1.23755293E+01 -2.47510585E+01  0.00000000E+00  1.23755293E+01  1.23755293E+01
 -2.47510585E+01  0.00000000E+00  1.23755293E+01  1.23755293E+01 -2.47510585E+01
  0.00000000E+00  1.23755293E+01  1.23755293E+01 -2.47510585E+01  0.00000000E+00
  1.23755293E+01  1.23755293E+01 -2.47510585E+01  0.00000000E+00  1.23755293E+01
  1.23755293E+01 -2.47510585E+01  0.00000000E+00  1.23755293E+01  1.23755293E+01
 -2.47510585E+01  0.00000000E+00  1.23755293E+01  1.23755293E+01 -2.47510585E+01
  0.00000000E+00  1.23755293E+01  1.23755293E+01 -2.47510585E+01  0.00000000E+00
  1.23755293E+01  1.23755293E+01 -2.47510585E+01  0.00000000E+00  1.23755293E+01
  1.23755293E+01 -2.47510585E+01  0.00000000E+00  1.23755293E+01  1.23755293E+01
 -2.47510585E+01  0.00000000E+00  1.23755293E+01  1.23755293E+01 -2.47510585E+01
  0.00000000E+00  1.23755293E+01  1.23755293E+01 -2.47510585E+01  0.00000000E+00
  1.23755293E+01  1.23755293E+01 -2.47510585E+01  0.00000000E+00  1.23755293E+01
  1.23755293E+01 -2.47510585E+01  0.00000000E+00  1.23755293E+01  1.23755293E+01
 -2.47510585E+01  0.00000000E+00  1.23755293E+01  1.23755293E+01 -2.47510585E+01
  0.00000000E+00  1.23755293E+01  1.23755293E+01 -2.47510585E+01  0.00000000E+00
  1.23755293E+01  1.23755293E+01 -2.47510585E+01  0.00000000E+00  1.23755293E+01
  1.23755293E+01 -2.47510585E+01  0.00000000E+00  1.23755293E+01  1.23755293E+01
 -2.47510585E+01  0.00000000E+00  1.23755293E+01  1.23755293E+01 -2.47510585E+01
  0.00000000E+00  1.23755293E+01  1.23755293E+01 -2.47510585E+01  0.00000000E+00
  1.23755293E+01  1.23755293E+01 -2.47510585E+01  0.00000000E+00  1.23755293E+01
  1.23755293E+01 -2.47510585E+01  0.00000000E+00  1.23755293E+01  1.23755293E+01
 -2.47510585E+01  0.00000000E+00  1.23755293E+01  1.23755293E+01 -2.47510585E+01
  0.00000000E+00  1.23755293E+01  1.23755293E+01 -2.47510585E+01  0.00000000E+00
  1.23755293E+01  1.23755293E+01 -2.47510585E+01  0.00000000E+00  1.23755293E+01
  1.23755293E+01 -2.47510585E+01  0.00000000E+00  1.23755293E+01  1.23755293E+01
 -2.47510585E+01  0.00000000E+00  1.23755293E+01  1.23755293E+01 -2.47510585E+01
  0.00000000E+00  1.23755293E+01  1.23755293E+01 -2.47510585E+01  0.00000000E+00
  1.23755293E+01  1.23755293E+01 -2.47510585E+01  0.00000000E+00  1.23755293E+01
  1.23755293E+01 -2.47510585E+01  0.00000000E+00  1.23755293E+01  1.23755293E+01
 -2.47510585E+01  0.00000000E+00  1.23755293E+01  1.23755293E+01 -2.47510585E+01
  0.00000000E+00  1.23755293E+01  1.23755293E+01 -2.47510585E+01  0.00000000E+00
  1.23755293E+01  1.23755293E+01 -2.47510585E+01  0.00000000E+00  1.23755293E+01
  1.23755293E+01 -2.47510585E+01  0.00000000E+00  1.23755293E+01  1.23755293E+01
 -2.47510585E+01  0.00000000E+00  1.23755293E+01  1.23755293E+01 -2.47510585E+01
  0.00000000E+00  1.23755293E+01  1.23755293E+01 -2.47510585E+01  0.00000000E+00
  1.23755293E+01  1.23755293E+01 -2.47510585E+01  0.00000000E+00  1.23755293E+01
  1.23755293E+01 -2.47510585E+01  0.00000000E+00  1.23755293E+01  1.23755293E+01
 -2.47510585E+01  0.00000000E+00  1.23755293E+01  1.23755293E+01 -2.47510585E+01
  0.00000000E+00  1.23755293E+01  1.23755293E+01 -2.47510585E+01  0.00000000E+00
  1.23755293E+01  1.23755293E+01 -2.47510585E+01  0.00000000E+00  1.23755293E+01
  1.23755293E+01 -2.47510585E+01  0.00000000E+00  1.23755293E+01  1.23755293E+01
 -2.47510585E+01  0.00000000E+00  1.23755293E+01  1.23755293E+01 -2.47510585E+01
  0.00000000E+00  1.23755293E+01  1.23755293E+01 -2.47510585E+01  0.00000000E+00
  1.23755293E+01  1.23755293E+01 -2.47510585E+01  0.00000000E+00  1.23755293E+01
  1.23755293E+01 -2.47510585E+01  0.00000000E+00  1.23755293E+01  1.23755293E+01
 -2.47510585E+01  0.00000000E+00  1.23755293E+01  1.23755293E+01 -2.47510585E+01
  0.00000000E+00  1.23755293E+01  1.23755293E+01 -2.47510585E+01  0.00000000E+00
  1.23755293E+01  1.23755293E+01 -2.47510585E+01  0.00000000E+00  1.23755293E+01
  1.23755293E+01 -2.47510585E+01  0.00000000E+00  1.23755293E+01  1.23755293E+01
 -2.47510585E+01  0.00000000E+00  1.23755293E+01  1.23755293E+01 -2.47510585E+01
  0.00000000E+00  1.23755293E+01  1.23755293E+01 -2.47510585E+01  0.00000000E+00
  1.23755293E+01  1.23755293E+01 -2.47510585E+01  0.00000000E+00  1.23755293E+01
  1.23755293E+01 -2.47510585E+01  0.00000000E+00  1.23755293E+01  1.23755293E+01
 -2.47510585E+01  0.00000000E+00  1.23755293E+01  1.23755293E+01 -2.47510585E+01
  0.00000000E+00  1.23755293E+01  1.23755293E+01 -2.47510585E+01  0.00000000E+00
  1.23755293E+01  1.23755293E+01 -2.47510585E+01  0.00000000E+00  1.23755293E+01
  1.23755293E+01 -2.47510585E+01  0.00000000E+00  1.23755293E+01  1.23755293E+01
 -2.47510585E+01  0.00000000E+00  1.23755293E+01  1.23755293E+01 -2.47510585E+01
  0.00000000E+00  1.23755293E+01  1.23755293E+01 -2.47510585E+01  0.00000000E+00
  1.23755293E+01  1.23755293E+01 -2.47510585E+01  0.00000000E+00  1.23755293E+01
  1.23755293E+01 -2.47510585E+01  0.00000000E+00  1.23755293E+01  1.23755293E+01
 -2.47510585E+01  0.00000000E+00  1.23755293E+01  1.23755293E+01 -2.47510585E+01
  0.00000000E+00  1.23755293E+01  1.23755293E+01 -2.47510585E+01  0.00000000E+00
  1.23755293E+01  1.23755293E+01 -2.47510585E+01  0.00000000E+00  1.23755293E+01
  1.23755293E+01 -2.47510585E+01  0.00000000E+00  1.23755293E+01  1.23755293E+01
 -2.47510585E+01  0.00000000E+00  1.23755293E+01  1.23755293E+01 -2.47510585E+01
  0.00000000E+00  1.23755293E+01  1.23755293E+01 -2.47510585E+01  0.00000000E+00
  1.23755293E+01  1.23755293E+01 -2.47510585E+01  0.00000000E+00  1.23755293E+01
  1.23755293E+01 -2.47510585E+01  0.00000000E+00  1.23755293E+01  1.23755293E+01
 -2.47510585E+01  0.00000000E+00  1.23755293E+01  1.23755293E+01 -2.47510585E+01
  0.00000000E+00  1.23755293E+01  1.23755293E+01 -2.47510585E+01  0.00000000E+00
  1.23755293E+01  1.23755293E+01 -2.47510585E+01  0.00000000E+00  1.23755293E+01
  1.23755293E+01 -2.47510585E+01  0.00000000E+00  1.23755293E+01  1.23755293E+01
 -2.47510585E+01  0.00000000E+00  1.23755293E+01  1.23755293E+01 -2.47510585E+01
  0.00000000E+00  1.23755293E+01  1.23755293E+01 -2.47510585E+01  0.00000000E+00
  1.23755293E+01  1.23755293E+01 -2.47510585E+01  0.00000000E+00  1.23755293E+01
  1.23755293E+01 -2.47510585E+01  0.00000000E+00  1.23755293E+01  1.23755293E+01
 -2.47510585E+01  0.00000000E+00  1.23755293E+01  1.23755293E+01 -2.47510585E+01
  0.00000000E+00  1.23755293E+01  1.23755293E+01 -2.47510585E+01  0.00000000E+00
  1.23755293E+01  1.23755293E+01 -2.47510585E+01  0.00000000E+00  1.23755293E+01
  1.23755293E+01 -2.47510585E+01  0.00000000E+00  1.23755293E+01  1.23755293E+01
 -2.47510585E+01  0.00000000E+00  1.23755293E+01  1.23755293E+01 -2.47510585E+01
  0.00000000E+00  1.23755293E+01  1.23755293E+01 -2.47510585E+01  0.00000000E+00
  1.23755293E+01  1.23755293E+01 -2.47510585E+01  0.00000000E+00  1.23755293E+01
  1.23755293E+01 -2.47510585E+01  0.00000000E+00  1.23755293E+01  1.23755293E+01
 -2.47510585E+01  0.00000000E+00  1.23755293E+01  1.23755293E+01 -2.47510585E+01
  0.00000000E+00  1.23755293E+01  1.23755293E+01 -2.47510585E+01  0.00000000E+00
  1.23755293E+01  1.23755293E+01 -2.47510585E+01  0.00000000E+00  1.23755293E+01
  1.23755293E+01 -2.47510585E+01  0.00000000E+00  1.23755293E+01  1.23755293E+01
 -2.47510585E+01  0.00000000E+00  1.23755293E+01  1.23755293E+01 -2.47510585E+01
  0.00000000E+00  1.23755293E+01  1.23755293E+01 -2.47510585E+01  0.00000000E+00
  1.23755293E+01  1.23755293E+01 -2.47510585E+01  0.00000000E+00  1.23755293E+01
  1.23755293E+01 -2.47510585E+01  0.00000000E+00  1.23755293E+01  1.23755293E+01
 -2.47510585E+01  0.00000000E+00  1.23755293E+01  1.23755293E+01 -2.47510585E+01
  0.00000000E+00  1.23755293E+01  1.23755293E+01 -2.47510585E+01  0.00000000E+00
  1.23755293E+01  1.23755293E+01 -2.47510585E+01  0.00000000E+00  1.23755293E+01
  1.23755293E+01 -2.47510585E+01  0.00000000E+00  1.23755293E+01  1.23755293E+01
 -2.47510585E+01  0.00000000E+00  1.23755293E+01  1.23755293E+01 -2.47510585E+01
  0.00000000E+00  1.23755293E+01  1.23755293E+01 -2.47510585E+01  0.00000000E+00
  1.23755293E+01  1.23755293E+01 -2.47510585E+01  0.00000000E+00  1.23755293E+01
  1.23755293E+01 -2.47510585E+01  0.00000000E+00  1.23755293E+01  1.23755293E+01
 -2.47510585E+01  0.00000000E+00  1.23755293E+01  1.23755293E+01 -2.47510585E+01
  0.00000000E+00  1.23755293E+01  1.23755293E+01 -2.47510585E+01  0.00000000E+00
  1.23755293E+01  1.23755293E+01 -2.47510585E+01  0.00000000E+00  1.23755293E+01
  1.23755293E+01 -2.47510585E+01  0.00000000E+00  1.23755293E+01  1.23755293E+01
 -2.47510585E+01  0.00000000E+00  1.23755293E+01  1.23755293E+01 -2.47510585E+01
  0.00000000E+00  1.23755293E+01  1.23755293E+01 -2.47510585E+01  0.00000000E+00
  1.23755293E+01  1.23755293E+01 -2.47510585E+01  0.00000000E+00  1.23755293E+01
  1.23755293E+01 -2.47510585E+01  0.00000000E+00  1.23755293E+01  1.23755293E+01
 -2.47510585E+01  0.00000000E+00  1.23755293E+01  1.23755293E+01 -2.47510585E+01
  0.00000000E+00  1.23755293E+01  1.23755293E+01 -2.47510585E+01  0.00000000E+00
  1.23755293E+01  1.23755293E+01 -2.47510585E+01  0.00000000E+00  1.23755293E+01
  1.23755293E+01 -2.47510585E+01  0.00000000E+00  1.23755293E+01  1.23755293E+01
 -2.47510585E+01  0.00000000E+00  1.23755293E+01  1.23755293E+01 -2.47510585E+01
  0.00000000E+00  1.23755293E+01  1.23755293E+01 -2.47510585E+01  0.00000000E+00
  1.23755293E+01  1.23755293E+01 -2.47510585E+01  0.00000000E+00  1.23755293E+01
  1.23755293E+01 -2.47510585E+01  0.00000000E+00  1.23755293E+01  1.23755293E+01
 -2.47510585E+01  0.00000000E+00  1.23755293E+01  1.23755293E+01 -2.47510585E+01
  0.00000000E+00  1.23755293E+01  1.23755293E+01 -2.47510585E+01  0.00000000E+00
  1.23755293E+01  1.23755293E+01 -2.47510585E+01  0.00000000E+00  1.23755293E+01
  1.23755293E+01 -2.47510585E+01  0.00000000E+00  1.23755293E+01  1.23755293E+01
 -2.47510585E+01  0.00000000E+00  1.23755293E+01  1.23755293E+01 -2.47510585E+01
  0.00000000E+00  1.23755293E+01  1.23755293E+01 -2.47510585E+01  0.00000000E+00
  1.23755293E+01  1.23755293E+01 -2.47510585E+01  0.00000000E+00  1.23755293E+01
  1.23755293E+01 -2.47510585E+01  0.00000000E+00  1.23755293E+01  1.23755293E+01
 -2.47510585E+01  0.00000000E+00  1.23755293E+01  1.23755293E+01 -2.47510585E+01
  0.00000000E+00  1.23755293E+01  1.23755293E+01 -2.47510585E+01  0.00000000E+00
  1.23755293E+01  1.23755293E+01 -2.47510585E+01  0.00000000E+00  1.23755293E+01
  1.23755293E+01 -2.47510585E+01  0.00000000E+00  1.23755293E+01  1.23755293E+01
 -2.47510585E+01  0.00000000E+00  1.23755293E+01  1.23755293E+01 -2.47510585E+01
  0.00000000E+00  1.23755293E+01  1.23755293E+01 -2.47510585E+01  0.00000000E+00
  1.23755293E+01  1.23755293E+01 -2.47510585E+01  0.00000000E+00  1.23755293E+01
  1.23755293E+01 -2.47510585E+01  0.00000000E+00  1.23755293E+01  1.23755293E+01
 -2.47510585E+01  0.00000000E+00  1.23755293E+01  1.23755293E+01 -2.47510585E+01
  0.00000000E+00  1.23755293E+01  1.23755293E+01 -2.47510585E+01  0.00000000E+00
  1.23755293E+01  1.23755293E+01 -2.47510585E+01  0.00000000E+00  1.23755293E+01
  1.23755293E+01 -2.47510585E+01  0.00000000E+00  1.23755293E+01  1.23755293E+01
 -2.47510585E+01  0.00000000E+00  1.23755293E+01  1.23755293E+01 -2.47510585E+01
  0.00000000E+00  1.23755293E+01  1.23755293E+01 -2.47510585E+01  0.00000000E+00
  1.23755293E+01  1.23755293E+01 -2.47510585E+01  0.00000000E+00  1.23755293E+01
  1.23755293E+01 -2.47510585E+01  0.00000000E+00  1.23755293E+01  1.23755293E+01
 -2.47510585E+01  0.00000000E+00  1.23755293E+01  1.23755293E+01 -2.47510585E+01
  0.00000000E+00  1.23755293E+01  1.23755293E+01 -2.47510585E+01  0.00000000E+00
  1.23755293E+01  1.23755293E+01 -2.47510585E+01  0.00000000E+00  1.23755293E+01
  1.23755293E+01 -2.47510585E+01  0.00000000E+00  1.23755293E+01  1.23755293E+01
 -2.47510585E+01  0.00000000E+00  1.23755293E+01  1.23755293E+01 -2.47510585E+01
  0.00000000E+00  1.23755293E+01  1.23755293E+01 -2.47510585E+01  0.00000000E+00
  1.23755293E+01  1.23755293E+01 -2.47510585E+01  0.00000000E+00  1.23755293E+01
  1.23755293E+01 -2.47510585E+01  0.00000000E+00  1.23755293E+01  1.23755293E+01
 -2.47510585E+01  0.00000000E+00  1.23755293E+01  1.23755293E+01 -2.47510585E+01
  0.00000000E+00  1.23755293E+01  1.23755293E+01 -2.47510585E+01  0.00000000E+00
  1.23755293E+01  1.23755293E+01 -2.47510585E+01  0.00000000E+00  1.23755293E+01
  1.23755293E+01 -2.47510585E+01  0.00000000E+00  1.23755293E+01  1.23755293E+01
 -2.47510585E+01  0.00000000E+00  1.23755293E+01  1.23755293E+01 -2.47510585E+01
  0.00000000E+00  1.23755293E+01  1.23755293E+01 -2.47510585E+01  0.00000000E+00
  1.23755293E+01  1.23755293E+01 -2.47510585E+01  0.00000000E+00  1.23755293E+01
  1.23755293E+01 -2.47510585E+01  0.00000000E+00  1.23755293E+01  1.23755293E+01
 -2.47510585E+01  0.00000000E+00  1.23755293E+01  1.23755293E+01 -2.47510585E+01
  0.00000000E+00  1.23755293E+01  1.23755293E+01 -2.47510585E+01  0.00000000E+00
  1.23755293E+01  1.23755293E+01 -2.47510585E+01  0.00000000E+00  1.23755293E+01
  1.23755293E+01 -2.47510585E+01  0.00000000E+00  1.23755293E+01  1.23755293E+01
 -2.47510585E+01  0.00000000E+00  1.23755293E+01  1.23755293E+01 -2.47510585E+01
  0.00000000E+00  1.23755293E+01  1.23755293E+01 -2.47510585E+01  0.00000000E+00
  1.23755293E+01  1.23755293E+01 -2.47510585E+01  0.00000000E+00  1.23755293E+01
  1.23755293E+01 -2.47510585E+01  0.00000000E+00  1.23755293E+01  1.23755293E+01
 -2.47510585E+01  0.00000000E+00  1.23755293E+01  1.23755293E+01 -2.47510585E+01
  0.00000000E+00  1.23755293E+01  1.23755293E+01 -2.47510585E+01  0.00000000E+00
  1.23755293E+01  1.23755293E+01 -2.47510585E+01  0.00000000E+00  1.23755293E+01
  1.23755293E+01 -2.47510585E+01  0.00000000E+00  1.23755293E+01  1.23755293E+01
 -2.47510585E+01  0.00000000E+00  1.23755293E+01  1.23755293E+01 -2.47510585E+01
  0.00000000E+00  1.23755293E+01  1.23755293E+01 -2.47510585E+01  0.00000000E+00
  1.23755293E+01  1.23755293E+01 -2.47510585E+01  0.00000000E+00  1.23755293E+01
  1.23755293E+01 -2.47510585E+01  0.00000000E+00  1.23755293E+01  1.23755293E+01
 -2.47510585E+01  0.00000000E+00  1.23755293E+01  1.23755293E+01 -2.47510585E+01
  0.00000000E+00  1.23755293E+01  1.23755293E+01 -2.47510585E+01  0.00000000E+00
  1.23755293E+01  1.23755293E+01 -2.47510585E+01  0.00000000E+00  1.23755293E+01
  1.23755293E+01 -2.47510585E+01  0.00000000E+00  1.23755293E+01  1.23755293E+01
 -2.47510585E+01  0.00000000E+00  1.23755293E+01  1.23755293E+01 -2.47510585E+01
  0.00000000E+00  1.23755293E+01  1.23755293E+01 -2.47510585E+01  0.00000000E+00
  1.23755293E+01  1.23755293E+01 -2.47510585E+01  0.00000000E+00  1.23755293E+01
  1.23755293E+01 -2.47510585E+01  0.00000000E+00  1.23755293E+01  1.23755293E+01
 -2.47510585E+01  0.00000000E+00  1.23755293E+01  1.23755293E+01 -2.47510585E+01
  0.00000000E+00  1.23755293E+01  1.23755293E+01 -2.47510585E+01  0.00000000E+00
  1.23755293E+01  1.23755293E+01 -2.47510585E+01  0.00000000E+00  1.23755293E+01
  1.23755293E+01 -2.47510585E+01  0.00000000E+00  1.23755293E+01  1.23755293E+01
 -2.47510585E+01  0.00000000E+00  1.23755293E+01  1.23755293E+01 -2.47510585E+01
  0.00000000E+00  1.23755293E+01  1.23755293E+01 -2.47510585E+01  0.00000000E+00
  1.23755293E+01  1.23755293E+01 -2.47510585E+01  0.00000000E+00  1.23755293E+01
  1.23755293E+01 -2.47510585E+01  0.00000000E+00  1.23755293E+01  1.23755293E+01
 -2.47510585E+01  0.00000000E+00  1.23755293E+01  1.23755293E+01 -2.47510585E+01
  0.00000000E+00  1.23755293E+01  1.23755293E+01 -2.47510585E+01  0.00000000E+00
  1.23755293E+01  1.23755293E+01 -2.47510585E+01  0.00000000E+00  1.23755293E+01
  1.23755293E+01 -2.47510585E+01  0.00000000E+00  1.23755293E+01  1.23755293E+01
 -2.47510585E+01  0.00000000E+00  1.23755293E+01  1.23755293E+01 -2.47510585E+01
  0.00000000E+00  1.23755293E+01  1.23755293E+01 -2.47510585E+01  0.00000000E+00
  1.23755293E+01  1.23755293E+01 -2.47510585E+01  0.00000000E+00  1.23755293E+01
  1.23755293E+01 -2.47510585E+01  0.00000000E+00  1.23755293E+01  1.23755293E+01
 -2.47510585E+01  0.00000000E+00  1.23755293E+01  1.23755293E+01 -2.47510585E+01
  0.00000000E+00  1.23755293E+01  1.23755293E+01 -2.47510585E+01  0.00000000E+00
  1.23755293E+01  1.23755293E+01 -2.47510585E+01  0.00000000E+00  1.23755293E+01
  1.23755293E+01 -2.47510585E+01  0.00000000E+00  1.23755293E+01  1.23755293E+01
 -2.47510585E+01  0.00000000E+00  1.23755293E+01  1.23755293E+01 -2.47510585E+01
  0.00000000E+00  1.23755293E+01  1.23755293E+01 -2.47510585E+01  0.00000000E+00
  1.23755293E+01  1.23755293E+01 -2.47510585E+01  0.00000000E+00  1.23755293E+01
  1.23755293E+01 -2.47510585E+01  0.00000000E+00  1.23755293E+01  1.23755293E+01
 -2.47510585E+01  0.00000000E+00  1.23755293E+01  1.23755293E+01 -2.47510585E+01
  0.00000000E+00  1.23755293E+01  1.23755293E+01 -2.47510585E+01  0.00000000E+00
  1.23755293E+01  1.23755293E+01 -2.47510585E+01  0.00000000E+00  1.23755293E+01
  1.23755293E+01 -2.47510585E+01  0.00000000E+00  1.23755293E+01  1.23755293E+01
 -2.47510585E+01  0.00000000E+00  1.23755293E+01  1.23755293E+01 -2.47510585E+01
  0.00000000E+00  1.23755293E+01  1.23755293E+01 -2.47510585E+01  0.00000000E+00
  1.23755293E+01  1.23755293E+01 -2.47510585E+01  0.00000000E+00  1.23755293E+01
  1.23755293E+01 -2.47510585E+01  0.00000000E+00  1.23755293E+01  1.23755293E+01
 -2.47510585E+01  0.00000000E+00  1.23755293E+01  1.23755293E+01 -2.47510585E+01
  0.00000000E+00  1.23755293E+01  1.23755293E+01 -2.47510585E+01  0.00000000E+00
  1.23755293E+01  1.23755293E+01 -2.47510585E+01  0.00000000E+00  1.23755293E+01
  1.23755293E+01 -2.47510585E+01  0.00000000E+00  1.23755293E+01  1.23755293E+01
 -2.47510585E+01  0.00000000E+00  1.23755293E+01  1.23755293E+01 -2.47510585E+01
  0.00000000E+00  1.23755293E+01  1.23755293E+01 -2.47510585E+01  0.00000000E+00
  1.23755293E+01  1.23755293E+01 -2.47510585E+01  0.00000000E+00  1.23755293E+01
  1.23755293E+01 -2.47510585E+01  0.00000000E+00  1.23755293E+01  1.23755293E+01
 -2.47510585E+01  0.00000000E+00  1.23755293E+01  1.23755293E+01 -2.47510585E+01
  0.00000000E+00  1.23755293E+01  1.23755293E+01 -2.47510585E+01  0.00000000E+00
  1.23755293E+01  1.23755293E+01 -2.47510585E+01  0.00000000E+00  1.23755293E+01
  1.23755293E+01 -2.47510585E+01  0.00000000E+00  1.23755293E+01  1.23755293E+01
 -2.47510585E+01  0.00000000E+00  1.23755293E+01  1.23755293E+01 -2.47510585E+01
  0.00000000E+00  1.23755293E+01  1.23755293E+01 -2.47510585E+01  0.00000000E+00
  1.23755293E+01  1.23755293E+01 -2.47510585E+01  0.00000000E+00  1.23755293E+01
  1.23755293E+01 -2.47510585E+01  0.00000000E+00  1.23755293E+01  1.23755293E+01
 -2.47510585E+01  0.00000000E+00  1.23755293E+01  1.23755293E+01 -2.47510585E+01
  0.00000000E+00  1.23755293E+01  1.23755293E+01 -2.47510585E+01  0.00000000E+00
  1.23755293E+01  1.23755293E+01 -2.47510585E+01  0.00000000E+00  1.23755293E+01
  1.23755293E+01 -2.47510585E+01  0.00000000E+00  1.23755293E+01  1.23755293E+01
 -2.47510585E+01  0.00000000E+00  1.23755293E+01  1.23755293E+01 -2.47510585E+01
  0.00000000E+00  1.23755293E+01  1.23755293E+01 -2.47510585E+01  0.00000000E+00
  1.23755293E+01  1.23755293E+01 -2.47510585E+01  0.00000000E+00  1.23755293E+01
  1.23755293E+01 -2.47510585E+01  0.00000000E+00  1.23755293E+01  1.23755293E+01
 -2.47510585E+01  0.00000000E+00  1.23755293E+01  1.23755293E+01 -2.47510585E+01
  0.00000000E+00  1.23755293E+01  1.23755293E+01 -2.47510585E+01  0.00000000E+00
  1.23755293E+01  1.23755293E+01 -2.47510585E+01  0.00000000E+00  1.23755293E+01
  1.23755293E+01 -2.47510585E+01  0.00000000E+00  1.23755293E+01  1.23755293E+01
 -2.47510585E+01  0.00000000E+00  1.23755293E+01  1.23755293E+01 -2.47510585E+01
  0.00000000E+00  1.23755293E+01  1.23755293E+01 -2.47510585E+01  0.00000000E+00
  1.23755293E+01  1.23755293E+01 -2.47510585E+01  0.00000000E+00  1.23755293E+01
  1.23755293E+01 -2.47510585E+01  0.00000000E+00  1.23755293E+01  1.23755293E+01
 -2.47510585E+01  0.00000000E+00  1.23755293E+01  1.23755293E+01 -2.47510585E+01
  0.00000000E+00  1.23755293E+01  1.23755293E+01 -2.47510585E+01  0.00000000E+00
  1.23755293E+01  1.23755293E+01 -2.47510585E+01  0.00000000E+00  1.23755293E+01
  1.23755293E+01 -2.47510585E+01  0.00000000E+00  1.23755293E+01  1.23755293E+01
 -2.47510585E+01  0.00000000E+00  1.23755293E+01  1.23755293E+01 -2.47510585E+01
  0.00000000E+00  1.23755293E+01  1.23755293E+01 -2.47510585E+01  0.00000000E+00
  1.23755293E+01  1.23755293E+01 -2.47510585E+01  0.00000000E+00  1.23755293E+01
  1.23755293E+01 -2.47510585E+01  0.00000000E+00  1.23755293E+01  1.23755293E+01
 -2.47510585E+01  0.00000000E+00  1.23755293E+01  1.23755293E+01 -2.47510585E+01
  0.00000000E+00  1.23755293E+01  1.23755293E+01 -2.47510585E+01  0.00000000E+00
  1.23755293E+01  1.23755293E+01 -2.47510585E+01  0.00000000E+00  1.23755293E+01
  1.23755293E+01 -2.47510585E+01  0.00000000E+00  1.23755293E+01  1.23755293E+01
 -2.47510585E+01  0.00000000E+00  1.23755293E+01  1.23755293E+01 -2.47510585E+01
  0.00000000E+00  1.23755293E+01  1.23755293E+01 -2.47510585E+01  0.00000000E+00
  1.23755293E+01  1.23755293E+01 -2.47510585E+01  0.00000000E+00  1.23755293E+01
  1.23755293E+01 -2.47510585E+01  0.00000000E+00  1.23755293E+01  1.23755293E+01
 -2.47510585E+01  0.00000000E+00  1.23755293E+01  1.23755293E+01 -2.47510585E+01
  0.00000000E+00  1.23755293E+01  1.23755293E+01 -2.47510585E+01  0.00000000E+00
  1.23755293E+01  1.23755293E+01 -2.47510585E+01  0.00000000E+00  1.23755293E+01
  1.23755293E+01 -2.47510585E+01  0.00000000E+00  1.23755293E+01  1.23755293E+01
 -2.47510585E+01  0.00000000E+00  1.23755293E+01  1.23755293E+01 -2.47510585E+01
  0.00000000E+00  1.23755293E+01  1.23755293E+01 -2.47510585E+01  0.00000000E+00
  1.23755293E+01  1.23755293E+01 -2.47510585E+01  0.00000000E+00  1.23755293E+01
  1.23755293E+01 -2.47510585E+01  0.00000000E+00  1.23755293E+01  1.23755293E+01
 -2.47510585E+01  0.00000000E+00  1.23755293E+01  1.23755293E+01 -2.47510585E+01
  0.00000000E+00  1.23755293E+01  1.23755293E+01 -2.47510585E+01  0.00000000E+00
  1.23755293E+01  1.23755293E+01 -2.47510585E+01  0.00000000E+00  1.23755293E+01
  1.23755293E+01 -2.47510585E+01  0.00000000E+00  1.23755293E+01  1.23755293E+01
 -2.47510585E+01  0.00000000E+00  1.23755293E+01  1.23755293E+01 -2.47510585E+01
  0.00000000E+00  1.23755293E+01  1.23755293E+01 -2.47510585E+01  0.00000000E+00
  1.23755293E+01  1.23755293E+01 -2.47510585E+01  0.00000000E+00  1.23755293E+01
  1.23755293E+01 -2.47510585E+01  0.00000000E+00  1.23755293E+01  1.23755293E+01
 -2.47510585E+01  0.00000000E+00  1.23755293E+01  1.23755293E+01 -2.47510585E+01
  0.00000000E+00  1.23755293E+01  1.23755293E+01 -2.47510585E+01  0.00000000E+00
  1.23755293E+01  1.23755293E+01 -2.47510585E+01  0.00000000E+00  1.23755293E+01
  1.23755293E+01 -2.47510585E+01  0.00000000E+00  1.23755293E+01  1.23755293E+01
 -2.47510585E+01  0.00000000E+00  1.23755293E+01  1.23755293E+01 -2.47510585E+01
  0.00000000E+00  1.23755293E+01  1.23755293E+01 -2.47510585E+01  0.00000000E+00
  1.23755293E+01  1.23755293E+01 -2.47510585E+01  0.00000000E+00  1.23755293E+01
  1.23755293E+01 -2.47510585E+01  0.00000000E+00  1.23755293E+01  1.23755293E+01
 -2.47510585E+01  0.00000000E+00  1.23755293E+01  1.23755293E+01 -2.47510585E+01
  0.00000000E+00  1.23755293E+01  1.23755293E+01 -2.47510585E+01  0.00000000E+00
  1.23755293E+01  1.23755293E+01 -2.47510585E+01  0.00000000E+00  1.23755293E+01
  1.23755293E+01 -2.47510585E+01  0.00000000E+00  1.23755293E+01  1.23755293E+01
 -2.47510585E+01  0.00000000E+00  1.23755293E+01  1.23755293E+01 -2.47510585E+01
  0.00000000E+00  1.23755293E+01  1.23755293E+01 -2.47510585E+01  0.00000000E+00
  1.23755293E+01  1.23755293E+01 -2.47510585E+01  0.00000000E+00  1.23755293E+01
  1.23755293E+01 -2.47510585E+01  0.00000000E+00  1.23755293E+01  1.23755293E+01
 -2.47510585E+01  0.00000000E+00  1.23755293E+01  1.23755293E+01 -2.47510585E+01
  0.00000000E+00  1.23755293E+01  1.23755293E+01 -2.47510585E+01  0.00000000E+00
  1.23755293E+01  1.23755293E+01 -2.47510585E+01  0.00000000E+00  1.23755293E+01
  1.23755293E+01 -2.47510585E+01  0.00000000E+00  1.23755293E+01  1.23755293E+01
 -2.47510585E+01  0.00000000E+00  1.23755293E+01  1.23755293E+01 -2.47510585E+01
  0.00000000E+00  1.23755293E+01  1.23755293E+01 -2.47510585E+01  0.00000000E+00
  1.23755293E+01  1.23755293E+01 -2.47510585E+01  0.00000000E+00  1.23755293E+01
  1.23755293E+01 -2.47510585E+01  0.00000000E+00  1.23755293E+01  1.23755293E+01
 -2.47510585E+01  0.00000000E+00  1.23755293E+01  1.23755293E+01 -2.47510585E+01
  0.00000000E+00  1.23755293E+01  1.23755293E+01 -2.47510585E+01  0.00000000E+00
  1.23755293E+01  1.23755293E+01 -2.47510585E+01  0.00000000E+00  1.23755293E+01
  1.23755293E+01 -2.47510585E+01  0.00000000E+00  1.23755293E+01  1.23755293E+01
 -2.47510585E+01  0.00000000E+00  1.23755293E+01  1.23755293E+01 -2.47510585E+01
  0.00000000E+00  1.23755293E+01  1.23755293E+01 -2.47510585E+01  0.00000000E+00
  1.23755293E+01  1.23755293E+01 -2.47510585E+01  0.00000000E+00  1.23755293E+01
  1.23755293E+01 -2.47510585E+01  0.00000000E+00  1.23755293E+01  1.23755293E+01
 -2.47510585E+01  0.00000000E+00  1.23755293E+01  1.23755293E+01 -2.47510585E+01
  0.00000000E+00  1.23755293E+01  1.23755293E+01 -2.47510585E+01  0.00000000E+00
  1.23755293E+01  1.23755293E+01 -2.47510585E+01  0.00000000E+00  1.23755293E+01
  1.23755293E+01 -2.47510585E+01  0.00000000E+00  1.23755293E+01  1.23755293E+01
 -2.47510585E+01  0.00000000E+00  1.23755293E+01  1.23755293E+01 -2.47510585E+01
  0.00000000E+00  1.23755293E+01  1.23755293E+01 -2.47510585E+01  0.00000000E+00
  1.23755293E+01  1.23755293E+01 -2.47510585E+01  0.00000000E+00  1.23755293E+01
  1.23755293E+01 -2.47510585E+01  0.00000000E+00  1.23755293E+01  1.23755293E+01
 -2.47510585E+01  0.00000000E+00  1.23755293E+01  1.23755293E+01 -2.47510585E+01
  0.00000000E+00  1.23755293E+01  1.23755293E+01 -2.47510585E+01  0.00000000E+00
  1.23755293E+01  1.23755293E+01 -2.47510585E+01  0.00000000E+00  1.23755293E+01
  1.23755293E+01 -2.47510585E+01  0.00000000E+00  1.23755293E+01  1.23755293E+01
 -2.47510585E+01  0.00000000E+00  1.23755293E+01  1.23755293E+01 -2.47510585E+01
  0.00000000E+00  1.23755293E+01  1.23755293E+01 -2.47510585E+01  0.00000000E+00
  1.23755293E+01  1.23755293E+01 -2.47510585E+01  0.00000000E+00  1.23755293E+01
  1.23755293E+01 -2.47510585E+01  0.00000000E+00  1.23755293E+01  1.23755293E+01
 -2.47510585E+01  0.00000000E+00  1.23755293E+01  1.23755293E+01 -2.47510585E+01
  0.00000000E+00  1.23755293E+01  1.23755293E+01 -2.47510585E+01  0.00000000E+00
  1.23755293E+01  1.23755293E+01 -2.47510585E+01  0.00000000E+00  1.23755293E+01
  1.23755293E+01 -2.47510585E+01  0.00000000E+00  1.23755293E+01  1.23755293E+01
 -2.47510585E+01  0.00000000E+00  1.23755293E+01  1.23755293E+01 -2.47510585E+01
  0.00000000E+00  1.23755293E+01  1.23755293E+01 -2.47510585E+01  0.00000000E+00
  1.23755293E+01  1.23755293E+01 -2.47510585E+01  0.00000000E+00  1.23755293E+01
  1.23755293E+01 -2.47510585E+01  0.00000000E+00  1.23755293E+01  1.23755293E+01
 -2.47510585E+01  0.00000000E+00  1.23755293E+01  1.23755293E+01 -2.47510585E+01
  0.00000000E+00  1.23755293E+01  1.23755293E+01 -2.47510585E+01  0.00000000E+00
  1.23755293E+01  1.23755293E+01 -2.47510585E+01  0.00000000E+00  1.23755293E+01
  1.23755293E+01 -2.47510585E+01  0.00000000E+00  1.23755293E+01  1.23755293E+01
 -2.47510585E+01  0.00000000E+00  1.23755293E+01  1.23755293E+01 -2.47510585E+01
  0.00000000E+00  1.23755293E+01  1.23755293E+01 -2.47510585E+01  0.00000000E+00
  1.23755293E+01  1.23755293E+01 -2.47510585E+01  0.00000000E+00  1.23755293E+01
  1.23755293E+01 -2.47510585E+01  0.00000000E+00  1.23755293E+01  1.23755293E+01
 -2.47510585E+01  0.00000000E+00  1.23755293E+01  1.23755293E+01 -2.47510585E+01
  0.00000000E+00  1.23755293E+01  1.23755293E+01 -2.47510585E+01  0.00000000E+00
  1.23755293E+01  1.23755293E+01 -2.47510585E+01  0.00000000E+00  1.23755293E+01
  1.23755293E+01 -2.47510585E+01  0.00000000E+00  1.23755293E+01  1.23755293E+01
 -2.47510585E+01  0.00000000E+00  1.23755293E+01  1.23755293E+01 -2.47510585E+01
  0.00000000E+00  1.23755293E+01  1.23755293E+01 -2.47510585E+01  0.00000000E+00
  1.23755293E+01  1.23755293E+01 -2.47510585E+01  0.00000000E+00  1.23755293E+01
  1.23755293E+01 -2.47510585E+01  0.00000000E+00  1.23755293E+01  1.23755293E+01
 -2.47510585E+01  0.00000000E+00  1.23755293E+01  1.23755293E+01 -2.47510585E+01
  0.00000000E+00  1.23755293E+01  1.23755293E+01 -2.47510585E+01  0.00000000E+00
  1.23755293E+01  1.23755293E+01 -2.47510585E+01  0.00000000E+00  1.23755293E+01
  1.23755293E+01 -2.47510585E+01  0.00000000E+00  1.23755293E+01  1.23755293E+01
 -2.47510585E+01  0.00000000E+00  1.23755293E+01  1.23755293E+01 -2.47510585E+01
  0.00000000E+00  1.23755293E+01  1.23755293E+01 -2.47510585E+01  0.00000000E+00
  1.23755293E+01  1.23755293E+01 -2.47510585E+01  0.00000000E+00  1.23755293E+01
  1.23755293E+01 -2.47510585E+01  0.00000000E+00  1.23755293E+01  1.23755293E+01
 -2.47510585E+01  0.00000000E+00  1.23755293E+01  1.23755293E+01 -2.47510585E+01
  0.00000000E+00  1.23755293E+01  1.23755293E+01 -2.47510585E+01  0.00000000E+00
  1.23755293E+01  1.23755293E+01 -2.47510585E+01  0.00000000E+00  1.23755293E+01
  1.23755293E+01 -2.47510585E+01  0.00000000E+00  1.23755293E+01  1.23755293E+01
 -2.47510585E+01  0.00000000E+00  1.23755293E+01  1.23755293E+01 -2.47510585E+01
  0.00000000E+00  1.23755293E+01  1.23755293E+01 -2.47510585E+01  0.00000000E+00
  1.23755293E+01  1.23755293E+01 -2.47510585E+01  0.00000000E+00  1.23755293E+01
  1.23755293E+01 -2.47510585E+01  0.00000000E+00  1.23755293E+01  1.23755293E+01
 -2.47510585E+01  0.00000000E+00  1.23755293E+01  1.23755293E+01 -2.47510585E+01
  0.00000000E+00  1.23755293E+01  1.23755293E+01 -2.47510585E+01  0.00000000E+00
  1.23755293E+01  1.23755293E+01 -2.47510585E+01  0.00000000E+00  1.23755293E+01
  1.23755293E+01 -2.47510585E+01  0.00000000E+00  1.23755293E+01  1.23755293E+01
 -2.47510585E+01  0.00000000E+00  1.23755293E+01  1.23755293E+01 -2.47510585E+01
  0.00000000E+00  1.23755293E+01  1.23755293E+01 -2.47510585E+01  0.00000000E+00
  1.23755293E+01  1.23755293E+01 -2.47510585E+01  0.00000000E+00  1.23755293E+01
  1.23755293E+01 -2.47510585E+01  0.00000000E+00  1.23755293E+01  1.23755293E+01
 -2.47510585E+01  0.00000000E+00  1.23755293E+01  1.23755293E+01 -2.47510585E+01
  0.00000000E+00  1.23755293E+01  1.23755293E+01 -2.47510585E+01  0.00000000E+00
  1.23755293E+01  1.23755293E+01 -2.47510585E+01  0.00000000E+00  1.23755293E+01
  1.23755293E+01 -2.47510585E+01  0.00000000E+00  1.23755293E+01  1.23755293E+01
 -2.47510585E+01  0.00000000E+00  1.23755293E+01  1.23755293E+01 -2.47510585E+01
  0.00000000E+00  1.23755293E+01  1.23755293E+01 -2.47510585E+01  0.00000000E+00
  1.23755293E+01  1.23755293E+01 -2.47510585E+01  0.00000000E+00  1.23755293E+01
  1.23755293E+01 -2.47510585E+01  0.00000000E+00  1.23755293E+01  1.23755293E+01
 -2.47510585E+01  0.00000000E+00  1.23755293E+01  1.23755293E+01 -2.47510585E+01
  0.00000000E+00  1.23755293E+01  1.23755293E+01 -2.47510585E+01  0.00000000E+00
  1.23755293E+01  1.23755293E+01 -2.47510585E+01  0.00000000E+00  1.23755293E+01
  1.23755293E+01 -2.47510585E+01  0.00000000E+00  1.23755293E+01  1.23755293E+01
 -2.47510585E+01  0.00000000E+00  1.23755293E+01  1.23755293E+01 -2.47510585E+01
  0.00000000E+00  1.23755293E+01  1.23755293E+01 -2.47510585E+01  0.00000000E+00
  1.23755293E+01  1.23755293E+01 -2.47510585E+01  0.00000000E+00  1.23755293E+01
  1.23755293E+01 -2.47510585E+01  0.00000000E+00  1.23755293E+01  1.23755293E+01
 -2.47510585E+01  0.00000000E+00  1.23755293E+01  1.23755293E+01 -2.47510585E+01
  0.00000000E+00  1.23755293E+01  1.23755293E+01 -2.47510585E+01  0.00000000E+00
  1.23755293E+01  1.23755293E+01 -2.47510585E+01  0.00000000E+00  1.23755293E+01
  1.23755293E+01 -2.47510585E+01  0.00000000E+00  1.23755293E+01  1.23755293E+01
 -2.47510585E+01  0.00000000E+00  1.23755293E+01  1.23755293E+01 -2.47510585E+01
  0.00000000E+00  1.23755293E+01  1.23755293E+01 -2.47510585E+01  0.00000000E+00
  1.23755293E+01  1.23755293E+01 -2.47510585E+01  0.00000000E+00  1.23755293E+01
  1.23755293E+01 -2.47510585E+01  0.00000000E+00  1.23755293E+01  1.23755293E+01
 -2.47510585E+01  0.00000000E+00  1.23755293E+01  1.23755293E+01 -2.47510585E+01
  0.00000000E+00  1.23755293E+01  1.23755293E+01 -2.47510585E+01  0.00000000E+00
  1.23755293E+01  1.23755293E+01 -2.47510585E+01  0.00000000E+00  1.23755293E+01
  1.23755293E+01 -2.47510585E+01  0.00000000E+00  1.23755293E+01  1.23755293E+01
 -2.47510585E+01  0.00000000E+00  1.23755293E+01  1.23755293E+01 -2.47510585E+01
  0.00000000E+00  1.23755293E+01  1.23755293E+01 -2.47510585E+01  0.00000000E+00
  1.23755293E+01  1.23755293E+01 -2.47510585E+01  0.00000000E+00  1.23755293E+01
  1.23755293E+01 -2.47510585E+01  0.00000000E+00  1.23755293E+01  1.23755293E+01
 -2.47510585E+01  0.00000000E+00  1.23755293E+01  1.23755293E+01 -2.47510585E+01
  0.00000000E+00  1.23755293E+01  1.23755293E+01 -2.47510585E+01  0.00000000E+00
  1.23755293E+01  1.23755293E+01 -2.47510585E+01  0.00000000E+00  1.23755293E+01
  1.23755293E+01 -2.47510585E+01  0.00000000E+00  1.23755293E+01  1.23755293E+01
 -2.47510585E+01  0.00000000E+00  1.23755293E+01  1.23755293E+01 -2.47510585E+01
  0.00000000E+00  1.23755293E+01  1.23755293E+01 -2.47510585E+01  0.00000000E+00
  1.23755293E+01  1.23755293E+01 -2.47510585E+01  0.00000000E+00  1.23755293E+01
  1.23755293E+01 -2.47510585E+01  0.00000000E+00  1.23755293E+01  1.23755293E+01
 -2.47510585E+01  0.00000000E+00  1.23755293E+01  1.23755293E+01 -2.47510585E+01
  0.00000000E+00  1.23755293E+01  1.23755293E+01 -2.47510585E+01  0.00000000E+00
  1.23755293E+01  1.23755293E+01 -2.47510585E+01  0.00000000E+00  1.23755293E+01
  1.23755293E+01 -2.47510585E+01  0.00000000E+00  1.23755293E+01  1.23755293E+01
 -2.47510585E+01  0.00000000E+00  1.23755293E+01  1.23755293E+01 -2.47510585E+01
  0.00000000E+00  1.23755293E+01  1.23755293E+01 -2.47510585E+01  0.00000000E+00
  1.23755293E+01  1.23755293E+01 -2.47510585E+01  0.00000000E+00  1.23755293E+01
  1.23755293E+01 -2.47510585E+01  0.00000000E+00  1.23755293E+01  1.23755293E+01
 -2.47510585E+01  0.00000000E+00  1.23755293E+01  1.23755293E+01 -2.47510585E+01
  0.00000000E+00  1.23755293E+01  1.23755293E+01 -2.47510585E+01  0.00000000E+00
  1.23755293E+01  1.23755293E+01 -2.47510585E+01  0.00000000E+00  1.23755293E+01
  1.23755293E+01 -2.47510585E+01  0.00000000E+00  1.23755293E+01  1.23755293E+01
 -2.47510585E+01  0.00000000E+00  1.23755293E+01  1.23755293E+01 -2.47510585E+01
  0.00000000E+00  1.23755293E+01  1.23755293E+01 -2.47510585E+01  0.00000000E+00
  1.23755293E+01  1.23755293E+01 -2.47510585E+01  0.00000000E+00  1.23755293E+01
  1.23755293E+01 -2.47510585E+01  0.00000000E+00  1.23755293E+01  1.23755293E+01
 -2.47510585E+01  0.00000000E+00  1.23755293E+01  1.23755293E+01 -2.47510585E+01
  0.00000000E+00  1.23755293E+01  1.23755293E+01 -2.47510585E+01  0.00000000E+00
  1.23755293E+01  1.23755293E+01 -2.47510585E+01  0.00000000E+00  1.23755293E+01
  1.23755293E+01 -2.47510585E+01  0.00000000E+00  1.23755293E+01  1.23755293E+01
 -2.47510585E+01  0.00000000E+00  1.23755293E+01  1.23755293E+01 -2.47510585E+01
  0.00000000E+00  1.23755293E+01  1.23755293E+01 -2.47510585E+01  0.00000000E+00
  1.23755293E+01  1.23755293E+01 -2.47510585E+01  0.00000000E+00  1.23755293E+01
  1.23755293E+01 -2.47510585E+01  0.00000000E+00  1.23755293E+01  1.23755293E+01
 -2.47510585E+01  0.00000000E+00  1.23755293E+01  1.23755293E+01 -2.47510585E+01
  0.00000000E+00  1.23755293E+01  1.23755293E+01 -2.47510585E+01  0.00000000E+00
  1.23755293E+01  1.23755293E+01 -2.47510585E+01  0.00000000E+00  1.23755293E+01
  1.23755293E+01 -2.47510585E+01  0.00000000E+00  1.23755293E+01  1.23755293E+01
 -2.47510585E+01  0.00000000E+00  1.23755293E+01  1.23755293E+01 -2.47510585E+01
  0.00000000E+00  1.23755293E+01  1.23755293E+01 -2.47510585E+01  0.00000000E+00
  1.23755293E+01  1.23755293E+01 -2.47510585E+01  0.00000000E+00  1.23755293E+01
  1.23755293E+01 -2.47510585E+01  0.00000000E+00  1.23755293E+01  1.23755293E+01
 -2.47510585E+01  0.00000000E+00  1.23755293E+01  1.23755293E+01 -2.47510585E+01
  0.00000000E+00  1.23755293E+01  1.23755293E+01 -2.47510585E+01  0.00000000E+00
  1.23755293E+01  1.23755293E+01 -2.47510585E+01  0.00000000E+00  1.23755293E+01
  1.23755293E+01 -2.47510585E+01  0.00000000E+00  1.23755293E+01  1.23755293E+01
 -2.47510585E+01  0.00000000E+00  1.23755293E+01  1.23755293E+01 -2.47510585E+01
  0.00000000E+00  1.23755293E+01  1.23755293E+01 -2.47510585E+01  0.00000000E+00
  1.23755293E+01  1.23755293E+01 -2.47510585E+01  0.00000000E+00  1.23755293E+01
  1.23755293E+01 -2.47510585E+01  0.00000000E+00  1.23755293E+01  1.23755293E+01
 -2.47510585E+01  0.00000000E+00  1.23755293E+01  1.23755293E+01 -2.47510585E+01
  0.00000000E+00  1.23755293E+01  1.23755293E+01 -2.47510585E+01  0.00000000E+00
  1.23755293E+01  1.23755293E+01 -2.47510585E+01  0.00000000E+00  1.23755293E+01
  1.23755293E+01 -2.47510585E+01  0.00000000E+00  1.23755293E+01  1.23755293E+01
 -2.47510585E+01  0.00000000E+00  1.23755293E+01  1.23755293E+01 -2.47510585E+01
  0.00000000E+00  1.23755293E+01  1.23755293E+01 -2.47510585E+01  0.00000000E+00
  1.23755293E+01  1.23755293E+01 -2.47510585E+01  0.00000000E+00  1.23755293E+01
  1.23755293E+01 -2.47510585E+01  0.00000000E+00  1.23755293E+01  1.23755293E+01
 -2.47510585E+01  0.00000000E+00  1.23755293E+01  1.23755293E+01 -2.47510585E+01
  0.00000000E+00  1.23755293E+01  1.23755293E+01 -2.47510585E+01  0.00000000E+00
  1.23755293E+01  1.23755293E+01 -2.47510585E+01  0.00000000E+00  1.23755293E+01
  1.23755293E+01 -2.47510585E+01  0.00000000E+00  1.23755293E+01  1.23755293E+01
 -2.47510585E+01  0.00000000E+00  1.23755293E+01  1.23755293E+01 -2.47510585E+01
  0.00000000E+00  1.23755293E+01  1.23755293E+01 -2.47510585E+01  0.00000000E+00
  1.23755293E+01  1.23755293E+01 -2.47510585E+01  0.00000000E+00  1.23755293E+01
  1.23755293E+01 -2.47510585E+01  0.00000000E+00  1.23755293E+01  1.23755293E+01
 -2.47510585E+01  0.00000000E+00  1.23755293E+01  1.23755293E+01 -2.47510585E+01
  0.00000000E+00  1.23755293E+01  1.23755293E+01 -2.47510585E+01  0.00000000E+00
  1.23755293E+01  1.23755293E+01 -2.47510585E+01  0.00000000E+00  1.23755293E+01
  1.23755293E+01 -2.47510585E+01  0.00000000E+00  1.23755293E+01  1.23755293E+01
 -2.47510585E+01  0.00000000E+00  1.23755293E+01  1.23755293E+01 -2.47510585E+01
  0.00000000E+00  1.23755293E+01  1.23755293E+01 -2.47510585E+01  0.00000000E+00
  1.23755293E+01  1.23755293E+01 -2.47510585E+01  0.00000000E+00  1.23755293E+01
  1.23755293E+01 -2.47510585E+01  0.00000000E+00  1.23755293E+01  1.23755293E+01
 -2.47510585E+01  0.00000000E+00  1.23755293E+01  1.23755293E+01 -2.47510585E+01
  0.00000000E+00  1.23755293E+01  1.23755293E+01 -2.47510585E+01  0.00000000E+00
  1.23755293E+01  1.23755293E+01 -2.47510585E+01  0.00000000E+00  1.23755293E+01
  1.23755293E+01 -2.47510585E+01  0.00000000E+00  1.23755293E+01  1.23755293E+01
 -2.47510585E+01  0.00000000E+00  1.23755293E+01  1.23755293E+01 -2.47510585E+01
  0.00000000E+00  1.23755293E+01  1.23755293E+01 -2.47510585E+01  0.00000000E+00
  1.23755293E+01  1.23755293E+01 -2.47510585E+01  0.00000000E+00  1.23755293E+01
  1.23755293E+01 -2.47510585E+01  0.00000000E+00  1.23755293E+01  1.23755293E+01
 -2.47510585E+01  0.00000000E+00  1.23755293E+01  1.23755293E+01 -2.47510585E+01
  0.00000000E+00  1.23755293E+01  1.23755293E+01 -2.47510585E+01  0.00000000E+00
  1.23755293E+01  1.23755293E+01 -2.47510585E+01  0.00000000E+00  1.23755293E+01
  1.23755293E+01 -2.47510585E+01  0.00000000E+00  1.23755293E+01  1.23755293E+01
 -2.47510585E+01  0.00000000E+00  1.23755293E+01  1.23755293E+01 -2.47510585E+01
  0.00000000E+00  1.23755293E+01  1.23755293E+01 -2.47510585E+01  0.00000000E+00
  1.23755293E+01  1.23755293E+01 -2.47510585E+01  0.00000000E+00  1.23755293E+01
  1.23755293E+01 -2.47510585E+01  0.00000000E+00  1.23755293E+01  1.23755293E+01
 -2.47510585E+01  0.00000000E+00  1.23755293E+01  1.23755293E+01 -2.47510585E+01
  0.00000000E+00  1.23755293E+01  1.23755293E+01 -2.47510585E+01  0.00000000E+00
  1.23755293E+01  1.23755293E+01 -2.47510585E+01  0.00000000E+00  1.23755293E+01
  1.23755293E+01 -2.47510585E+01  0.00000000E+00  1.23755293E+01  1.23755293E+01
 -2.47510585E+01  0.00000000E+00  1.23755293E+01  1.23755293E+01 -2.47510585E+01
  0.00000000E+00  1.23755293E+01  1.23755293E+01 -2.47510585E+01  0.00000000E+00
  1.23755293E+01  1.23755293E+01 -2.47510585E+01  0.00000000E+00  1.23755293E+01
  1.23755293E+01 -2.47510585E+01  0.00000000E+00  1.23755293E+01  1.23755293E+01
 -2.47510585E+01  0.00000000E+00  1.23755293E+01  1.23755293E+01 -2.47510585E+01
  0.00000000E+00  1.23755293E+01  1.23755293E+01 -2.47510585E+01  0.00000000E+00
  1.23755293E+01  1.23755293E+01 -2.47510585E+01  0.00000000E+00  1.23755293E+01
  1.23755293E+01 -2.47510585E+01  0.00000000E+00  1.23755293E+01  1.23755293E+01
 -2.47510585E+01  0.00000000E+00  1.23755293E+01  1.23755293E+01 -2.47510585E+01
  0.00000000E+00  1.23755293E+01  1.23755293E+01 -2.47510585E+01  0.00000000E+00
  1.23755293E+01  1.23755293E+01 -2.47510585E+01  0.00000000E+00  1.23755293E+01
  1.23755293E+01 -2.47510585E+01  0.00000000E+00  1.23755293E+01  1.23755293E+01
 -2.47510585E+01  0.00000000E+00  1.23755293E+01  1.23755293E+01 -2.47510585E+01
  0.00000000E+00  1.23755293E+01  1.23755293E+01 -2.47510585E+01  0.00000000E+00
  1.23755293E+01  1.23755293E+01 -2.47510585E+01  0.00000000E+00  1.23755293E+01
  1.23755293E+01 -2.47510585E+01  0.00000000E+00  1.23755293E+01  1.23755293E+01
 -2.47510585E+01  0.00000000E+00  1.23755293E+01  1.23755293E+01 -2.47510585E+01
  0.00000000E+00  1.23755293E+01  1.23755293E+01 -2.47510585E+01  0.00000000E+00
  1.23755293E+01  1.23755293E+01 -2.47510585E+01  0.00000000E+00  1.23755293E+01
  1.23755293E+01 -2.47510585E+01  0.00000000E+00  1.23755293E+01  1.23755293E+01
 -2.47510585E+01  0.00000000E+00  1.23755293E+01  1.23755293E+01 -2.47510585E+01
  0.00000000E+00  1.23755293E+01  1.23755293E+01 -2.47510585E+01  0.00000000E+00
  1.23755293E+01  1.23755293E+01 -2.47510585E+01  0.00000000E+00  1.23755293E+01
  1.23755293E+01 -2.47510585E+01  0.00000000E+00  1.23755293E+01  1.23755293E+01
 -2.47510585E+01  0.00000000E+00  1.23755293E+01  1.23755293E+01 -2.47510585E+01
  0.00000000E+00  1.23755293E+01  1.23755293E+01 -2.47510585E+01  0.00000000E+00
  1.23755293E+01  1.23755293E+01 -2.47510585E+01  0.00000000E+00  1.23755293E+01
  1.23755293E+01 -2.47510585E+01  0.00000000E+00  1.23755293E+01  1.23755293E+01
 -2.47510585E+01  0.00000000E+00  1.23755293E+01  1.23755293E+01 -2.47510585E+01
  0.00000000E+00  1.23755293E+01  1.23755293E+01 -2.47510585E+01  0.00000000E+00
  1.23755293E+01  1.23755293E+01 -2.47510585E+01  0.00000000E+00  1.23755293E+01
  1.23755293E+01 -2.47510585E+01  0.00000000E+00  1.23755293E+01  1.23755293E+01
 -2.47510585E+01  0.00000000E+00  1.23755293E+01  1.23755293E+01 -2.47510585E+01
  0.00000000E+00  1.23755293E+01  1.23755293E+01 -2.47510585E+01  0.00000000E+00
  1.23755293E+01  1.23755293E+01 -2.47510585E+01  0.00000000E+00  1.23755293E+01
  1.23755293E+01 -2.47510585E+01  0.00000000E+00  1.23755293E+01  1.23755293E+01
 -2.47510585E+01  0.00000000E+00  1.23755293E+01  1.23755293E+01 -2.47510585E+01
  0.00000000E+00  1.23755293E+01  1.23755293E+01 -2.47510585E+01  0.00000000E+00
  1.23755293E+01  1.23755293E+01 -2.47510585E+01  0.00000000E+00  1.23755293E+01
  1.23755293E+01 -2.47510585E+01  0.00000000E+00  1.23755293E+01  1.23755293E+01
 -2.47510585E+01  0.00000000E+00  1.23755293E+01  1.23755293E+01 -2.47510585E+01
  0.00000000E+00  1.23755293E+01  1.23755293E+01 -2.47510585E+01  0.00000000E+00
  1.23755293E+01  1.23755293E+01 -2.47510585E+01  0.00000000E+00  1.23755293E+01
  1.23755293E+01 -2.47510585E+01  0.00000000E+00  1.23755293E+01  1.23755293E+01
 -2.47510585E+01  0.00000000E+00  1.23755293E+01  1.23755293E+01 -2.47510585E+01
  0.00000000E+00  1.23755293E+01  1.23755293E+01 -2.47510585E+01  0.00000000E+00
  1.23755293E+01  1.23755293E+01 -2.47510585E+01  0.00000000E+00  1.23755293E+01
  1.23755293E+01 -2.47510585E+01  0.00000000E+00  1.23755293E+01  1.23755293E+01
 -2.47510585E+01  0.00000000E+00  1.23755293E+01  1.23755293E+01 -2.47510585E+01
  0.00000000E+00  1.23755293E+01  1.23755293E+01 -2.47510585E+01  0.00000000E+00
  1.23755293E+01  1.23755293E+01 -2.47510585E+01  0.00000000E+00  1.23755293E+01
  1.23755293E+01 -2.47510585E+01  0.00000000E+00  1.23755293E+01  1.23755293E+01
 -2.47510585E+01  0.00000000E+00  1.23755293E+01  1.23755293E+01 -2.47510585E+01
  0.00000000E+00  1.23755293E+01  1.23755293E+01 -2.47510585E+01  0.00000000E+00
  1.23755293E+01  1.23755293E+01 -2.47510585E+01  0.00000000E+00  1.23755293E+01
  1.23755293E+01 -2.47510585E+01  0.00000000E+00  1.23755293E+01  1.23755293E+01
 -2.47510585E+01  0.00000000E+00  1.23755293E+01  1.23755293E+01 -2.47510585E+01
  0.00000000E+00  1.23755293E+01  1.23755293E+01 -2.47510585E+01  0.00000000E+00
  1.23755293E+01  1.23755293E+01 -2.47510585E+01  0.00000000E+00  1.23755293E+01
  1.23755293E+01 -2.47510585E+01  0.00000000E+00  1.23755293E+01  1.23755293E+01
 -2.47510585E+01  0.00000000E+00  1.23755293E+01  1.23755293E+01 -2.47510585E+01
  0.00000000E+00  1.23755293E+01  1.23755293E+01 -2.47510585E+01  0.00000000E+00
  1.23755293E+01  1.23755293E+01 -2.47510585E+01  0.00000000E+00  1.23755293E+01
  1.23755293E+01 -2.47510585E+01  0.00000000E+00  1.23755293E+01  1.23755293E+01
 -2.47510585E+01  0.00000000E+00  1.23755293E+01  1.23755293E+01 -2.47510585E+01
  0.00000000E+00  1.23755293E+01  1.23755293E+01 -2.47510585E+01  0.00000000E+00
  1.23755293E+01  1.23755293E+01 -2.47510585E+01  0.00000000E+00  1.23755293E+01
  1.23755293E+01 -2.47510585E+01  0.00000000E+00  1.23755293E+01  1.23755293E+01
 -2.47510585E+01  0.00000000E+00  1.23755293E+01  1.23755293E+01 -2.47510585E+01
  0.00000000E+00  1.23755293E+01  1.23755293E+01 -2.47510585E+01  0.00000000E+00
  1.23755293E+01  1.23755293E+01 -2.47510585E+01  0.00000000E+00  1.23755293E+01
  1.23755293E+01 -2.47510585E+01  0.00000000E+00  1.23755293E+01  1.23755293E+01
 -2.47510585E+01  0.00000000E+00  1.23755293E+01  1.23755293E+01 -2.47510585E+01
  0.00000000E+00  1.23755293E+01  1.23755293E+01 -2.47510585E+01  0.00000000E+00
  1.23755293E+01  1.23755293E+01 -2.47510585E+01  0.00000000E+00  1.23755293E+01
  1.23755293E+01 -2.47510585E+01  0.00000000E+00  1.23755293E+01  1.23755293E+01
 -2.47510585E+01  0.00000000E+00  1.23755293E+01  1.23755293E+01 -2.47510585E+01
  0.00000000E+00  1.23755293E+01  1.23755293E+01 -2.47510585E+01  0.00000000E+00
  1.23755293E+01  1.23755293E+01 -2.47510585E+01  0.00000000E+00  1.23755293E+01
  1.23755293E+01 -2.47510585E+01  0.00000000E+00  1.23755293E+01  1.23755293E+01
 -2.47510585E+01  0.00000000E+00  1.23755293E+01  1.23755293E+01 -2.47510585E+01
  0.00000000E+00  1.23755293E+01  1.23755293E+01 -2.47510585E+01  0.00000000E+00
  1.23755293E+01  1.23755293E+01 -2.47510585E+01  0.00000000E+00  1.23755293E+01
  1.23755293E+01 -2.47510585E+01  0.00000000E+00  1.23755293E+01  1.23755293E+01
 -2.47510585E+01  0.00000000E+00  1.23755293E+01  1.23755293E+01 -2.47510585E+01
  0.00000000E+00  1.23755293E+01  1.23755293E+01 -2.47510585E+01  0.00000000E+00
  1.23755293E+01  1.23755293E+01 -2.47510585E+01  0.00000000E+00  1.23755293E+01
  1.23755293E+01 -2.47510585E+01  0.00000000E+00  1.23755293E+01  1.23755293E+01
 -2.47510585E+01  0.00000000E+00  1.23755293E+01  1.23755293E+01 -2.47510585E+01
  0.00000000E+00  1.23755293E+01  1.23755293E+01 -2.47510585E+01  0.00000000E+00
  1.23755293E+01  1.23755293E+01 -2.47510585E+01  0.00000000E+00  1.23755293E+01
  1.23755293E+01 -2.47510585E+01  0.00000000E+00  1.23755293E+01  1.23755293E+01
 -2.47510585E+01  0.00000000E+00  1.23755293E+01  1.23755293E+01 -2.47510585E+01
  0.00000000E+00  1.23755293E+01  1.23755293E+01 -2.47510585E+01  0.00000000E+00
  1.23755293E+01  1.23755293E+01 -2.47510585E+01  0.00000000E+00  1.23755293E+01
  1.23755293E+01 -2.47510585E+01  0.00000000E+00  1.23755293E+01  1.23755293E+01
 -2.47510585E+01  0.00000000E+00  1.23755293E+01  1.23755293E+01 -2.47510585E+01
  0.00000000E+00  1.23755293E+01  1.23755293E+01 -2.47510585E+01  0.00000000E+00
  1.23755293E+01  1.23755293E+01 -2.47510585E+01  0.00000000E+00  1.23755293E+01
  1.23755293E+01 -2.47510585E+01  0.00000000E+00  1.23755293E+01  1.23755293E+01
 -2.47510585E+01  0.00000000E+00  1.23755293E+01  1.23755293E+01 -2.47510585E+01
  0.00000000E+00  1.23755293E+01  1.23755293E+01 -2.47510585E+01  0.00000000E+00
  1.23755293E+01  1.23755293E+01 -2.47510585E+01  0.00000000E+00  1.23755293E+01
  1.23755293E+01 -2.47510585E+01  0.00000000E+00  1.23755293E+01  1.23755293E+01
 -2.47510585E+01  0.00000000E+00  1.23755293E+01  1.23755293E+01 -2.47510585E+01
  0.00000000E+00  1.23755293E+01  1.23755293E+01 -2.47510585E+01  0.00000000E+00
  1.23755293E+01  1.23755293E+01 -2.47510585E+01  0.00000000E+00  1.23755293E+01
  1.23755293E+01 -2.47510585E+01  0.00000000E+00  1.23755293E+01  1.23755293E+01
 -2.47510585E+01  0.00000000E+00  1.23755293E+01  1.23755293E+01 -2.47510585E+01
  0.00000000E+00  1.23755293E+01  1.23755293E+01 -2.47510585E+01  0.00000000E+00
  1.23755293E+01  1.23755293E+01 -2.47510585E+01  0.00000000E+00  1.23755293E+01
  1.23755293E+01 -2.47510585E+01  0.00000000E+00  1.23755293E+01  1.23755293E+01
 -2.47510585E+01  0.00000000E+00  1.23755293E+01  1.23755293E+01 -2.47510585E+01
  0.00000000E+00  1.23755293E+01  1.23755293E+01 -2.47510585E+01  0.00000000E+00
  1.23755293E+01  1.23755293E+01 -2.47510585E+01  0.00000000E+00  1.23755293E+01
  1.23755293E+01 -2.47510585E+01  0.00000000E+00  1.23755293E+01  1.23755293E+01
 -2.47510585E+01  0.00000000E+00  1.23755293E+01  1.23755293E+01 -2.47510585E+01
  0.00000000E+00  1.23755293E+01  1.23755293E+01 -2.47510585E+01  0.00000000E+00
  1.23755293E+01  1.23755293E+01 -2.47510585E+01  0.00000000E+00  1.23755293E+01
  1.23755293E+01 -2.47510585E+01  0.00000000E+00  1.23755293E+01  1.23755293E+01
 -2.47510585E+01  0.00000000E+00  1.23755293E+01  1.23755293E+01 -2.47510585E+01
  0.00000000E+00  1.23755293E+01  1.23755293E+01 -2.47510585E+01  0.00000000E+00
  1.23755293E+01  1.23755293E+01 -2.47510585E+01  0.00000000E+00  1.23755293E+01
  1.23755293E+01 -2.47510585E+01  0.00000000E+00  1.23755293E+01  1.23755293E+01
 -2.47510585E+01  0.00000000E+00  1.23755293E+01  1.23755293E+01 -2.47510585E+01
  0.00000000E+00  1.23755293E+01  1.23755293E+01 -2.47510585E+01  0.00000000E+00
  1.23755293E+01  1.23755293E+01 -2.47510585E+01  0.00000000E+00  1.23755293E+01
  1.23755293E+01 -2.47510585E+01  0.00000000E+00  1.23755293E+01  1.23755293E+01
 -2.47510585E+01  0.00000000E+00  1.23755293E+01  1.23755293E+01 -2.47510585E+01
  0.00000000E+00  1.23755293E+01  1.23755293E+01 -2.47510585E+01  0.00000000E+00
  1.23755293E+01  1.23755293E+01 -2.47510585E+01  0.00000000E+00  1.23755293E+01
  1.23755293E+01 -2.47510585E+01  0.00000000E+00  1.23755293E+01  1.23755293E+01
 -2.47510585E+01  0.00000000E+00  1.23755293E+01  1.23755293E+01 -2.47510585E+01
  0.00000000E+00  1.23755293E+01  1.23755293E+01 -2.47510585E+01  0.00000000E+00
  1.23755293E+01  1.23755293E+01 -2.47510585E+01  0.00000000E+00  1.23755293E+01
  1.23755293E+01 -2.47510585E+01  0.00000000E+00  1.23755293E+01  1.23755293E+01
 -2.47510585E+01  0.00000000E+00  1.23755293E+01  1.23755293E+01 -2.47510585E+01
  0.00000000E+00  1.23755293E+01  1.23755293E+01 -2.47510585E+01  0.00000000E+00
  1.23755293E+01  1.23755293E+01 -2.47510585E+01  0.00000000E+00  1.23755293E+01
  1.23755293E+01 -2.47510585E+01  0.00000000E+00  1.23755293E+01  1.23755293E+01
 -2.47510585E+01  0.00000000E+00  1.23755293E+01  1.23755293E+01 -2.47510585E+01
  0.00000000E+00  1.23755293E+01  1.23755293E+01 -2.47510585E+01  0.00000000E+00
  1.23755293E+01  1.23755293E+01 -2.47510585E+01  0.00000000E+00  1.23755293E+01
  1.23755293E+01 -2.47510585E+01  0.00000000E+00  1.23755293E+01  1.23755293E+01
 -2.47510585E+01  0.00000000E+00  1.23755293E+01  1.23755293E+01 -2.47510585E+01
  0.00000000E+00  1.23755293E+01  1.23755293E+01 -2.47510585E+01  0.00000000E+00
  1.23755293E+01  1.23755293E+01 -2.47510585E+01  0.00000000E+00  1.23755293E+01
  1.23755293E+01 -2.47510585E+01  0.00000000E+00  1.23755293E+01  1.23755293E+01
 -2.47510585E+01  0.00000000E+00  1.23755293E+01  1.23755293E+01 -2.47510585E+01
  0.00000000E+00  1.23755293E+01  1.23755293E+01 -2.47510585E+01  0.00000000E+00
  1.23755293E+01  1.23755293E+01 -2.47510585E+01  0.00000000E+00  1.23755293E+01
  1.23755293E+01 -2.47510585E+01  0.00000000E+00  1.23755293E+01  1.23755293E+01
 -2.47510585E+01  0.00000000E+00  1.23755293E+01  1.23755293E+01 -2.47510585E+01
  0.00000000E+00  1.23755293E+01  1.23755293E+01 -2.47510585E+01  0.00000000E+00
  1.23755293E+01  1.23755293E+01 -2.47510585E+01  0.00000000E+00  1.23755293E+01
  1.23755293E+01 -2.47510585E+01  0.00000000E+00  1.23755293E+01  1.23755293E+01
 -2.47510585E+01  0.00000000E+00  1.23755293E+01  1.23755293E+01 -2.47510585E+01
  0.00000000E+00  1.23755293E+01  1.23755293E+01 -2.47510585E+01  0.00000000E+00
  1.23755293E+01  1.23755293E+01 -2.47510585E+01  0.00000000E+00  1.23755293E+01
  1.23755293E+01 -2.47510585E+01  0.00000000E+00  1.23755293E+01  1.23755293E+01
 -2.47510585E+01  0.00000000E+00  1.23755293E+01  1.23755293E+01 -2.47510585E+01
  0.00000000E+00  1.23755293E+01  1.23755293E+01 -2.47510585E+01  0.00000000E+00
  1.23755293E+01  1.23755293E+01 -2.47510585E+01  0.00000000E+00  1.23755293E+01
  1.23755293E+01 -2.47510585E+01  0.00000000E+00  1.23755293E+01  1.23755293E+01
 -2.47510585E+01  0.00000000E+00  1.23755293E+01  1.23755293E+01 -2.47510585E+01
  0.00000000E+00  1.23755293E+01  1.23755293E+01 -2.47510585E+01  0.00000000E+00
  1.23755293E+01  1.23755293E+01 -2.47510585E+01  0.00000000E+00  1.23755293E+01
  1.23755293E+01 -2.47510585E+01
%FLAG ATOMIC_NUMBER                                                             
%FORMAT(10I8)                                                                   
       1       6       1       1       6       8       7       1       6       1
       6       1       1       6       6       1       6       1       6       8
       1       6       1       6       1       6       8       7       1       6
       1       6       1       1       1       6       8       7       1       6
       1       1       6       8       7       1       6       1       6       1
       1       6       6       1       6       1       6       1       6       1
       6       1       6       8       7       1       6       1       1       1
       8       1       1       0       8       1       1       0       8       1
       1       0       8       1       1       0       8       1       1       0
       8       1       1       0       8       1       1       0       8       1
       1       0       8       1       1       0       8       1       1       0
       8       1       1       0       8       1       1       0       8       1
       1       0       8       1       1       0       8       1       1       0
       8       1       1       0       8       1       1       0       8       1
       1       0       8       1       1       0       8       1       1       0
       8       1       1       0       8       1       1       0       8       1
       1       0       8       1       1       0       8       1       1       0
       8       1       1       0       8       1       1       0       8       1
       1       0       8       1       1       0       8       1       1       0
       8       1       1       0       8       1       1       0       8       1
       1       0       8       1       1       0       8       1       1       0
       8       1       1       0       8       1       1       0       8       1
       1       0       8       1       1       0       8       1       1       0
       8       1       1       0       8       1       1       0       8       1
       1       0       8       1       1       0       8       1       1       0
       8       1       1       0       8       1       1       0       8       1
       1       0       8       1       1       0       8       1       1       0
       8       1       1       0       8       1       1       0       8       1
       1       0       8       1       1       0       8       1       1       0
       8       1       1       0       8       1       1       0       8       1
       1       0       8       1       1       0       8       1       1       0
       8       1       1       0       8       1       1       0       8       1
       1       0       8       1       1       0       8       1       1       0
       8       1       1       0       8       1       1       0       8       1
       1       0       8       1       1       0       8       1       1       0
       8       1       1       0       8       1       1       0       8       1
       1       0       8       1       1       0       8       1       1       0
       8       1       1       0       8       1       1       0       8       1
       1       0       8       1       1       0       8       1       1       0
       8       1       1       0       8       1       1       0       8       1
       1       0       8       1       1       0       8       1       1       0
       8       1       1       0       8       1       1       0       8       1
       1       0       8       1       1       0       8       1       1       0
       8       1       1       0       8       1       1       0       8       1
       1       0       8       1       1       0       8       1       1       0
       8       1       1       0       8       1       1       0       8       1
       1       0       8       1       1       0       8       1       1       0
       8       1       1       0       8       1       1       0       8       1
       1       0       8       1       1       0       8       1       1       0
       8       1       1       0       8       1       1       0       8       1
       1       0       8       1       1       0       8       1       1       0
       8       1       1       0       8       1       1       0       8       1
       1       0       8       1       1       0       8       1       1       0
       8       1       1       0       8       1       1       0       8       1
       1       0       8       1       1       0       8       1       1       0
       8       1       1       0       8       1       1       0       8       1
       1       0       8       1       1       0       8       1       1       0
       8       1       1       0       8       1       1       0       8       1
       1       0       8       1       1       0       8       1       1       0
       8       1       1       0       8       1       1       0       8       1
       1       0       8       1       1       0       8       1       1       0
       8       1       1       0       8       1       1       0       8       1
       1       0       8       1       1       0       8       1       1       0
       8       1       1       0       8       1       1       0       8       1
       1       0       8       1       1       0       8       1       1       0
       8       1       1       0       8       1       1       0       8       1
       1       0       8       1       1       0       8       1       1       0
       8       1       1       0       8       1       1       0       8       1
       1       0       8       1       1       0       8       1       1       0
       8       1       1       0       8       1       1       0       8       1
       1       0       8       1       1       0       8       1       1       0
       8       1       1       0       8       1       1       0       8       1
       1       0       8       1       1       0       8       1       1       0
       8       1       1       0       8       1       1       0       8       1
       1       0       8       1       1       0       8       1       1       0
       8       1       1       0       8       1       1       0       8       1
       1       0       8       1       1       0       8       1       1       0
       8       1       1       0       8       1       1       0       8       1
       1       0       8       1       1       0       8       1       1       0
       8       1       1       0       8       1       1       0       8       1
       1       0       8       1       1       0       8       1       1       0
       8       1       1       0       8       1       1       0       8       1
       1       0       8       1       1       0       8       1       1       0
       8       1       1       0       8       1       1       0       8       1
       1       0       8       1       1       0       8       1       1       0
       8       1       1       0       8       1       1       0       8       1
       1       0       8       1       1       0       8       1       1       0
       8       1       1       0       8       1       1       0       8       1
       1       0       8       1       1       0       8       1       1       0
       8       1       1       0       8       1       1       0       8       1
       1       0       8       1       1       0       8       1       1       0
       8       1       1       0       8       1       1       0       8       1
       1       0       8       1       1       0       8       1       1       0
       8       1       1       0       8       1       1       0       8       1
       1       0       8       1       1       0       8       1       1       0
       8       1       1       0       8       1       1       0       8       1
       1       0       8       1       1       0       8       1       1       0
       8       1       1       0       8       1       1       0       8       1
       1       0       8       1       1       0       8       1       1       0
       8       1       1       0       8       1       1       0       8       1
       1       0       8       1       1       0       8       1       1       0
       8       1       1       0       8       1       1       0       8       1
       1       0       8       1       1       0       8       1       1       0
       8       1       1       0       8       1       1       0       8       1
       1       0       8       1       1       0       8       1       1       0
       8       1       1       0       8       1       1       0       8       1
       1       0       8       1       1       0       8       1       1       0
       8       1       1       0       8       1       1       0       8       1
       1       0       8       1       1       0       8       1       1       0
       8       1       1       0       8       1       1       0       8       1
       1       0       8       1       1       0       8       1       1       0
       8       1       1       0       8       1       1       0       8       1
       1       0       8       1       1       0       8       1       1       0
       8       1       1       0       8       1       1       0       8       1
       1       0       8       1       1       0       8       1       1       0
       8       1       1       0       8       1       1       0       8       1
       1       0       8       1       1       0       8       1       1       0
       8       1       1       0       8       1       1       0       8       1
       1       0       8       1       1       0       8       1       1       0
       8       1       1       0       8       1       1       0       8       1
       1       0       8       1       1       0       8       1       1       0
       8       1       1       0       8       1       1       0       8       1
       1       0       8       1       1       0       8       1       1       0
       8       1       1       0       8       1       1       0       8       1
       1       0       8       1       1       0       8       1       1       0
       8       1       1       0       8       1       1       0       8       1
       1       0       8       1       1       0       8       1       1       0
       8       1       1       0       8       1       1       0       8       1
       1       0       8       1       1       0       8       1       1       0
       8       1       1       0       8       1       1       0       8       1
       1       0       8       1       1       0       8       1       1       0
       8       1       1       0       8       1       1       0       8       1
       1       0       8       1       1       0       8       1       1       0
       8       1       1       0       8       1       1       0       8       1
       1       0       8       1       1       0       8       1       1       0
       8       1       1       0       8       1       1       0       8       1
       1       0       8       1       1       0       8       1       1       0
       8       1       1       0       8       1       1       0       8       1
       1       0       8       1       1       0       8       1       1       0
       8       1       1       0       8       1       1       0       8       1
       1       0       8       1       1       0       8       1       1       0
       8       1       1       0       8       1       1       0       8       1
       1       0       8       1       1       0       8       1       1       0
       8       1       1       0       8       1       1       0       8       1
       1       0       8       1       1       0       8       1       1       0
       8       1       1       0       8       1       1       0       8       1
       1       0       8       1       1       0       8       1       1       0
       8       1       1       0       8       1       1       0       8       1
       1       0       8       1       1       0       8       1       1       0
       8       1       1       0       8       1       1       0       8       1
       1       0       8       1       1       0       8       1       1       0
       8       1       1       0       8       1       1       0       8       1
       1       0       8       1       1       0       8       1       1       0
       8       1       1       0       8       1       1       0       8       1
       1       0       8       1       1       0       8       1       1       0
       8       1       1       0       8       1       1       0       8       1
       1       0       8       1       1       0       8       1       1       0
       8       1       1       0       8       1       1       0       8       1
       1       0       8       1       1       0       8       1       1       0
       8       1       1       0       8       1       1       0       8       1
       1       0       8       1       1       0       8       1       1       0
       8       1       1       0       8       1       1       0       8       1
       1       0       8       1       1       0       8       1       1       0
       8       1       1       0       8       1       1       0       8       1
       1       0       8       1       1       0       8       1       1       0
       8       1       1       0       8       1       1       0       8       1
       1       0       8       1       1       0       8       1       1       0
       8       1       1       0       8       1       1       0       8       1
       1       0       8       1       1       0       8       1       1       0
       8       1       1       0       8       1       1       0       8       1
       1       0       8       1       1       0       8       1       1       0
       8       1       1       0       8       1       1       0       8       1
       1       0       8       1       1       0       8       1       1       0
       8       1       1       0       8       1       1       0       8       1
       1       0       8       1       1       0       8       1       1       0
       8       1       1       0       8       1       1       0       8       1
       1       0       8       1       1       0       8       1       1       0
       8       1       1       0       8       1       1       0       8       1
       1       0       8       1       1       0       8       1       1       0
       8       1       1       0       8       1       1       0       8       1
       1       0       8       1       1       0       8       1       1       0
       8       1       1       0       8       1       1       0       8       1
       1       0       8       1       1       0       8       1       1       0
       8       1       1       0       8       1       1       0       8       1
       1       0       8       1       1       0       8       1       1       0
       8       1       1       0       8       1       1       0       8       1
       1       0       8       1       1       0       8       1       1       0
       8       1       1       0       8       1       1       0       8       1
       1       0       8       1       1       0       8       1       1       0
       8       1       1       0       8       1       1       0       8       1
       1       0       8       1       1       0       8       1       1       0
       8       1       1       0       8       1       1       0       8       1
       1       0       8       1       1       0       8       1       1       0
       8       1       1       0       8       1       1       0       8       1
       1       0       8       1       1       0       8       1       1       0
       8       1       1       0       8       1       1       0       8       1
       1       0       8       1       1       0       8       1       1       0
       8       1       1       0       8       1       1       0       8       1
       1       0       8       1       1       0       8       1       1       0
       8       1       1       0       8       1       1       0       8       1
       1       0       8       1       1       0       8       1       1       0
       8       1       1       0       8       1       1       0       8       1
       1       0       8       1       1       0       8       1       1       0
       8       1       1       0       8       1       1       0       8       1
       1       0       8       1       1       0       8       1       1       0
       8       1       1       0       8       1       1       0       8       1
       1       0       8       1       1       0       8       1       1       0
       8       1       1       0       8       1       1       0       8       1
       1       0       8       1       1       0       8       1       1       0
       8       1       1       0       8       1       1       0       8       1
       1       0       8       1       1       0       8       1       1       0
       8       1       1       0       8       1       1       0       8       1
       1       0       8       1       1       0       8       1       1       0
       8       1       1       0       8       1       1       0       8       1
       1       0       8       1       1       0       8       1       1       0
       8       1       1       0       8       1       1       0       8       1
       1       0       8       1       1       0       8       1       1       0
       8       1       1       0       8       1       1       0       8       1
       1       0       8       1       1       0       8       1       1       0
       8       1       1       0       8       1       1       0       8       1
       1       0       8       1       1       0       8       1       1       0
       8       1       1       0       8       1       1       0       8       1
       1       0       8       1       1       0       8       1       1       0
       8       1       1       0       8       1       1       0       8       1
       1       0       8       1       1       0       8       1       1       0
       8       1       1       0       8       1       1       0       8       1
       1       0       8       1       1       0       8       1       1       0
       8       1       1       0       8       1       1       0       8       1
       1       0       8       1       1       0       8       1       1       0
       8       1       1       0       8       1       1       0       8       1
       1       0       8       1       1       0       8       1       1       0
       8       1       1       0       8       1       1       0       8       1
       1       0       8       1       1       0       8       1       1       0
       8       1       1       0       8       1       1       0       8       1
       1       0       8       1       1       0       8       1       1       0
       8       1       1       0       8       1       1       0       8       1
       1       0       8       1       1       0       8       1       1       0
       8       1       1       0       8       1       1       0       8       1
       1       0       8       1       1       0       8       1       1       0
       8       1       1       0       8       1       1       0       8       1
       1       0       8       1       1       0       8       1       1       0
       8       1       1       0       8       1       1       0       8       1
       1       0       8       1       1       0       8       1       1       0
       8       1       1       0       8       1       1       0       8       1
       1       0       8       1       1       0       8       1       1       0
       8       1       1       0       8       1       1       0       8       1
       1       0       8       1       1       0       8       1       1       0
       8       1       1       0       8       1       1       0       8       1
       1       0       8       1       1       0       8       1       1       0
       8       1       1       0       8       1       1       0       8       1
       1       0       8       1       1       0       8       1       1       0
       8       1       1       0       8       1       1       0       8       1
       1       0       8       1       1       0       8       1       1       0
       8       1       1       0       8       1       1       0       8       1
       1       0       8       1       1       0       8       1       1       0
       8       1       1       0       8       1       1       0       8       1
       1       0       8       1       1       0       8       1       1       0
       8       1       1       0       8       1       1       0       8       1
       1       0       8       1       1       0       8       1       1       0
       8       1       1       0       8       1       1       0       8       1
       1       0       8       1       1       0       8       1       1       0
       8       1       1       0       8       1       1       0       8       1
       1       0       8       1       1       0       8       1       1       0
       8       1       1       0       8       1       1       0       8       1
       1       0       8       1       1       0       8       1       1       0
       8       1       1       0       8       1       1       0       8       1
       1       0       8       1       1       0       8       1       1       0
       8       1       1       0       8       1       1       0       8       1
       1       0       8       1       1       0       8       1       1       0
       8       1       1       0       8       1       1       0       8       1
       1       0       8       1       1       0       8       1       1       0
       8       1       1       0       8       1       1       0       8       1
       1       0       8       1       1       0       8       1       1       0
       8       1       1       0       8       1       1       0       8       1
       1       0       8       1       1       0       8       1       1       0
       8       1       1       0       8       1       1       0       8       1
       1       0       8       1       1       0       8       1       1       0
       8       1       1       0       8       1       1       0       8       1
       1       0       8       1       1       0       8       1       1       0
       8       1       1       0       8       1       1       0       8       1
       1       0       8       1       1       0       8       1       1       0
       8       1       1       0       8       1       1       0       8       1
       1       0       8       1       1       0       8       1       1       0
       8       1       1       0       8       1       1       0       8       1
       1       0       8       1       1       0       8       1       1       0
       8       1       1       0       8       1       1       0       8       1
       1       0       8       1       1       0       8       1       1       0
       8       1       1       0       8       1       1       0       8       1
       1       0       8       1       1       0       8       1       1       0
       8       1       1       0       8       1       1       0       8       1
       1       0       8       1       1       0       8       1       1       0
       8       1       1       0       8       1       1       0       8       1
       1       0       8       1       1       0       8       1       1       0
       8       1       1       0       8       1       1       0       8       1
       1       0       8       1       1       0       8       1       1       0
       8       1       1       0       8       1       1       0       8       1
       1       0       8       1       1       0       8       1       1       0
       8       1       1       0       8       1       1       0       8       1
       1       0       8       1       1       0       8       1       1       0
       8       1       1       0       8       1       1       0       8       1
       1       0       8       1       1       0       8       1       1       0
       8       1       1       0       8       1       1       0       8       1
       1       0       8       1       1       0       8       1       1       0
       8       1       1       0       8       1       1       0       8       1
       1       0       8       1       1       0       8       1       1       0
       8       1       1       0       8       1       1       0       8       1
       1       0       8       1       1       0       8       1       1       0
       8       1       1       0       8       1       1       0       8       1
       1       0       8       1       1       0       8       1       1       0
       8       1       1       0       8       1       1       0       8       1
       1       0       8       1       1       0       8       1       1       0
       8       1       1       0       8       1       1       0       8       1
       1       0       8       1       1       0       8       1       1       0
       8       1       1       0       8       1       1       0       8       1
       1       0       8       1       1       0       8       1       1       0
       8       1       1       0       8       1       1       0       8       1
       1       0       8       1       1       0       8       1       1       0
       8       1       1       0       8       1       1       0       8       1
       1       0       8       1       1       0       8       1       1       0
       8       1       1       0       8       1       1       0       8       1
       1       0       8       1       1       0       8       1       1       0
       8       1       1       0       8       1       1       0       8       1
       1       0       8       1       1       0       8       1       1       0
       8       1       1       0       8       1       1       0       8       1
       1       0       8       1       1       0       8       1       1       0
       8       1       1       0       8       1       1       0       8       1
       1       0       8       1       1       0       8       1       1       0
       8       1       1       0       8       1       1       0       8       1
       1       0       8       1       1       0       8       1       1       0
       8       1       1       0       8       1       1       0       8       1
       1       0       8       1       1       0       8       1       1       0
       8       1       1       0       8       1       1       0       8       1
       1       0       8       1       1       0       8       1       1       0
       8       1       1       0       8       1       1       0       8       1
       1       0       8       1       1       0       8       1       1       0
       8       1       1       0       8       1       1       0       8       1
       1       0       8       1       1       0       8       1       1       0
       8       1       1       0       8       1       1       0       8       1
       1       0       8       1       1       0       8       1       1       0
       8       1       1       0       8       1       1       0       8       1
       1       0       8       1       1       0       8       1       1       0
       8       1       1       0       8       1       1       0       8       1
       1       0       8       1       1       0       8       1       1       0
       8       1       1       0       8       1       1       0       8       1
       1       0       8       1       1       0       8       1       1       0
       8       1       1       0       8       1       1       0       8       1
       1       0       8       1       1       0       8       1       1       0
       8       1       1       0       8       1       1       0       8       1
       1       0       8       1       1       0       8       1       1       0
       8       1       1       0       8       1       1       0       8       1
       1       0       8       1       1       0       8       1       1       0
       8       1       1       0       8       1       1       0       8       1
       1       0       8       1       1       0       8       1       1       0
       8       1       1       0       8       1       1       0       8       1
       1       0       8       1       1       0       8       1       1       0
       8       1       1       0       8       1       1       0       8       1
       1       0       8       1       1       0       8       1       1       0
       8       1       1       0       8       1       1       0       8       1
       1       0       8       1       1       0       8       1       1       0
       8       1       1       0       8       1       1       0       8       1
       1       0       8       1       1       0       8       1       1       0
       8       1       1       0       8       1       1       0       8       1
       1       0       8       1       1       0       8       1       1       0
       8       1       1       0       8       1       1       0       8       1
       1       0       8       1       1       0       8       1       1       0
       8       1       1       0       8       1       1       0       8       1
       1       0       8       1       1       0       8       1       1       0
       8       1       1       0       8       1       1       0       8       1
       1       0       8       1       1       0       8       1       1       0
       8       1       1       0       8       1       1       0       8       1
       1       0       8       1       1       0       8       1       1       0
       8       1       1       0       8       1       1       0       8       1
       1       0       8       1       1       0       8       1       1       0
       8       1       1       0       8       1       1       0       8       1
       1       0       8       1       1       0       8       1       1       0
       8       1       1       0       8       1       1       0       8       1
       1       0       8       1       1       0       8       1       1       0
       8       1       1       0       8       1       1       0       8       1
       1       0       8       1       1       0       8       1       1       0
       8       1       1       0       8       1       1       0       8       1
       1       0       8       1       1       0       8       1       1       0
       8       1       1       0       8       1       1       0       8       1
       1       0       8       1       1       0       8       1       1       0
       8       1       1       0       8       1       1       0       8       1
       1       0       8       1       1       0       8       1       1       0
       8       1       1       0       8       1       1       0       8       1
       1       0       8       1       1       0       8       1       1       0
       8       1       1       0       8       1       1       0       8       1
       1       0       8       1       1       0       8       1       1       0
       8       1       1       0       8       1       1       0       8       1
       1       0       8       1       1       0       8       1       1       0
       8       1       1       0       8       1       1       0       8       1
       1       0       8       1       1       0       8       1       1       0
       8       1       1       0       8       1       1       0       8       1
       1       0       8       1       1       0       8       1       1       0
       8       1       1       0       8       1       1       0       8       1
       1       0       8       1       1       0       8       1       1       0
       8       1       1       0       8       1       1       0       8       1
       1       0       8       1       1       0       8       1       1       0
       8       1       1       0       8       1       1       0       8       1
       1       0       8       1       1       0       8       1       1       0
       8       1       1       0       8       1       1       0       8       1
       1       0       8       1       1       0       8       1       1       0
       8       1       1       0       8       1       1       0       8       1
       1       0       8       1       1       0       8       1       1       0
       8       1       1       0       8       1       1       0       8       1
       1       0       8       1       1       0       8       1       1       0
       8       1       1       0       8       1       1       0       8       1
       1       0       8       1       1       0       8       1       1       0
       8       1       1       0       8       1       1       0       8       1
       1       0       8       1       1       0       8       1       1       0
       8       1       1       0       8       1       1       0       8       1
       1       0       8       1       1       0       8       1       1       0
       8       1       1       0       8       1       1       0       8       1
       1       0       8       1       1       0       8       1       1       0
       8       1       1       0       8       1       1       0       8       1
       1       0       8       1       1       0       8       1       1       0
       8       1       1       0       8       1       1       0       8       1
       1       0       8       1       1       0       8       1       1       0
       8       1       1       0       8       1       1       0       8       1
       1       0       8       1       1       0       8       1       1       0
       8       1       1       0       8       1       1       0       8       1
       1       0       8       1       1       0       8       1       1       0
       8       1       1       0       8       1       1       0       8       1
       1       0       8       1       1       0       8       1       1       0
       8       1       1       0       8       1       1       0       8       1
       1       0       8       1       1       0       8       1       1       0
       8       1       1       0       8       1       1       0       8       1
       1       0       8       1       1       0       8       1       1       0
       8       1       1       0       8       1       1       0       8       1
       1       0       8       1       1       0       8       1       1       0
       8       1       1       0       8       1       1       0       8       1
       1       0       8       1       1       0       8       1       1       0
       8       1       1       0       8       1       1       0       8       1
       1       0       8       1       1       0       8       1       1       0
       8       1       1       0       8       1       1       0       8       1
       1       0       8       1       1       0       8       1       1       0
       8       1       1       0       8       1       1       0       8       1
       1       0       8       1       1       0       8       1       1       0
       8       1       1       0       8       1       1       0       8       1
       1       0       8       1       1       0       8       1       1       0
       8       1       1       0       8       1       1       0       8       1
       1       0       8       1       1       0       8       1       1       0
       8       1       1       0       8       1       1       0       8       1
       1       0       8       1       1       0       8       1       1       0
       8       1       1       0       8       1       1       0       8       1
       1       0       8       1       1       0       8       1       1       0
       8       1       1       0       8       1       1       0       8       1
       1       0       8       1       1       0       8       1       1       0
       8       1       1       0       8       1       1       0       8       1
       1       0       8       1       1       0       8       1       1       0
       8       1       1       0       8       1       1       0       8       1
       1       0       8       1       1       0       8       1       1       0
       8       1       1       0       8       1       1       0       8       1
       1       0       8       1       1       0       8       1       1       0
       8       1       1       0       8       1       1       0       8       1
       1       0       8       1       1       0       8       1       1       0
       8       1       1       0       8       1       1       0       8       1
       1       0       8       1       1       0       8       1       1       0
       8       1       1       0       8       1       1       0       8       1
       1       0       8       1       1       0       8       1       1       0
       8       1       1       0       8       1       1       0       8       1
       1       0       8       1       1       0       8       1       1       0
       8       1       1       0       8       1       1       0       8       1
       1       0       8       1       1       0       8       1       1       0
       8       1       1       0       8       1       1       0       8       1
       1       0       8       1       1       0       8       1       1       0
       8       1       1       0       8       1       1       0       8       1
       1       0       8       1       1       0       8       1       1       0
       8       1       1       0       8       1       1       0       8       1
       1       0       8       1       1       0       8       1       1       0
       8       1       1       0       8       1       1       0       8       1
       1       0       8       1       1       0       8       1       1       0
       8       1       1       0       8       1       1       0       8       1
       1       0       8       1       1       0       8       1       1       0
       8       1       1       0       8       1       1       0       8       1
       1       0       8       1       1       0       8       1       1       0
       8       1       1       0       8       1       1       0       8       1
       1       0       8       1       1       0       8       1       1       0
       8       1       1       0       8       1       1       0       8       1
       1       0       8       1       1       0       8       1       1       0
       8       1       1       0       8       1       1       0       8       1
       1       0       8       1       1       0       8       1       1       0
       8       1       1       0       8       1       1       0       8       1
       1       0       8       1       1       0       8       1       1       0
       8       1       1       0       8       1       1       0       8       1
       1       0       8       1       1       0       8       1       1       0
       8       1       1       0       8       1       1       0       8       1
       1       0       8       1       1       0       8       1       1       0
       8       1       1       0       8       1       1       0       8       1
       1       0       8       1       1       0       8       1       1       0
       8       1       1       0       8       1       1       0       8       1
       1       0       8       1       1       0       8       1       1       0
       8       1       1       0       8       1       1       0       8       1
       1       0       8       1       1       0       8       1       1       0
       8       1       1       0       8       1       1       0       8       1
       1       0       8       1       1       0       8       1       1       0
       8       1       1       0       8       1       1       0       8       1
       1       0       8       1       1       0       8       1       1       0
       8       1       1       0       8       1       1       0       8       1
       1       0       8       1       1       0       8       1       1       0
       8       1       1       0       8       1       1       0       8       1
       1       0       8       1       1       0       8       1       1       0
       8       1       1       0       8       1       1       0       8       1
       1       0       8       1       1       0       8       1       1       0
       8       1       1       0       8       1       1       0       8       1
       1       0       8       1       1       0       8       1       1       0
       8       1       1       0       8       1       1       0       8       1
       1       0       8       1       1       0       8       1       1       0
       8       1       1       0       8       1       1       0       8       1
       1       0       8       1       1       0       8       1       1       0
       8       1       1       0       8       1       1       0       8       1
       1       0       8       1       1       0       8       1       1       0
       8       1       1       0       8       1       1       0       8       1
       1       0       8       1       1       0       8       1       1       0
       8       1       1       0       8       1       1       0       8       1
       1       0       8       1       1       0       8       1       1       0
       8       1       1       0       8       1       1       0       8       1
       1       0       8       1       1       0       8       1       1       0
       8       1       1       0       8       1       1       0       8       1
       1       0       8       1       1       0       8       1       1       0
       8       1       1       0       8       1       1       0       8       1
       1       0       8       1       1       0       8       1       1       0
       8       1       1       0       8       1       1       0       8       1
       1       0       8       1       1       0       8       1       1       0
       8       1       1       0       8       1       1       0       8       1
       1       0       8       1       1       0       8       1       1       0
       8       1       1       0       8       1       1       0       8       1
       1       0       8       1       1       0       8       1       1       0
       8       1       1       0       8       1       1       0       8       1
       1       0       8       1       1       0       8       1       1       0
       8       1       1       0       8       1       1       0       8       1
       1       0       8       1       1       0       8       1       1       0
       8       1       1       0       8       1       1       0       8       1
       1       0       8       1       1       0       8       1       1       0
       8       1       1       0       8       1       1       0       8       1
       1       0       8       1       1       0       8       1       1       0
       8       1       1       0       8       1       1       0       8       1
       1       0       8       1       1       0       8       1       1       0
       8       1       1       0       8       1       1       0       8       1
       1       0       8       1       1       0       8       1       1       0
       8       1       1       0       8       1       1       0       8       1
       1       0       8       1       1       0       8       1       1       0
       8       1       1       0       8       1       1       0       8       1
       1       0       8       1       1       0       8       1       1       0
       8       1       1       0       8       1       1       0       8       1
       1       0       8       1       1       0       8       1       1       0
       8       1       1       0       8       1       1       0       8       1
       1       0       8       1       1       0       8       1       1       0
       8       1       1       0       8       1       1       0       8       1
       1       0       8       1       1       0       8       1       1       0
       8       1       1       0       8       1       1       0       8       1
       1       0       8       1       1       0       8       1       1       0
       8       1       1       0       8       1       1       0       8       1
       1       0       8       1       1       0       8       1       1       0
       8       1       1       0       8       1       1       0       8       1
       1       0       8       1       1       0       8       1       1       0
       8       1       1       0       8       1       1       0       8       1
       1       0       8       1       1       0       8       1       1       0
       8       1       1       0       8       1       1       0       8       1
       1       0       8       1       1       0       8       1       1       0
       8       1       1       0       8       1       1       0       8       1
       1       0       8       1       1       0       8       1       1       0
       8       1       1       0       8       1       1       0       8       1
       1       0       8       1       1       0       8       1       1       0
       8       1       1       0       8       1       1       0       8       1
       1       0       8       1       1       0       8       1       1       0
       8       1       1       0       8       1       1       0       8       1
       1       0       8       1       1       0       8       1       1       0
       8       1       1       0       8       1       1       0       8       1
       1       0       8       1       1       0       8       1       1       0
       8       1       1       0       8       1       1       0       8       1
       1       0       8       1       1       0       8       1       1       0
       8       1       1       0       8       1       1       0       8       1
       1       0       8       1       1       0       8       1       1       0
       8       1       1       0       8       1       1       0       8       1
       1       0       8       1       1       0       8       1       1       0
       8       1       1       0       8       1       1       0       8       1
       1       0       8       1       1       0       8       1       1       0
       8       1       1       0       8       1       1       0       8       1
       1       0       8       1       1       0       8       1       1       0
       8       1       1       0       8       1       1       0       8       1
       1       0       8       1       1       0       8       1       1       0
       8       1       1       0       8       1       1       0       8       1
       1       0       8       1       1       0       8       1       1       0
       8       1       1       0       8       1       1       0       8       1
       1       0       8       1       1       0       8       1       1       0
       8       1       1       0       8       1       1       0       8       1
       1       0       8       1       1       0       8       1       1       0
       8       1       1       0       8       1       1       0       8       1
       1       0       8       1       1       0       8       1       1       0
       8       1       1       0       8       1       1       0       8       1
       1       0       8       1       1       0       8       1       1       0
       8       1       1       0       8       1       1       0       8       1
       1       0       8       1       1       0       8       1       1       0
       8       1       1       0       8       1       1       0       8       1
       1       0       8       1       1       0       8       1       1       0
       8       1       1       0       8       1       1       0       8       1
       1       0       8       1       1       0       8       1       1       0
       8       1       1       0       8       1       1       0       8       1
       1       0       8       1       1       0       8       1       1       0
       8       1       1       0       8       1       1       0       8       1
       1       0       8       1       1       0       8       1       1       0
       8       1       1       0       8       1       1       0       8       1
       1       0       8       1       1       0       8       1       1       0
       8       1       1       0       8       1       1       0       8       1
       1       0       8       1       1       0       8       1       1       0
       8       1       1       0       8       1       1       0       8       1
       1       0       8       1       1       0       8       1       1       0
       8       1       1       0       8       1       1       0       8       1
       1       0       8       1       1       0       8       1       1       0
       8       1       1       0       8       1       1       0       8       1
       1       0       8       1       1       0       8       1       1       0
       8       1       1       0       8       1       1       0       8       1
       1       0       8       1       1       0       8       1       1       0
       8       1       1       0       8       1       1       0       8       1
       1       0       8       1       1       0       8       1       1       0
       8       1       1       0       8       1       1       0       8       1
       1       0       8       1       1       0       8       1       1       0
       8       1       1       0       8       1       1       0       8       1
       1       0       8       1       1       0       8       1       1       0
       8       1       1       0       8       1       1       0       8       1
       1       0       8       1       1       0       8       1       1       0
       8       1       1       0       8       1       1       0       8       1
       1       0       8       1       1       0       8       1       1       0
       8       1       1       0       8       1       1       0       8       1
       1       0       8       1       1       0       8       1       1       0
       8       1       1       0       8       1       1       0       8       1
       1       0       8       1       1       0       8       1       1       0
       8       1       1       0       8       1       1       0       8       1
       1       0       8       1       1       0       8       1       1       0
       8       1       1       0       8       1       1       0       8       1
       1       0       8       1       1       0       8       1       1       0
       8       1       1       0       8       1       1       0       8       1
       1       0       8       1       1       0       8       1       1       0
       8       1       1       0       8       1       1       0       8       1
       1       0       8       1       1       0       8       1       1       0
       8       1       1       0       8       1       1       0       8       1
       1       0       8       1       1       0       8       1       1       0
       8       1       1       0       8       1       1       0       8       1
       1       0       8       1       1       0       8       1       1       0
       8       1       1       0       8       1       1       0       8       1
       1       0       8       1       1       0       8       1       1       0
       8       1       1       0       8       1       1       0       8       1
       1       0       8       1       1       0       8       1       1       0
       8       1       1       0       8       1       1       0       8       1
       1       0       8       1       1       0       8       1       1       0
       8       1       1       0       8       1       1       0       8       1
       1       0       8       1       1       0       8       1       1       0
       8       1       1       0       8       1       1       0       8       1
       1       0       8       1       1       0       8       1       1       0
       8       1       1       0       8       1       1       0       8       1
       1       0       8       1       1       0       8       1       1       0
       8       1       1       0       8       1       1       0       8       1
       1       0       8       1       1       0       8       1       1       0
       8       1       1       0       8       1       1       0       8       1
       1       0       8       1       1       0       8       1       1       0
       8       1       1       0       8       1       1       0       8       1
       1       0       8       1       1       0       8       1       1       0
       8       1       1       0       8       1       1       0       8       1
       1       0       8       1       1       0       8       1       1       0
       8       1       1       0       8       1       1       0       8       1
       1       0       8       1       1       0       8       1       1       0
       8       1       1       0       8       1       1       0       8       1
       1       0       8       1       1       0       8       1       1       0
       8       1       1       0       8       1       1       0       8       1
       1       0       8       1       1       0       8       1       1       0
       8       1       1       0       8       1       1       0       8       1
       1       0       8       1       1       0       8       1       1       0
       8       1       1       0       8       1       1       0       8       1
       1       0       8       1       1       0       8       1       1       0
       8       1       1       0       8       1       1       0       8       1
       1       0       8       1       1       0       8       1       1       0
       8       1       1       0       8       1       1       0       8       1
       1       0       8       1       1       0       8       1       1       0
       8       1       1       0       8       1       1       0       8       1
       1       0       8       1       1       0       8       1       1       0
       8       1       1       0       8       1       1       0       8       1
       1       0       8       1       1       0       8       1       1       0
       8       1       1       0       8       1       1       0       8       1
       1       0       8       1       1       0       8       1       1       0
       8       1       1       0       8       1       1       0       8       1
       1       0       8       1       1       0       8       1       1       0
       8       1       1       0       8       1       1       0       8       1
       1       0       8       1       1       0       8       1       1       0
       8       1       1       0       8       1       1       0       8       1
       1       0       8       1       1       0       8       1       1       0
       8       1       1       0       8       1       1       0       8       1
       1       0       8       1       1       0       8       1       1       0
       8       1       1       0       8       1       1       0       8       1
       1       0       8       1       1       0       8       1       1       0
       8       1       1       0       8       1       1       0       8       1
       1       0       8       1       1       0       8       1       1       0
       8       1       1       0       8       1       1       0       8       1
       1       0       8       1       1       0       8       1       1       0
       8       1       1       0       8       1       1       0       8       1
       1       0       8       1       1       0       8       1       1       0
       8       1       1       0       8       1       1       0       8       1
       1       0       8       1       1       0       8       1       1       0
       8       1       1       0       8       1       1       0       8       1
       1       0       8       1       1       0       8       1       1       0
       8       1       1       0       8       1       1       0       8       1
       1       0       8       1       1       0       8       1       1       0
       8       1       1       0       8       1       1       0       8       1
       1       0       8       1       1       0       8       1       1       0
       8       1       1       0       8       1       1       0       8       1
       1       0       8       1       1       0       8       1       1       0
       8       1       1       0       8       1       1       0       8       1
       1       0       8       1       1       0       8       1       1       0
       8       1       1       0       8       1       1       0       8       1
       1       0       8       1       1       0       8       1       1       0
       8       1       1       0       8       1       1       0       8       1
       1       0       8       1       1       0       8       1       1       0
       8       1       1       0       8       1       1       0       8       1
       1       0       8       1       1       0       8       1       1       0
       8       1       1       0       8       1       1       0       8       1
       1       0       8       1       1       0       8       1       1       0
       8       1       1       0       8       1       1       0       8       1
       1       0       8       1       1       0       8       1       1       0
       8       1       1       0       8       1       1       0       8       1
       1       0       8       1       1       0       8       1       1       0
       8       1       1       0       8       1       1       0       8       1
       1       0       8       1       1       0       8       1       1       0
       8       1       1       0       8       1       1       0       8       1
       1       0       8       1       1       0       8       1       1       0
       8       1       1       0       8       1       1       0       8       1
       1       0       8       1       1       0       8       1       1       0
       8       1       1       0       8       1       1       0       8       1
       1       0       8       1       1       0       8       1       1       0
       8       1       1       0       8       1       1       0       8       1
       1       0       8       1       1       0       8       1       1       0
       8       1       1       0       8       1       1       0       8       1
       1       0       8       1       1       0       8       1       1       0
       8       1       1       0       8       1       1       0       8       1
       1       0       8       1       1       0       8       1       1       0
       8       1       1       0       8       1       1       0       8       1
       1       0       8       1       1       0       8       1       1       0
       8       1       1       0       8       1       1       0       8       1
       1       0       8       1       1       0       8       1       1       0
       8       1       1       0       8       1       1       0       8       1
       1       0       8       1       1       0       8       1       1       0
       8       1       1       0       8       1       1       0       8       1
       1       0       8       1       1       0       8       1       1       0
       8       1       1       0       8       1       1       0       8       1
       1       0       8       1       1       0       8       1       1       0
       8       1       1       0       8       1       1       0       8       1
       1       0       8       1       1       0       8       1       1       0
       8       1       1       0       8       1       1       0       8       1
       1       0       8       1       1       0       8       1       1       0
       8       1       1       0       8       1       1       0       8       1
       1       0       8       1       1       0       8       1       1       0
       8       1       1       0       8       1       1       0       8       1
       1       0       8       1       1       0       8       1       1       0
       8       1       1       0       8       1       1       0       8       1
       1       0       8       1       1       0       8       1       1       0
       8       1       1       0       8       1       1       0       8       1
       1       0       8       1       1       0       8       1       1       0
       8       1       1       0       8       1       1       0       8       1
       1       0       8       1       1       0       8       1       1       0
       8       1       1       0       8       1       1       0       8       1
       1       0       8       1       1       0       8       1       1       0
       8       1       1       0       8       1       1       0       8       1
       1       0       8       1       1       0       8       1       1       0
       8       1       1       0       8       1       1       0       8       1
       1       0       8       1       1       0       8       1       1       0
       8       1       1       0       8       1       1       0       8       1
       1       0       8       1       1       0       8       1       1       0
       8       1       1       0       8       1       1       0       8       1
       1       0       8       1       1       0       8       1       1       0
       8       1       1       0       8       1       1       0       8       1
       1       0       8       1       1       0       8       1       1       0
       8       1       1       0       8       1       1       0       8       1
       1       0       8       1       1       0       8       1       1       0
       8       1       1       0       8       1       1       0       8       1
       1       0       8       1       1       0       8       1       1       0
       8       1       1       0       8       1       1       0       8       1
       1       0       8       1       1       0       8       1       1       0
       8       1       1       0       8       1       1       0       8       1
       1       0       8       1       1       0       8       1       1       0
       8       1       1       0       8       1       1       0       8       1
       1       0       8       1       1       0       8       1       1       0
       8       1       1       0       8       1       1       0       8       1
       1       0       8       1       1       0       8       1       1       0
       8       1       1       0       8       1       1       0       8       1
       1       0       8       1       1       0       8       1       1       0
       8       1       1       0       8       1       1       0       8       1
       1       0       8       1       1       0       8       1       1       0
       8       1       1       0       8       1       1       0       8       1
       1       0       8       1       1       0       8       1       1       0
       8       1       1       0       8       1       1       0       8       1
       1       0       8       1       1       0       8       1       1       0
       8       1       1       0       8       1       1       0       8       1
       1       0       8       1       1       0       8       1       1       0
       8       1       1       0       8       1       1       0       8       1
       1       0       8       1       1       0       8       1       1       0
       8       1       1       0       8       1       1       0       8       1
       1       0       8       1       1       0       8       1       1       0
       8       1       1       0       8       1       1       0       8       1
       1       0       8       1       1       0       8       1       1       0
       8       1       1       0       8       1       1       0       8       1
       1       0       8       1       1       0       8       1       1       0
       8       1       1       0       8       1       1       0       8       1
       1       0       8       1       1       0       8       1       1       0
       8       1       1       0       8       1       1       0       8       1
       1       0       8       1       1       0       8       1       1       0
       8       1       1       0       8       1       1       0       8       1
       1       0       8       1       1       0       8       1       1       0
       8       1       1       0       8       1       1       0       8       1
       1       0       8       1       1       0       8       1       1       0
       8       1       1       0       8       1       1       0       8       1
       1       0       8       1       1       0       8       1       1       0
       8       1       1       0       8       1       1       0       8       1
       1       0       8       1       1       0       8       1       1       0
       8       1       1       0       8       1       1       0       8       1
       1       0       8       1       1       0       8       1       1       0
       8       1       1       0       8       1       1       0       8       1
       1       0       8       1       1       0       8       1       1       0
       8       1       1       0       8       1       1       0       8       1
       1       0       8       1       1       0       8       1       1       0
       8       1       1       0       8       1       1       0       8       1
       1       0       8       1       1       0       8       1       1       0
       8       1       1       0       8       1       1       0       8       1
       1       0       8       1       1       0       8       1       1       0
       8       1       1       0       8       1       1       0       8       1
       1       0       8       1       1       0       8       1       1       0
       8       1       1       0       8       1       1       0       8       1
       1       0       8       1       1       0       8       1       1       0
       8       1       1       0       8       1       1       0       8       1
       1       0       8       1       1       0       8       1       1       0
       8       1       1       0       8       1       1       0       8       1
       1       0       8       1       1       0       8       1       1       0
       8       1       1       0       8       1       1       0       8       1
       1       0       8       1       1       0       8       1       1       0
       8       1       1       0       8       1       1       0       8       1
       1       0       8       1       1       0       8       1       1       0
       8       1       1       0       8       1       1       0       8       1
       1       0       8       1       1       0       8       1       1       0
       8       1       1       0       8       1       1       0       8       1
       1       0       8       1       1       0       8       1       1       0
       8       1       1       0       8       1       1       0       8       1
       1       0       8       1       1       0       8       1       1       0
       8       1       1       0       8       1       1       0       8       1
       1       0       8       1       1       0       8       1       1       0
       8       1       1       0       8       1       1       0       8       1
       1       0       8       1       1       0       8       1       1       0
       8       1       1       0       8       1       1       0       8       1
       1       0       8       1       1       0       8       1       1       0
       8       1       1       0       8       1       1       0       8       1
       1       0       8       1       1       0       8       1       1       0
       8       1       1       0       8       1       1       0       8       1
       1       0       8       1       1       0       8       1       1       0
       8       1       1       0       8       1       1       0       8       1
       1       0       8       1       1       0       8       1       1       0
       8       1       1       0       8       1       1       0       8       1
       1       0       8       1       1       0       8       1       1       0
       8       1       1       0       8       1       1       0       8       1
       1       0       8       1       1       0       8       1       1       0
       8       1       1       0       8       1       1       0       8       1
       1       0       8       1       1       0       8       1       1       0
       8       1       1       0       8       1       1       0       8       1
       1       0       8       1       1       0       8       1       1       0
       8       1       1       0       8       1       1       0       8       1
       1       0       8       1       1       0       8       1       1       0
       8       1       1       0       8       1       1       0       8       1
       1       0       8       1       1       0       8       1       1       0
       8       1       1       0       8       1       1       0       8       1
       1       0       8       1       1       0       8       1       1       0
       8       1       1       0       8       1       1       0       8       1
       1       0       8       1       1       0       8       1       1       0
       8       1       1       0       8       1       1       0       8       1
       1       0       8       1       1       0       8       1       1       0
       8       1       1       0       8       1       1       0       8       1
       1       0       8       1       1       0       8       1       1       0
       8       1       1       0       8       1       1       0       8       1
       1       0       8       1       1       0       8       1       1       0
       8       1       1       0       8       1       1       0       8       1
       1       0       8       1       1       0       8       1       1       0
       8       1       1       0       8       1       1       0       8       1
       1       0       8       1       1       0       8       1       1       0
       8       1       1       0       8       1       1       0       8       1
       1       0       8       1       1       0       8       1       1       0
       8       1       1       0       8       1       1       0       8       1
       1       0       8       1       1       0       8       1       1       0
       8       1       1       0       8       1       1       0       8       1
       1       0       8       1       1       0       8       1       1       0
       8       1       1       0       8       1       1       0       8       1
       1       0       8       1       1       0       8       1       1       0
       8       1       1       0       8       1       1       0       8       1
       1       0       8       1       1       0       8       1       1       0
       8       1       1       0       8       1       1       0       8       1
       1       0       8       1       1       0       8       1       1       0
       8       1       1       0       8       1       1       0       8       1
       1       0       8       1       1       0       8       1       1       0
       8       1       1       0       8       1       1       0       8       1
       1       0       8       1       1       0       8       1       1       0
       8       1       1       0       8       1       1       0       8       1
       1       0
%FLAG MASS                                                                      
%FORMAT(5E16.8)                                                                 
  1.00800000E+00  1.20100000E+01  1.00800000E+00  1.00800000E+00  1.20100000E+01
  1.60000000E+01  1.40100000E+01  1.00800000E+00  1.20100000E+01  1.00800000E+00
  1.20100000E+01  1.00800000E+00  1.00800000E+00  1.20100000E+01  1.20100000E+01
  1.00800000E+00  1.20100000E+01  1.00800000E+00  1.20100000E+01  1.60000000E+01
  1.00800000E+00  1.20100000E+01  1.00800000E+00  1.20100000E+01  1.00800000E+00
  1.20100000E+01  1.60000000E+01  1.40100000E+01  1.00800000E+00  1.20100000E+01
  1.00800000E+00  1.20100000E+01  1.00800000E+00  1.00800000E+00  1.00800000E+00
  1.20100000E+01  1.60000000E+01  1.40100000E+01  1.00800000E+00  1.20100000E+01
  1.00800000E+00  1.00800000E+00  1.20100000E+01  1.60000000E+01  1.40100000E+01
  1.00800000E+00  1.20100000E+01  1.00800000E+00  1.20100000E+01  1.00800000E+00
  1.00800000E+00  1.20100000E+01  1.20100000E+01  1.00800000E+00  1.20100000E+01
  1.00800000E+00  1.20100000E+01  1.00800000E+00  1.20100000E+01  1.00800000E+00
  1.20100000E+01  1.00800000E+00  1.20100000E+01  1.60000000E+01  1.40100000E+01
  1.00800000E+00  1.20100000E+01  1.00800000E+00  1.00800000E+00  1.00800000E+00
  1.60000000E+01  1.00800000E+00  1.00800000E+00  0.00000000E+00  1.60000000E+01
  1.00800000E+00  1.00800000E+00  0.00000000E+00  1.60000000E+01  1.00800000E+00
  1.00800000E+00  0.00000000E+00  1.60000000E+01  1.00800000E+00  1.00800000E+00
  0.00000000E+00  1.60000000E+01  1.00800000E+00  1.00800000E+00  0.00000000E+00
  1.60000000E+01  1.00800000E+00  1.00800000E+00  0.00000000E+00  1.60000000E+01
  1.00800000E+00  1.00800000E+00  0.00000000E+00  1.60000000E+01  1.00800000E+00
  1.00800000E+00  0.00000000E+00  1.60000000E+01  1.00800000E+00  1.00800000E+00
  0.00000000E+00  1.60000000E+01  1.00800000E+00  1.00800000E+00  0.00000000E+00
  1.60000000E+01  1.00800000E+00  1.00800000E+00  0.00000000E+00  1.60000000E+01
  1.00800000E+00  1.00800000E+00  0.00000000E+00  1.60000000E+01  1.00800000E+00
  1.00800000E+00  0.00000000E+00  1.60000000E+01  1.00800000E+00  1.00800000E+00
  0.00000000E+00  1.60000000E+01  1.00800000E+00  1.00800000E+00  0.00000000E+00
  1.60000000E+01  1.00800000E+00  1.00800000E+00  0.00000000E+00  1.60000000E+01
  1.00800000E+00  1.00800000E+00  0.00000000E+00  1.60000000E+01  1.00800000E+00
  1.00800000E+00  0.00000000E+00  1.60000000E+01  1.00800000E+00  1.00800000E+00
  0.00000000E+00  1.60000000E+01  1.00800000E+00  1.00800000E+00  0.00000000E+00
  1.60000000E+01  1.00800000E+00  1.00800000E+00  0.00000000E+00  1.60000000E+01
  1.00800000E+00  1.00800000E+00  0.00000000E+00  1.60000000E+01  1.00800000E+00
  1.00800000E+00  0.00000000E+00  1.60000000E+01  1.00800000E+00  1.00800000E+00
  0.00000000E+00  1.60000000E+01  1.00800000E+00  1.00800000E+00  0.00000000E+00
  1.60000000E+01  1.00800000E+00  1.00800000E+00  0.00000000E+00  1.60000000E+01
  1.00800000E+00  1.00800000E+00  0.00000000E+00  1.60000000E+01  1.00800000E+00
  1.00800000E+00  0.00000000E+00  1.60000000E+01  1.00800000E+00  1.00800000E+00
  0.00000000E+00  1.60000000E+01  1.00800000E+00  1.00800000E+00  0.00000000E+00
  1.60000000E+01  1.00800000E+00  1.00800000E+00  0.00000000E+00  1.60000000E+01
  1.00800000E+00  1.00800000E+00  0.00000000E+00  1.60000000E+01  1.00800000E+00
  1.00800000E+00  0.00000000E+00  1.60000000E+01  1.00800000E+00  1.00800000E+00
  0.00000000E+00  1.60000000E+01  1.00800000E+00  1.00800000E+00  0.00000000E+00
  1.60000000E+01  1.00800000E+00  1.00800000E+00  0.00000000E+00  1.60000000E+01
  1.00800000E+00  1.00800000E+00  0.00000000E+00  1.60000000E+01  1.00800000E+00
  1.00800000E+00  0.00000000E+00  1.60000000E+01  1.00800000E+00  1.00800000E+00
  0.00000000E+00  1.60000000E+01  1.00800000E+00  1.00800000E+00  0.00000000E+00
  1.60000000E+01  1.00800000E+00  1.00800000E+00  0.00000000E+00  1.60000000E+01
  1.00800000E+00  1.00800000E+00  0.00000000E+00  1.60000000E+01  1.00800000E+00
  1.00800000E+00  0.00000000E+00  1.60000000E+01  1.00800000E+00  1.00800000E+00
  0.00000000E+00  1.60000000E+01  1.00800000E+00  1.00800000E+00  0.00000000E+00
  1.60000000E+01  1.00800000E+00  1.00800000E+00  0.00000000E+00  1.60000000E+01
  1.00800000E+00  1.00800000E+00  0.00000000E+00  1.60000000E+01  1.00800000E+00
  1.00800000E+00  0.00000000E+00  1.60000000E+01  1.00800000E+00  1.00800000E+00
  0.00000000E+00  1.60000000E+01  1.00800000E+00  1.00800000E+00  0.00000000E+00
  1.60000000E+01  1.00800000E+00  1.00800000E+00  0.00000000E+00  1.60000000E+01
  1.00800000E+00  1.00800000E+00  0.00000000E+00  1.60000000E+01  1.00800000E+00
  1.00800000E+00  0.00000000E+00  1.60000000E+01  1.00800000E+00  1.00800000E+00
  0.00000000E+00  1.60000000E+01  1.00800000E+00  1.00800000E+00  0.00000000E+00
  1.60000000E+01  1.00800000E+00  1.00800000E+00  0.00000000E+00  1.60000000E+01
  1.00800000E+00  1.00800000E+00  0.00000000E+00  1.60000000E+01  1.00800000E+00
  1.00800000E+00  0.00000000E+00  1.60000000E+01  1.00800000E+00  1.00800000E+00
  0.00000000E+00  1.60000000E+01  1.00800000E+00  1.00800000E+00  0.00000000E+00
  1.60000000E+01  1.00800000E+00  1.00800000E+00  0.00000000E+00  1.60000000E+01
  1.00800000E+00  1.00800000E+00  0.00000000E+00  1.60000000E+01  1.00800000E+00
  1.00800000E+00  0.00000000E+00  1.60000000E+01  1.00800000E+00  1.00800000E+00
  0.00000000E+00  1.60000000E+01  1.00800000E+00  1.00800000E+00  0.00000000E+00
  1.60000000E+01  1.00800000E+00  1.00800000E+00  0.00000000E+00  1.60000000E+01
  1.00800000E+00  1.00800000E+00  0.00000000E+00  1.60000000E+01  1.00800000E+00
  1.00800000E+00  0.00000000E+00  1.60000000E+01  1.00800000E+00  1.00800000E+00
  0.00000000E+00  1.60000000E+01  1.00800000E+00  1.00800000E+00  0.00000000E+00
  1.60000000E+01  1.00800000E+00  1.00800000E+00  0.00000000E+00  1.60000000E+01
  1.00800000E+00  1.00800000E+00  0.00000000E+00  1.60000000E+01  1.00800000E+00
  1.00800000E+00  0.00000000E+00  1.60000000E+01  1.00800000E+00  1.00800000E+00
  0.00000000E+00  1.60000000E+01  1.00800000E+00  1.00800000E+00  0.00000000E+00
  1.60000000E+01  1.00800000E+00  1.00800000E+00  0.00000000E+00  1.60000000E+01
  1.00800000E+00  1.00800000E+00  0.00000000E+00  1.60000000E+01  1.00800000E+00
  1.00800000E+00  0.00000000E+00  1.60000000E+01  1.00800000E+00  1.00800000E+00
  0.00000000E+00  1.60000000E+01  1.00800000E+00  1.00800000E+00  0.00000000E+00
  1.60000000E+01  1.00800000E+00  1.00800000E+00  0.00000000E+00  1.60000000E+01
  1.00800000E+00  1.00800000E+00  0.00000000E+00  1.60000000E+01  1.00800000E+00
  1.00800000E+00  0.00000000E+00  1.60000000E+01  1.00800000E+00  1.00800000E+00
  0.00000000E+00  1.60000000E+01  1.00800000E+00  1.00800000E+00  0.00000000E+00
  1.60000000E+01  1.00800000E+00  1.00800000E+00  0.00000000E+00  1.60000000E+01
  1.00800000E+00  1.00800000E+00  0.00000000E+00  1.60000000E+01  1.00800000E+00
  1.00800000E+00  0.00000000E+00  1.60000000E+01  1.00800000E+00  1.00800000E+00
  0.00000000E+00  1.60000000E+01  1.00800000E+00  1.00800000E+00  0.00000000E+00
  1.60000000E+01  1.00800000E+00  1.00800000E+00  0.00000000E+00  1.60000000E+01
  1.00800000E+00  1.00800000E+00  0.00000000E+00  1.60000000E+01  1.00800000E+00
  1.00800000E+00  0.00000000E+00  1.60000000E+01  1.00800000E+00  1.00800000E+00
  0.00000000E+00  1.60000000E+01  1.00800000E+00  1.00800000E+00  0.00000000E+00
  1.60000000E+01  1.00800000E+00  1.00800000E+00  0.00000000E+00  1.60000000E+01
  1.00800000E+00  1.00800000E+00  0.00000000E+00  1.60000000E+01  1.00800000E+00
  1.00800000E+00  0.00000000E+00  1.60000000E+01  1.00800000E+00  1.00800000E+00
  0.00000000E+00  1.60000000E+01  1.00800000E+00  1.00800000E+00  0.00000000E+00
  1.60000000E+01  1.00800000E+00  1.00800000E+00  0.00000000E+00  1.60000000E+01
  1.00800000E+00  1.00800000E+00  0.00000000E+00  1.60000000E+01  1.00800000E+00
  1.00800000E+00  0.00000000E+00  1.60000000E+01  1.00800000E+00  1.00800000E+00
  0.00000000E+00  1.60000000E+01  1.00800000E+00  1.00800000E+00  0.00000000E+00
  1.60000000E+01  1.00800000E+00  1.00800000E+00  0.00000000E+00  1.60000000E+01
  1.00800000E+00  1.00800000E+00  0.00000000E+00  1.60000000E+01  1.00800000E+00
  1.00800000E+00  0.00000000E+00  1.60000000E+01  1.00800000E+00  1.00800000E+00
  0.00000000E+00  1.60000000E+01  1.00800000E+00  1.00800000E+00  0.00000000E+00
  1.60000000E+01  1.00800000E+00  1.00800000E+00  0.00000000E+00  1.60000000E+01
  1.00800000E+00  1.00800000E+00  0.00000000E+00  1.60000000E+01  1.00800000E+00
  1.00800000E+00  0.00000000E+00  1.60000000E+01  1.00800000E+00  1.00800000E+00
  0.00000000E+00  1.60000000E+01  1.00800000E+00  1.00800000E+00  0.00000000E+00
  1.60000000E+01  1.00800000E+00  1.00800000E+00  0.00000000E+00  1.60000000E+01
  1.00800000E+00  1.00800000E+00  0.00000000E+00  1.60000000E+01  1.00800000E+00
  1.00800000E+00  0.00000000E+00  1.60000000E+01  1.00800000E+00  1.00800000E+00
  0.00000000E+00  1.60000000E+01  1.00800000E+00  1.00800000E+00  0.00000000E+00
  1.60000000E+01  1.00800000E+00  1.00800000E+00  0.00000000E+00  1.60000000E+01
  1.00800000E+00  1.00800000E+00  0.00000000E+00  1.60000000E+01  1.00800000E+00
  1.00800000E+00  0.00000000E+00  1.60000000E+01  1.00800000E+00  1.00800000E+00
  0.00000000E+00  1.60000000E+01  1.00800000E+00  1.00800000E+00  0.00000000E+00
  1.60000000E+01  1.00800000E+00  1.00800000E+00  0.00000000E+00  1.60000000E+01
  1.00800000E+00  1.00800000E+00  0.00000000E+00  1.60000000E+01  1.00800000E+00
  1.00800000E+00  0.00000000E+00  1.60000000E+01  1.00800000E+00  1.00800000E+00
  0.00000000E+00  1.60000000E+01  1.00800000E+00  1.00800000E+00  0.00000000E+00
  1.60000000E+01  1.00800000E+00  1.00800000E+00  0.00000000E+00  1.60000000E+01
  1.00800000E+00  1.00800000E+00  0.00000000E+00  1.60000000E+01  1.00800000E+00
  1.00800000E+00  0.00000000E+00  1.60000000E+01  1.00800000E+00  1.00800000E+00
  0.00000000E+00  1.60000000E+01  1.00800000E+00  1.00800000E+00  0.00000000E+00
  1.60000000E+01  1.00800000E+00  1.00800000E+00  0.00000000E+00  1.60000000E+01
  1.00800000E+00  1.00800000E+00  0.00000000E+00  1.60000000E+01  1.00800000E+00
  1.00800000E+00  0.00000000E+00  1.60000000E+01  1.00800000E+00  1.00800000E+00
  0.00000000E+00  1.60000000E+01  1.00800000E+00  1.00800000E+00  0.00000000E+00
  1.60000000E+01  1.00800000E+00  1.00800000E+00  0.00000000E+00  1.60000000E+01
  1.00800000E+00  1.00800000E+00  0.00000000E+00  1.60000000E+01  1.00800000E+00
  1.00800000E+00  0.00000000E+00  1.60000000E+01  1.00800000E+00  1.00800000E+00
  0.00000000E+00  1.60000000E+01  1.00800000E+00  1.00800000E+00  0.00000000E+00
  1.60000000E+01  1.00800000E+00  1.00800000E+00  0.00000000E+00  1.60000000E+01
  1.00800000E+00  1.00800000E+00  0.00000000E+00  1.60000000E+01  1.00800000E+00
  1.00800000E+00  0.00000000E+00  1.60000000E+01  1.00800000E+00  1.00800000E+00
  0.00000000E+00  1.60000000E+01  1.00800000E+00  1.00800000E+00  0.00000000E+00
  1.60000000E+01  1.00800000E+00  1.00800000E+00  0.00000000E+00  1.60000000E+01
  1.00800000E+00  1.00800000E+00  0.00000000E+00  1.60000000E+01  1.00800000E+00
  1.00800000E+00  0.00000000E+00  1.60000000E+01  1.00800000E+00  1.00800000E+00
  0.00000000E+00  1.60000000E+01  1.00800000E+00  1.00800000E+00  0.00000000E+00
  1.60000000E+01  1.00800000E+00  1.00800000E+00  0.00000000E+00  1.60000000E+01
  1.00800000E+00  1.00800000E+00  0.00000000E+00  1.60000000E+01  1.00800000E+00
  1.00800000E+00  0.00000000E+00  1.60000000E+01  1.00800000E+00  1.00800000E+00
  0.00000000E+00  1.60000000E+01  1.00800000E+00  1.00800000E+00  0.00000000E+00
  1.60000000E+01  1.00800000E+00  1.00800000E+00  0.00000000E+00  1.60000000E+01
  1.00800000E+00  1.00800000E+00  0.00000000E+00  1.60000000E+01  1.00800000E+00
  1.00800000E+00  0.00000000E+00  1.60000000E+01  1.00800000E+00  1.00800000E+00
  0.00000000E+00  1.60000000E+01  1.00800000E+00  1.00800000E+00  0.00000000E+00
  1.60000000E+01  1.00800000E+00  1.00800000E+00  0.00000000E+00  1.60000000E+01
  1.00800000E+00  1.00800000E+00  0.00000000E+00  1.60000000E+01  1.00800000E+00
  1.00800000E+00  0.00000000E+00  1.60000000E+01  1.00800000E+00  1.00800000E+00
  0.00000000E+00  1.60000000E+01  1.00800000E+00  1.00800000E+00  0.00000000E+00
  1.60000000E+01  1.00800000E+00  1.00800000E+00  0.00000000E+00  1.60000000E+01
  1.00800000E+00  1.00800000E+00  0.00000000E+00  1.60000000E+01  1.00800000E+00
  1.00800000E+00  0.00000000E+00  1.60000000E+01  1.00800000E+00  1.00800000E+00
  0.00000000E+00  1.60000000E+01  1.00800000E+00  1.00800000E+00  0.00000000E+00
  1.60000000E+01  1.00800000E+00  1.00800000E+00  0.00000000E+00  1.60000000E+01
  1.00800000E+00  1.00800000E+00  0.00000000E+00  1.60000000E+01  1.00800000E+00
  1.00800000E+00  0.00000000E+00  1.60000000E+01  1.00800000E+00  1.00800000E+00
  0.00000000E+00  1.60000000E+01  1.00800000E+00  1.00800000E+00  0.00000000E+00
  1.60000000E+01  1.00800000E+00  1.00800000E+00  0.00000000E+00  1.60000000E+01
  1.00800000E+00  1.00800000E+00  0.00000000E+00  1.60000000E+01  1.00800000E+00
  1.00800000E+00  0.00000000E+00  1.60000000E+01  1.00800000E+00  1.00800000E+00
  0.00000000E+00  1.60000000E+01  1.00800000E+00  1.00800000E+00  0.00000000E+00
  1.60000000E+01  1.00800000E+00  1.00800000E+00  0.00000000E+00  1.60000000E+01
  1.00800000E+00  1.00800000E+00  0.00000000E+00  1.60000000E+01  1.00800000E+00
  1.00800000E+00  0.00000000E+00  1.60000000E+01  1.00800000E+00  1.00800000E+00
  0.00000000E+00  1.60000000E+01  1.00800000E+00  1.00800000E+00  0.00000000E+00
  1.60000000E+01  1.00800000E+00  1.00800000E+00  0.00000000E+00  1.60000000E+01
  1.00800000E+00  1.00800000E+00  0.00000000E+00  1.60000000E+01  1.00800000E+00
  1.00800000E+00  0.00000000E+00  1.60000000E+01  1.00800000E+00  1.00800000E+00
  0.00000000E+00  1.60000000E+01  1.00800000E+00  1.00800000E+00  0.00000000E+00
  1.60000000E+01  1.00800000E+00  1.00800000E+00  0.00000000E+00  1.60000000E+01
  1.00800000E+00  1.00800000E+00  0.00000000E+00  1.60000000E+01  1.00800000E+00
  1.00800000E+00  0.00000000E+00  1.60000000E+01  1.00800000E+00  1.00800000E+00
  0.00000000E+00  1.60000000E+01  1.00800000E+00  1.00800000E+00  0.00000000E+00
  1.60000000E+01  1.00800000E+00  1.00800000E+00  0.00000000E+00  1.60000000E+01
  1.00800000E+00  1.00800000E+00  0.00000000E+00  1.60000000E+01  1.00800000E+00
  1.00800000E+00  0.00000000E+00  1.60000000E+01  1.00800000E+00  1.00800000E+00
  0.00000000E+00  1.60000000E+01  1.00800000E+00  1.00800000E+00  0.00000000E+00
  1.60000000E+01  1.00800000E+00  1.00800000E+00  0.00000000E+00  1.60000000E+01
  1.00800000E+00  1.00800000E+00  0.00000000E+00  1.60000000E+01  1.00800000E+00
  1.00800000E+00  0.00000000E+00  1.60000000E+01  1.00800000E+00  1.00800000E+00
  0.00000000E+00  1.60000000E+01  1.00800000E+00  1.00800000E+00  0.00000000E+00
  1.60000000E+01  1.00800000E+00  1.00800000E+00  0.00000000E+00  1.60000000E+01
  1.00800000E+00  1.00800000E+00  0.00000000E+00  1.60000000E+01  1.00800000E+00
  1.00800000E+00  0.00000000E+00  1.60000000E+01  1.00800000E+00  1.00800000E+00
  0.00000000E+00  1.60000000E+01  1.00800000E+00  1.00800000E+00  0.00000000E+00
  1.60000000E+01  1.00800000E+00  1.00800000E+00  0.00000000E+00  1.60000000E+01
  1.00800000E+00  1.00800000E+00  0.00000000E+00  1.60000000E+01  1.00800000E+00
  1.00800000E+00  0.00000000E+00  1.60000000E+01  1.00800000E+00  1.00800000E+00
  0.00000000E+00  1.60000000E+01  1.00800000E+00  1.00800000E+00  0.00000000E+00
  1.60000000E+01  1.00800000E+00  1.00800000E+00  0.00000000E+00  1.60000000E+01
  1.00800000E+00  1.00800000E+00  0.00000000E+00  1.60000000E+01  1.00800000E+00
  1.00800000E+00  0.00000000E+00  1.60000000E+01  1.00800000E+00  1.00800000E+00
  0.00000000E+00  1.60000000E+01  1.00800000E+00  1.00800000E+00  0.00000000E+00
  1.60000000E+01  1.00800000E+00  1.00800000E+00  0.00000000E+00  1.60000000E+01
  1.00800000E+00  1.00800000E+00  0.00000000E+00  1.60000000E+01  1.00800000E+00
  1.00800000E+00  0.00000000E+00  1.60000000E+01  1.00800000E+00  1.00800000E+00
  0.00000000E+00  1.60000000E+01  1.00800000E+00  1.00800000E+00  0.00000000E+00
  1.60000000E+01  1.00800000E+00  1.00800000E+00  0.00000000E+00  1.60000000E+01
  1.00800000E+00  1.00800000E+00  0.00000000E+00  1.60000000E+01  1.00800000E+00
  1.00800000E+00  0.00000000E+00  1.60000000E+01  1.00800000E+00  1.00800000E+00
  0.00000000E+00  1.60000000E+01  1.00800000E+00  1.00800000E+00  0.00000000E+00
  1.60000000E+01  1.00800000E+00  1.00800000E+00  0.00000000E+00  1.60000000E+01
  1.00800000E+00  1.00800000E+00  0.00000000E+00  1.60000000E+01  1.00800000E+00
  1.00800000E+00  0.00000000E+00  1.60000000E+01  1.00800000E+00  1.00800000E+00
  0.00000000E+00  1.60000000E+01  1.00800000E+00  1.00800000E+00  0.00000000E+00
  1.60000000E+01  1.00800000E+00  1.00800000E+00  0.00000000E+00  1.60000000E+01
  1.00800000E+00  1.00800000E+00  0.00000000E+00  1.60000000E+01  1.00800000E+00
  1.00800000E+00  0.00000000E+00  1.60000000E+01  1.00800000E+00  1.00800000E+00
  0.00000000E+00  1.60000000E+01  1.00800000E+00  1.00800000E+00  0.00000000E+00
  1.60000000E+01  1.00800000E+00  1.00800000E+00  0.00000000E+00  1.60000000E+01
  1.00800000E+00  1.00800000E+00  0.00000000E+00  1.60000000E+01  1.00800000E+00
  1.00800000E+00  0.00000000E+00  1.60000000E+01  1.00800000E+00  1.00800000E+00
  0.00000000E+00  1.60000000E+01  1.00800000E+00  1.00800000E+00  0.00000000E+00
  1.60000000E+01  1.00800000E+00  1.00800000E+00  0.00000000E+00  1.60000000E+01
  1.00800000E+00  1.00800000E+00  0.00000000E+00  1.60000000E+01  1.00800000E+00
  1.00800000E+00  0.00000000E+00  1.60000000E+01  1.00800000E+00  1.00800000E+00
  0.00000000E+00  1.60000000E+01  1.00800000E+00  1.00800000E+00  0.00000000E+00
  1.60000000E+01  1.00800000E+00  1.00800000E+00  0.00000000E+00  1.60000000E+01
  1.00800000E+00  1.00800000E+00  0.00000000E+00  1.60000000E+01  1.00800000E+00
  1.00800000E+00  0.00000000E+00  1.60000000E+01  1.00800000E+00  1.00800000E+00
  0.00000000E+00  1.60000000E+01  1.00800000E+00  1.00800000E+00  0.00000000E+00
  1.60000000E+01  1.00800000E+00  1.00800000E+00  0.00000000E+00  1.60000000E+01
  1.00800000E+00  1.00800000E+00  0.00000000E+00  1.60000000E+01  1.00800000E+00
  1.00800000E+00  0.00000000E+00  1.60000000E+01  1.00800000E+00  1.00800000E+00
  0.00000000E+00  1.60000000E+01  1.00800000E+00  1.00800000E+00  0.00000000E+00
  1.60000000E+01  1.00800000E+00  1.00800000E+00  0.00000000E+00  1.60000000E+01
  1.00800000E+00  1.00800000E+00  0.00000000E+00  1.60000000E+01  1.00800000E+00
  1.00800000E+00  0.00000000E+00  1.60000000E+01  1.00800000E+00  1.00800000E+00
  0.00000000E+00  1.60000000E+01  1.00800000E+00  1.00800000E+00  0.00000000E+00
  1.60000000E+01  1.00800000E+00  1.00800000E+00  0.00000000E+00  1.60000000E+01
  1.00800000E+00  1.00800000E+00  0.00000000E+00  1.60000000E+01  1.00800000E+00
  1.00800000E+00  0.00000000E+00  1.60000000E+01  1.00800000E+00  1.00800000E+00
  0.00000000E+00  1.60000000E+01  1.00800000E+00  1.00800000E+00  0.00000000E+00
  1.60000000E+01  1.00800000E+00  1.00800000E+00  0.00000000E+00  1.60000000E+01
  1.00800000E+00  1.00800000E+00  0.00000000E+00  1.60000000E+01  1.00800000E+00
  1.00800000E+00  0.00000000E+00  1.60000000E+01  1.00800000E+00  1.00800000E+00
  0.00000000E+00  1.60000000E+01  1.00800000E+00  1.00800000E+00  0.00000000E+00
  1.60000000E+01  1.00800000E+00  1.00800000E+00  0.00000000E+00  1.60000000E+01
  1.00800000E+00  1.00800000E+00  0.00000000E+00  1.60000000E+01  1.00800000E+00
  1.00800000E+00  0.00000000E+00  1.60000000E+01  1.00800000E+00  1.00800000E+00
  0.00000000E+00  1.60000000E+01  1.00800000E+00  1.00800000E+00  0.00000000E+00
  1.60000000E+01  1.00800000E+00  1.00800000E+00  0.00000000E+00  1.60000000E+01
  1.00800000E+00  1.00800000E+00  0.00000000E+00  1.60000000E+01  1.00800000E+00
  1.00800000E+00  0.00000000E+00  1.60000000E+01  1.00800000E+00  1.00800000E+00
  0.00000000E+00  1.60000000E+01  1.00800000E+00  1.00800000E+00  0.00000000E+00
  1.60000000E+01  1.00800000E+00  1.00800000E+00  0.00000000E+00  1.60000000E+01
  1.00800000E+00  1.00800000E+00  0.00000000E+00  1.60000000E+01  1.00800000E+00
  1.00800000E+00  0.00000000E+00  1.60000000E+01  1.00800000E+00  1.00800000E+00
  0.00000000E+00  1.60000000E+01  1.00800000E+00  1.00800000E+00  0.00000000E+00
  1.60000000E+01  1.00800000E+00  1.00800000E+00  0.00000000E+00  1.60000000E+01
  1.00800000E+00  1.00800000E+00  0.00000000E+00  1.60000000E+01  1.00800000E+00
  1.00800000E+00  0.00000000E+00  1.60000000E+01  1.00800000E+00  1.00800000E+00
  0.00000000E+00  1.60000000E+01  1.00800000E+00  1.00800000E+00  0.00000000E+00
  1.60000000E+01  1.00800000E+00  1.00800000E+00  0.00000000E+00  1.60000000E+01
  1.00800000E+00  1.00800000E+00  0.00000000E+00  1.60000000E+01  1.00800000E+00
  1.00800000E+00  0.00000000E+00  1.60000000E+01  1.00800000E+00  1.00800000E+00
  0.00000000E+00  1.60000000E+01  1.00800000E+00  1.00800000E+00  0.00000000E+00
  1.60000000E+01  1.00800000E+00  1.00800000E+00  0.00000000E+00  1.60000000E+01
  1.00800000E+00  1.00800000E+00  0.00000000E+00  1.60000000E+01  1.00800000E+00
  1.00800000E+00  0.00000000E+00  1.60000000E+01  1.00800000E+00  1.00800000E+00
  0.00000000E+00  1.60000000E+01  1.00800000E+00  1.00800000E+00  0.00000000E+00
  1.60000000E+01  1.00800000E+00  1.00800000E+00  0.00000000E+00  1.60000000E+01
  1.00800000E+00  1.00800000E+00  0.00000000E+00  1.60000000E+01  1.00800000E+00
  1.00800000E+00  0.00000000E+00  1.60000000E+01  1.00800000E+00  1.00800000E+00
  0.00000000E+00  1.60000000E+01  1.00800000E+00  1.00800000E+00  0.00000000E+00
  1.60000000E+01  1.00800000E+00  1.00800000E+00  0.00000000E+00  1.60000000E+01
  1.00800000E+00  1.00800000E+00  0.00000000E+00  1.60000000E+01  1.00800000E+00
  1.00800000E+00  0.00000000E+00  1.60000000E+01  1.00800000E+00  1.00800000E+00
  0.00000000E+00  1.60000000E+01  1.00800000E+00  1.00800000E+00  0.00000000E+00
  1.60000000E+01  1.00800000E+00  1.00800000E+00  0.00000000E+00  1.60000000E+01
  1.00800000E+00  1.00800000E+00  0.00000000E+00  1.60000000E+01  1.00800000E+00
  1.00800000E+00  0.00000000E+00  1.60000000E+01  1.00800000E+00  1.00800000E+00
  0.00000000E+00  1.60000000E+01  1.00800000E+00  1.00800000E+00  0.00000000E+00
  1.60000000E+01  1.00800000E+00  1.00800000E+00  0.00000000E+00  1.60000000E+01
  1.00800000E+00  1.00800000E+00  0.00000000E+00  1.60000000E+01  1.00800000E+00
  1.00800000E+00  0.00000000E+00  1.60000000E+01  1.00800000E+00  1.00800000E+00
  0.00000000E+00  1.60000000E+01  1.00800000E+00  1.00800000E+00  0.00000000E+00
  1.60000000E+01  1.00800000E+00  1.00800000E+00  0.00000000E+00  1.60000000E+01
  1.00800000E+00  1.00800000E+00  0.00000000E+00  1.60000000E+01  1.00800000E+00
  1.00800000E+00  0.00000000E+00  1.60000000E+01  1.00800000E+00  1.00800000E+00
  0.00000000E+00  1.60000000E+01  1.00800000E+00  1.00800000E+00  0.00000000E+00
  1.60000000E+01  1.00800000E+00  1.00800000E+00  0.00000000E+00  1.60000000E+01
  1.00800000E+00  1.00800000E+00  0.00000000E+00  1.60000000E+01  1.00800000E+00
  1.00800000E+00  0.00000000E+00  1.60000000E+01  1.00800000E+00  1.00800000E+00
  0.00000000E+00  1.60000000E+01  1.00800000E+00  1.00800000E+00  0.00000000E+00
  1.60000000E+01  1.00800000E+00  1.00800000E+00  0.00000000E+00  1.60000000E+01
  1.00800000E+00  1.00800000E+00  0.00000000E+00  1.60000000E+01  1.00800000E+00
  1.00800000E+00  0.00000000E+00  1.60000000E+01  1.00800000E+00  1.00800000E+00
  0.00000000E+00  1.60000000E+01  1.00800000E+00  1.00800000E+00  0.00000000E+00
  1.60000000E+01  1.00800000E+00  1.00800000E+00  0.00000000E+00  1.60000000E+01
  1.00800000E+00  1.00800000E+00  0.00000000E+00  1.60000000E+01  1.00800000E+00
  1.00800000E+00  0.00000000E+00  1.60000000E+01  1.00800000E+00  1.00800000E+00
  0.00000000E+00  1.60000000E+01  1.00800000E+00  1.00800000E+00  0.00000000E+00
  1.60000000E+01  1.00800000E+00  1.00800000E+00  0.00000000E+00  1.60000000E+01
  1.00800000E+00  1.00800000E+00  0.00000000E+00  1.60000000E+01  1.00800000E+00
  1.00800000E+00  0.00000000E+00  1.60000000E+01  1.00800000E+00  1.00800000E+00
  0.00000000E+00  1.60000000E+01  1.00800000E+00  1.00800000E+00  0.00000000E+00
  1.60000000E+01  1.00800000E+00  1.00800000E+00  0.00000000E+00  1.60000000E+01
  1.00800000E+00  1.00800000E+00  0.00000000E+00  1.60000000E+01  1.00800000E+00
  1.00800000E+00  0.00000000E+00  1.60000000E+01  1.00800000E+00  1.00800000E+00
  0.00000000E+00  1.60000000E+01  1.00800000E+00  1.00800000E+00  0.00000000E+00
  1.60000000E+01  1.00800000E+00  1.00800000E+00  0.00000000E+00  1.60000000E+01
  1.00800000E+00  1.00800000E+00  0.00000000E+00  1.60000000E+01  1.00800000E+00
  1.00800000E+00  0.00000000E+00  1.60000000E+01  1.00800000E+00  1.00800000E+00
  0.00000000E+00  1.60000000E+01  1.00800000E+00  1.00800000E+00  0.00000000E+00
  1.60000000E+01  1.00800000E+00  1.00800000E+00  0.00000000E+00  1.60000000E+01
  1.00800000E+00  1.00800000E+00  0.00000000E+00  1.60000000E+01  1.00800000E+00
  1.00800000E+00  0.00000000E+00  1.60000000E+01  1.00800000E+00  1.00800000E+00
  0.00000000E+00  1.60000000E+01  1.00800000E+00  1.00800000E+00  0.00000000E+00
  1.60000000E+01  1.00800000E+00  1.00800000E+00  0.00000000E+00  1.60000000E+01
  1.00800000E+00  1.00800000E+00  0.00000000E+00  1.60000000E+01  1.00800000E+00
  1.00800000E+00  0.00000000E+00  1.60000000E+01  1.00800000E+00  1.00800000E+00
  0.00000000E+00  1.60000000E+01  1.00800000E+00  1.00800000E+00  0.00000000E+00
  1.60000000E+01  1.00800000E+00  1.00800000E+00  0.00000000E+00  1.60000000E+01
  1.00800000E+00  1.00800000E+00  0.00000000E+00  1.60000000E+01  1.00800000E+00
  1.00800000E+00  0.00000000E+00  1.60000000E+01  1.00800000E+00  1.00800000E+00
  0.00000000E+00  1.60000000E+01  1.00800000E+00  1.00800000E+00  0.00000000E+00
  1.60000000E+01  1.00800000E+00  1.00800000E+00  0.00000000E+00  1.60000000E+01
  1.00800000E+00  1.00800000E+00  0.00000000E+00  1.60000000E+01  1.00800000E+00
  1.00800000E+00  0.00000000E+00  1.60000000E+01  1.00800000E+00  1.00800000E+00
  0.00000000E+00  1.60000000E+01  1.00800000E+00  1.00800000E+00  0.00000000E+00
  1.60000000E+01  1.00800000E+00  1.00800000E+00  0.00000000E+00  1.60000000E+01
  1.00800000E+00  1.00800000E+00  0.00000000E+00  1.60000000E+01  1.00800000E+00
  1.00800000E+00  0.00000000E+00  1.60000000E+01  1.00800000E+00  1.00800000E+00
  0.00000000E+00  1.60000000E+01  1.00800000E+00  1.00800000E+00  0.00000000E+00
  1.60000000E+01  1.00800000E+00  1.00800000E+00  0.00000000E+00  1.60000000E+01
  1.00800000E+00  1.00800000E+00  0.00000000E+00  1.60000000E+01  1.00800000E+00
  1.00800000E+00  0.00000000E+00  1.60000000E+01  1.00800000E+00  1.00800000E+00
  0.00000000E+00  1.60000000E+01  1.00800000E+00  1.00800000E+00  0.00000000E+00
  1.60000000E+01  1.00800000E+00  1.00800000E+00  0.00000000E+00  1.60000000E+01
  1.00800000E+00  1.00800000E+00  0.00000000E+00  1.60000000E+01  1.00800000E+00
  1.00800000E+00  0.00000000E+00  1.60000000E+01  1.00800000E+00  1.00800000E+00
  0.00000000E+00  1.60000000E+01  1.00800000E+00  1.00800000E+00  0.00000000E+00
  1.60000000E+01  1.00800000E+00  1.00800000E+00  0.00000000E+00  1.60000000E+01
  1.00800000E+00  1.00800000E+00  0.00000000E+00  1.60000000E+01  1.00800000E+00
  1.00800000E+00  0.00000000E+00  1.60000000E+01  1.00800000E+00  1.00800000E+00
  0.00000000E+00  1.60000000E+01  1.00800000E+00  1.00800000E+00  0.00000000E+00
  1.60000000E+01  1.00800000E+00  1.00800000E+00  0.00000000E+00  1.60000000E+01
  1.00800000E+00  1.00800000E+00  0.00000000E+00  1.60000000E+01  1.00800000E+00
  1.00800000E+00  0.00000000E+00  1.60000000E+01  1.00800000E+00  1.00800000E+00
  0.00000000E+00  1.60000000E+01  1.00800000E+00  1.00800000E+00  0.00000000E+00
  1.60000000E+01  1.00800000E+00  1.00800000E+00  0.00000000E+00  1.60000000E+01
  1.00800000E+00  1.00800000E+00  0.00000000E+00  1.60000000E+01  1.00800000E+00
  1.00800000E+00  0.00000000E+00  1.60000000E+01  1.00800000E+00  1.00800000E+00
  0.00000000E+00  1.60000000E+01  1.00800000E+00  1.00800000E+00  0.00000000E+00
  1.60000000E+01  1.00800000E+00  1.00800000E+00  0.00000000E+00  1.60000000E+01
  1.00800000E+00  1.00800000E+00  0.00000000E+00  1.60000000E+01  1.00800000E+00
  1.00800000E+00  0.00000000E+00  1.60000000E+01  1.00800000E+00  1.00800000E+00
  0.00000000E+00  1.60000000E+01  1.00800000E+00  1.00800000E+00  0.00000000E+00
  1.60000000E+01  1.00800000E+00  1.00800000E+00  0.00000000E+00  1.60000000E+01
  1.00800000E+00  1.00800000E+00  0.00000000E+00  1.60000000E+01  1.00800000E+00
  1.00800000E+00  0.00000000E+00  1.60000000E+01  1.00800000E+00  1.00800000E+00
  0.00000000E+00  1.60000000E+01  1.00800000E+00  1.00800000E+00  0.00000000E+00
  1.60000000E+01  1.00800000E+00  1.00800000E+00  0.00000000E+00  1.60000000E+01
  1.00800000E+00  1.00800000E+00  0.00000000E+00  1.60000000E+01  1.00800000E+00
  1.00800000E+00  0.00000000E+00  1.60000000E+01  1.00800000E+00  1.00800000E+00
  0.00000000E+00  1.60000000E+01  1.00800000E+00  1.00800000E+00  0.00000000E+00
  1.60000000E+01  1.00800000E+00  1.00800000E+00  0.00000000E+00  1.60000000E+01
  1.00800000E+00  1.00800000E+00  0.00000000E+00  1.60000000E+01  1.00800000E+00
  1.00800000E+00  0.00000000E+00  1.60000000E+01  1.00800000E+00  1.00800000E+00
  0.00000000E+00  1.60000000E+01  1.00800000E+00  1.00800000E+00  0.00000000E+00
  1.60000000E+01  1.00800000E+00  1.00800000E+00  0.00000000E+00  1.60000000E+01
  1.00800000E+00  1.00800000E+00  0.00000000E+00  1.60000000E+01  1.00800000E+00
  1.00800000E+00  0.00000000E+00  1.60000000E+01  1.00800000E+00  1.00800000E+00
  0.00000000E+00  1.60000000E+01  1.00800000E+00  1.00800000E+00  0.00000000E+00
  1.60000000E+01  1.00800000E+00  1.00800000E+00  0.00000000E+00  1.60000000E+01
  1.00800000E+00  1.00800000E+00  0.00000000E+00  1.60000000E+01  1.00800000E+00
  1.00800000E+00  0.00000000E+00  1.60000000E+01  1.00800000E+00  1.00800000E+00
  0.00000000E+00  1.60000000E+01  1.00800000E+00  1.00800000E+00  0.00000000E+00
  1.60000000E+01  1.00800000E+00  1.00800000E+00  0.00000000E+00  1.60000000E+01
  1.00800000E+00  1.00800000E+00  0.00000000E+00  1.60000000E+01  1.00800000E+00
  1.00800000E+00  0.00000000E+00  1.60000000E+01  1.00800000E+00  1.00800000E+00
  0.00000000E+00  1.60000000E+01  1.00800000E+00  1.00800000E+00  0.00000000E+00
  1.60000000E+01  1.00800000E+00  1.00800000E+00  0.00000000E+00  1.60000000E+01
  1.00800000E+00  1.00800000E+00  0.00000000E+00  1.60000000E+01  1.00800000E+00
  1.00800000E+00  0.00000000E+00  1.60000000E+01  1.00800000E+00  1.00800000E+00
  0.00000000E+00  1.60000000E+01  1.00800000E+00  1.00800000E+00  0.00000000E+00
  1.60000000E+01  1.00800000E+00  1.00800000E+00  0.00000000E+00  1.60000000E+01
  1.00800000E+00  1.00800000E+00  0.00000000E+00  1.60000000E+01  1.00800000E+00
  1.00800000E+00  0.00000000E+00  1.60000000E+01  1.00800000E+00  1.00800000E+00
  0.00000000E+00  1.60000000E+01  1.00800000E+00  1.00800000E+00  0.00000000E+00
  1.60000000E+01  1.00800000E+00  1.00800000E+00  0.00000000E+00  1.60000000E+01
  1.00800000E+00  1.00800000E+00  0.00000000E+00  1.60000000E+01  1.00800000E+00
  1.00800000E+00  0.00000000E+00  1.60000000E+01  1.00800000E+00  1.00800000E+00
  0.00000000E+00  1.60000000E+01  1.00800000E+00  1.00800000E+00  0.00000000E+00
  1.60000000E+01  1.00800000E+00  1.00800000E+00  0.00000000E+00  1.60000000E+01
  1.00800000E+00  1.00800000E+00  0.00000000E+00  1.60000000E+01  1.00800000E+00
  1.00800000E+00  0.00000000E+00  1.60000000E+01  1.00800000E+00  1.00800000E+00
  0.00000000E+00  1.60000000E+01  1.00800000E+00  1.00800000E+00  0.00000000E+00
  1.60000000E+01  1.00800000E+00  1.00800000E+00  0.00000000E+00  1.60000000E+01
  1.00800000E+00  1.00800000E+00  0.00000000E+00  1.60000000E+01  1.00800000E+00
  1.00800000E+00  0.00000000E+00  1.60000000E+01  1.00800000E+00  1.00800000E+00
  0.00000000E+00  1.60000000E+01  1.00800000E+00  1.00800000E+00  0.00000000E+00
  1.60000000E+01  1.00800000E+00  1.00800000E+00  0.00000000E+00  1.60000000E+01
  1.00800000E+00  1.00800000E+00  0.00000000E+00  1.60000000E+01  1.00800000E+00
  1.00800000E+00  0.00000000E+00  1.60000000E+01  1.00800000E+00  1.00800000E+00
  0.00000000E+00  1.60000000E+01  1.00800000E+00  1.00800000E+00  0.00000000E+00
  1.60000000E+01  1.00800000E+00  1.00800000E+00  0.00000000E+00  1.60000000E+01
  1.00800000E+00  1.00800000E+00  0.00000000E+00  1.60000000E+01  1.00800000E+00
  1.00800000E+00  0.00000000E+00  1.60000000E+01  1.00800000E+00  1.00800000E+00
  0.00000000E+00  1.60000000E+01  1.00800000E+00  1.00800000E+00  0.00000000E+00
  1.60000000E+01  1.00800000E+00  1.00800000E+00  0.00000000E+00  1.60000000E+01
  1.00800000E+00  1.00800000E+00  0.00000000E+00  1.60000000E+01  1.00800000E+00
  1.00800000E+00  0.00000000E+00  1.60000000E+01  1.00800000E+00  1.00800000E+00
  0.00000000E+00  1.60000000E+01  1.00800000E+00  1.00800000E+00  0.00000000E+00
  1.60000000E+01  1.00800000E+00  1.00800000E+00  0.00000000E+00  1.60000000E+01
  1.00800000E+00  1.00800000E+00  0.00000000E+00  1.60000000E+01  1.00800000E+00
  1.00800000E+00  0.00000000E+00  1.60000000E+01  1.00800000E+00  1.00800000E+00
  0.00000000E+00  1.60000000E+01  1.00800000E+00  1.00800000E+00  0.00000000E+00
  1.60000000E+01  1.00800000E+00  1.00800000E+00  0.00000000E+00  1.60000000E+01
  1.00800000E+00  1.00800000E+00  0.00000000E+00  1.60000000E+01  1.00800000E+00
  1.00800000E+00  0.00000000E+00  1.60000000E+01  1.00800000E+00  1.00800000E+00
  0.00000000E+00  1.60000000E+01  1.00800000E+00  1.00800000E+00  0.00000000E+00
  1.60000000E+01  1.00800000E+00  1.00800000E+00  0.00000000E+00  1.60000000E+01
  1.00800000E+00  1.00800000E+00  0.00000000E+00  1.60000000E+01  1.00800000E+00
  1.00800000E+00  0.00000000E+00  1.60000000E+01  1.00800000E+00  1.00800000E+00
  0.00000000E+00  1.60000000E+01  1.00800000E+00  1.00800000E+00  0.00000000E+00
  1.60000000E+01  1.00800000E+00  1.00800000E+00  0.00000000E+00  1.60000000E+01
  1.00800000E+00  1.00800000E+00  0.00000000E+00  1.60000000E+01  1.00800000E+00
  1.00800000E+00  0.00000000E+00  1.60000000E+01  1.00800000E+00  1.00800000E+00
  0.00000000E+00  1.60000000E+01  1.00800000E+00  1.00800000E+00  0.00000000E+00
  1.60000000E+01  1.00800000E+00  1.00800000E+00  0.00000000E+00  1.60000000E+01
  1.00800000E+00  1.00800000E+00  0.00000000E+00  1.60000000E+01  1.00800000E+00
  1.00800000E+00  0.00000000E+00  1.60000000E+01  1.00800000E+00  1.00800000E+00
  0.00000000E+00  1.60000000E+01  1.00800000E+00  1.00800000E+00  0.00000000E+00
  1.60000000E+01  1.00800000E+00  1.00800000E+00  0.00000000E+00  1.60000000E+01
  1.00800000E+00  1.00800000E+00  0.00000000E+00  1.60000000E+01  1.00800000E+00
  1.00800000E+00  0.00000000E+00  1.60000000E+01  1.00800000E+00  1.00800000E+00
  0.00000000E+00  1.60000000E+01  1.00800000E+00  1.00800000E+00  0.00000000E+00
  1.60000000E+01  1.00800000E+00  1.00800000E+00  0.00000000E+00  1.60000000E+01
  1.00800000E+00  1.00800000E+00  0.00000000E+00  1.60000000E+01  1.00800000E+00
  1.00800000E+00  0.00000000E+00  1.60000000E+01  1.00800000E+00  1.00800000E+00
  0.00000000E+00  1.60000000E+01  1.00800000E+00  1.00800000E+00  0.00000000E+00
  1.60000000E+01  1.00800000E+00  1.00800000E+00  0.00000000E+00  1.60000000E+01
  1.00800000E+00  1.00800000E+00  0.00000000E+00  1.60000000E+01  1.00800000E+00
  1.00800000E+00  0.00000000E+00  1.60000000E+01  1.00800000E+00  1.00800000E+00
  0.00000000E+00  1.60000000E+01  1.00800000E+00  1.00800000E+00  0.00000000E+00
  1.60000000E+01  1.00800000E+00  1.00800000E+00  0.00000000E+00  1.60000000E+01
  1.00800000E+00  1.00800000E+00  0.00000000E+00  1.60000000E+01  1.00800000E+00
  1.00800000E+00  0.00000000E+00  1.60000000E+01  1.00800000E+00  1.00800000E+00
  0.00000000E+00  1.60000000E+01  1.00800000E+00  1.00800000E+00  0.00000000E+00
  1.60000000E+01  1.00800000E+00  1.00800000E+00  0.00000000E+00  1.60000000E+01
  1.00800000E+00  1.00800000E+00  0.00000000E+00  1.60000000E+01  1.00800000E+00
  1.00800000E+00  0.00000000E+00  1.60000000E+01  1.00800000E+00  1.00800000E+00
  0.00000000E+00  1.60000000E+01  1.00800000E+00  1.00800000E+00  0.00000000E+00
  1.60000000E+01  1.00800000E+00  1.00800000E+00  0.00000000E+00  1.60000000E+01
  1.00800000E+00  1.00800000E+00  0.00000000E+00  1.60000000E+01  1.00800000E+00
  1.00800000E+00  0.00000000E+00  1.60000000E+01  1.00800000E+00  1.00800000E+00
  0.00000000E+00  1.60000000E+01  1.00800000E+00  1.00800000E+00  0.00000000E+00
  1.60000000E+01  1.00800000E+00  1.00800000E+00  0.00000000E+00  1.60000000E+01
  1.00800000E+00  1.00800000E+00  0.00000000E+00  1.60000000E+01  1.00800000E+00
  1.00800000E+00  0.00000000E+00  1.60000000E+01  1.00800000E+00  1.00800000E+00
  0.00000000E+00  1.60000000E+01  1.00800000E+00  1.00800000E+00  0.00000000E+00
  1.60000000E+01  1.00800000E+00  1.00800000E+00  0.00000000E+00  1.60000000E+01
  1.00800000E+00  1.00800000E+00  0.00000000E+00  1.60000000E+01  1.00800000E+00
  1.00800000E+00  0.00000000E+00  1.60000000E+01  1.00800000E+00  1.00800000E+00
  0.00000000E+00  1.60000000E+01  1.00800000E+00  1.00800000E+00  0.00000000E+00
  1.60000000E+01  1.00800000E+00  1.00800000E+00  0.00000000E+00  1.60000000E+01
  1.00800000E+00  1.00800000E+00  0.00000000E+00  1.60000000E+01  1.00800000E+00
  1.00800000E+00  0.00000000E+00  1.60000000E+01  1.00800000E+00  1.00800000E+00
  0.00000000E+00  1.60000000E+01  1.00800000E+00  1.00800000E+00  0.00000000E+00
  1.60000000E+01  1.00800000E+00  1.00800000E+00  0.00000000E+00  1.60000000E+01
  1.00800000E+00  1.00800000E+00  0.00000000E+00  1.60000000E+01  1.00800000E+00
  1.00800000E+00  0.00000000E+00  1.60000000E+01  1.00800000E+00  1.00800000E+00
  0.00000000E+00  1.60000000E+01  1.00800000E+00  1.00800000E+00  0.00000000E+00
  1.60000000E+01  1.00800000E+00  1.00800000E+00  0.00000000E+00  1.60000000E+01
  1.00800000E+00  1.00800000E+00  0.00000000E+00  1.60000000E+01  1.00800000E+00
  1.00800000E+00  0.00000000E+00  1.60000000E+01  1.00800000E+00  1.00800000E+00
  0.00000000E+00  1.60000000E+01  1.00800000E+00  1.00800000E+00  0.00000000E+00
  1.60000000E+01  1.00800000E+00  1.00800000E+00  0.00000000E+00  1.60000000E+01
  1.00800000E+00  1.00800000E+00  0.00000000E+00  1.60000000E+01  1.00800000E+00
  1.00800000E+00  0.00000000E+00  1.60000000E+01  1.00800000E+00  1.00800000E+00
  0.00000000E+00  1.60000000E+01  1.00800000E+00  1.00800000E+00  0.00000000E+00
  1.60000000E+01  1.00800000E+00  1.00800000E+00  0.00000000E+00  1.60000000E+01
  1.00800000E+00  1.00800000E+00  0.00000000E+00  1.60000000E+01  1.00800000E+00
  1.00800000E+00  0.00000000E+00  1.60000000E+01  1.00800000E+00  1.00800000E+00
  0.00000000E+00  1.60000000E+01  1.00800000E+00  1.00800000E+00  0.00000000E+00
  1.60000000E+01  1.00800000E+00  1.00800000E+00  0.00000000E+00  1.60000000E+01
  1.00800000E+00  1.00800000E+00  0.00000000E+00  1.60000000E+01  1.00800000E+00
  1.00800000E+00  0.00000000E+00  1.60000000E+01  1.00800000E+00  1.00800000E+00
  0.00000000E+00  1.60000000E+01  1.00800000E+00  1.00800000E+00  0.00000000E+00
  1.60000000E+01  1.00800000E+00  1.00800000E+00  0.00000000E+00  1.60000000E+01
  1.00800000E+00  1.00800000E+00  0.00000000E+00  1.60000000E+01  1.00800000E+00
  1.00800000E+00  0.00000000E+00  1.60000000E+01  1.00800000E+00  1.00800000E+00
  0.00000000E+00  1.60000000E+01  1.00800000E+00  1.00800000E+00  0.00000000E+00
  1.60000000E+01  1.00800000E+00  1.00800000E+00  0.00000000E+00  1.60000000E+01
  1.00800000E+00  1.00800000E+00  0.00000000E+00  1.60000000E+01  1.00800000E+00
  1.00800000E+00  0.00000000E+00  1.60000000E+01  1.00800000E+00  1.00800000E+00
  0.00000000E+00  1.60000000E+01  1.00800000E+00  1.00800000E+00  0.00000000E+00
  1.60000000E+01  1.00800000E+00  1.00800000E+00  0.00000000E+00  1.60000000E+01
  1.00800000E+00  1.00800000E+00  0.00000000E+00  1.60000000E+01  1.00800000E+00
  1.00800000E+00  0.00000000E+00  1.60000000E+01  1.00800000E+00  1.00800000E+00
  0.00000000E+00  1.60000000E+01  1.00800000E+00  1.00800000E+00  0.00000000E+00
  1.60000000E+01  1.00800000E+00  1.00800000E+00  0.00000000E+00  1.60000000E+01
  1.00800000E+00  1.00800000E+00  0.00000000E+00  1.60000000E+01  1.00800000E+00
  1.00800000E+00  0.00000000E+00  1.60000000E+01  1.00800000E+00  1.00800000E+00
  0.00000000E+00  1.60000000E+01  1.00800000E+00  1.00800000E+00  0.00000000E+00
  1.60000000E+01  1.00800000E+00  1.00800000E+00  0.00000000E+00  1.60000000E+01
  1.00800000E+00  1.00800000E+00  0.00000000E+00  1.60000000E+01  1.00800000E+00
  1.00800000E+00  0.00000000E+00  1.60000000E+01  1.00800000E+00  1.00800000E+00
  0.00000000E+00  1.60000000E+01  1.00800000E+00  1.00800000E+00  0.00000000E+00
  1.60000000E+01  1.00800000E+00  1.00800000E+00  0.00000000E+00  1.60000000E+01
  1.00800000E+00  1.00800000E+00  0.00000000E+00  1.60000000E+01  1.00800000E+00
  1.00800000E+00  0.00000000E+00  1.60000000E+01  1.00800000E+00  1.00800000E+00
  0.00000000E+00  1.60000000E+01  1.00800000E+00  1.00800000E+00  0.00000000E+00
  1.60000000E+01  1.00800000E+00  1.00800000E+00  0.00000000E+00  1.60000000E+01
  1.00800000E+00  1.00800000E+00  0.00000000E+00  1.60000000E+01  1.00800000E+00
  1.00800000E+00  0.00000000E+00  1.60000000E+01  1.00800000E+00  1.00800000E+00
  0.00000000E+00  1.60000000E+01  1.00800000E+00  1.00800000E+00  0.00000000E+00
  1.60000000E+01  1.00800000E+00  1.00800000E+00  0.00000000E+00  1.60000000E+01
  1.00800000E+00  1.00800000E+00  0.00000000E+00  1.60000000E+01  1.00800000E+00
  1.00800000E+00  0.00000000E+00  1.60000000E+01  1.00800000E+00  1.00800000E+00
  0.00000000E+00  1.60000000E+01  1.00800000E+00  1.00800000E+00  0.00000000E+00
  1.60000000E+01  1.00800000E+00  1.00800000E+00  0.00000000E+00  1.60000000E+01
  1.00800000E+00  1.00800000E+00  0.00000000E+00  1.60000000E+01  1.00800000E+00
  1.00800000E+00  0.00000000E+00  1.60000000E+01  1.00800000E+00  1.00800000E+00
  0.00000000E+00  1.60000000E+01  1.00800000E+00  1.00800000E+00  0.00000000E+00
  1.60000000E+01  1.00800000E+00  1.00800000E+00  0.00000000E+00  1.60000000E+01
  1.00800000E+00  1.00800000E+00  0.00000000E+00  1.60000000E+01  1.00800000E+00
  1.00800000E+00  0.00000000E+00  1.60000000E+01  1.00800000E+00  1.00800000E+00
  0.00000000E+00  1.60000000E+01  1.00800000E+00  1.00800000E+00  0.00000000E+00
  1.60000000E+01  1.00800000E+00  1.00800000E+00  0.00000000E+00  1.60000000E+01
  1.00800000E+00  1.00800000E+00  0.00000000E+00  1.60000000E+01  1.00800000E+00
  1.00800000E+00  0.00000000E+00  1.60000000E+01  1.00800000E+00  1.00800000E+00
  0.00000000E+00  1.60000000E+01  1.00800000E+00  1.00800000E+00  0.00000000E+00
  1.60000000E+01  1.00800000E+00  1.00800000E+00  0.00000000E+00  1.60000000E+01
  1.00800000E+00  1.00800000E+00  0.00000000E+00  1.60000000E+01  1.00800000E+00
  1.00800000E+00  0.00000000E+00  1.60000000E+01  1.00800000E+00  1.00800000E+00
  0.00000000E+00  1.60000000E+01  1.00800000E+00  1.00800000E+00  0.00000000E+00
  1.60000000E+01  1.00800000E+00  1.00800000E+00  0.00000000E+00  1.60000000E+01
  1.00800000E+00  1.00800000E+00  0.00000000E+00  1.60000000E+01  1.00800000E+00
  1.00800000E+00  0.00000000E+00  1.60000000E+01  1.00800000E+00  1.00800000E+00
  0.00000000E+00  1.60000000E+01  1.00800000E+00  1.00800000E+00  0.00000000E+00
  1.60000000E+01  1.00800000E+00  1.00800000E+00  0.00000000E+00  1.60000000E+01
  1.00800000E+00  1.00800000E+00  0.00000000E+00  1.60000000E+01  1.00800000E+00
  1.00800000E+00  0.00000000E+00  1.60000000E+01  1.00800000E+00  1.00800000E+00
  0.00000000E+00  1.60000000E+01  1.00800000E+00  1.00800000E+00  0.00000000E+00
  1.60000000E+01  1.00800000E+00  1.00800000E+00  0.00000000E+00  1.60000000E+01
  1.00800000E+00  1.00800000E+00  0.00000000E+00  1.60000000E+01  1.00800000E+00
  1.00800000E+00  0.00000000E+00  1.60000000E+01  1.00800000E+00  1.00800000E+00
  0.00000000E+00  1.60000000E+01  1.00800000E+00  1.00800000E+00  0.00000000E+00
  1.60000000E+01  1.00800000E+00  1.00800000E+00  0.00000000E+00  1.60000000E+01
  1.00800000E+00  1.00800000E+00  0.00000000E+00  1.60000000E+01  1.00800000E+00
  1.00800000E+00  0.00000000E+00  1.60000000E+01  1.00800000E+00  1.00800000E+00
  0.00000000E+00  1.60000000E+01  1.00800000E+00  1.00800000E+00  0.00000000E+00
  1.60000000E+01  1.00800000E+00  1.00800000E+00  0.00000000E+00  1.60000000E+01
  1.00800000E+00  1.00800000E+00  0.00000000E+00  1.60000000E+01  1.00800000E+00
  1.00800000E+00  0.00000000E+00  1.60000000E+01  1.00800000E+00  1.00800000E+00
  0.00000000E+00  1.60000000E+01  1.00800000E+00  1.00800000E+00  0.00000000E+00
  1.60000000E+01  1.00800000E+00  1.00800000E+00  0.00000000E+00  1.60000000E+01
  1.00800000E+00  1.00800000E+00  0.00000000E+00  1.60000000E+01  1.00800000E+00
  1.00800000E+00  0.00000000E+00  1.60000000E+01  1.00800000E+00  1.00800000E+00
  0.00000000E+00  1.60000000E+01  1.00800000E+00  1.00800000E+00  0.00000000E+00
  1.60000000E+01  1.00800000E+00  1.00800000E+00  0.00000000E+00  1.60000000E+01
  1.00800000E+00  1.00800000E+00  0.00000000E+00  1.60000000E+01  1.00800000E+00
  1.00800000E+00  0.00000000E+00  1.60000000E+01  1.00800000E+00  1.00800000E+00
  0.00000000E+00  1.60000000E+01  1.00800000E+00  1.00800000E+00  0.00000000E+00
  1.60000000E+01  1.00800000E+00  1.00800000E+00  0.00000000E+00  1.60000000E+01
  1.00800000E+00  1.00800000E+00  0.00000000E+00  1.60000000E+01  1.00800000E+00
  1.00800000E+00  0.00000000E+00  1.60000000E+01  1.00800000E+00  1.00800000E+00
  0.00000000E+00  1.60000000E+01  1.00800000E+00  1.00800000E+00  0.00000000E+00
  1.60000000E+01  1.00800000E+00  1.00800000E+00  0.00000000E+00  1.60000000E+01
  1.00800000E+00  1.00800000E+00  0.00000000E+00  1.60000000E+01  1.00800000E+00
  1.00800000E+00  0.00000000E+00  1.60000000E+01  1.00800000E+00  1.00800000E+00
  0.00000000E+00  1.60000000E+01  1.00800000E+00  1.00800000E+00  0.00000000E+00
  1.60000000E+01  1.00800000E+00  1.00800000E+00  0.00000000E+00  1.60000000E+01
  1.00800000E+00  1.00800000E+00  0.00000000E+00  1.60000000E+01  1.00800000E+00
  1.00800000E+00  0.00000000E+00  1.60000000E+01  1.00800000E+00  1.00800000E+00
  0.00000000E+00  1.60000000E+01  1.00800000E+00  1.00800000E+00  0.00000000E+00
  1.60000000E+01  1.00800000E+00  1.00800000E+00  0.00000000E+00  1.60000000E+01
  1.00800000E+00  1.00800000E+00  0.00000000E+00  1.60000000E+01  1.00800000E+00
  1.00800000E+00  0.00000000E+00  1.60000000E+01  1.00800000E+00  1.00800000E+00
  0.00000000E+00  1.60000000E+01  1.00800000E+00  1.00800000E+00  0.00000000E+00
  1.60000000E+01  1.00800000E+00  1.00800000E+00  0.00000000E+00  1.60000000E+01
  1.00800000E+00  1.00800000E+00  0.00000000E+00  1.60000000E+01  1.00800000E+00
  1.00800000E+00  0.00000000E+00  1.60000000E+01  1.00800000E+00  1.00800000E+00
  0.00000000E+00  1.60000000E+01  1.00800000E+00  1.00800000E+00  0.00000000E+00
  1.60000000E+01  1.00800000E+00  1.00800000E+00  0.00000000E+00  1.60000000E+01
  1.00800000E+00  1.00800000E+00  0.00000000E+00  1.60000000E+01  1.00800000E+00
  1.00800000E+00  0.00000000E+00  1.60000000E+01  1.00800000E+00  1.00800000E+00
  0.00000000E+00  1.60000000E+01  1.00800000E+00  1.00800000E+00  0.00000000E+00
  1.60000000E+01  1.00800000E+00  1.00800000E+00  0.00000000E+00  1.60000000E+01
  1.00800000E+00  1.00800000E+00  0.00000000E+00  1.60000000E+01  1.00800000E+00
  1.00800000E+00  0.00000000E+00  1.60000000E+01  1.00800000E+00  1.00800000E+00
  0.00000000E+00  1.60000000E+01  1.00800000E+00  1.00800000E+00  0.00000000E+00
  1.60000000E+01  1.00800000E+00  1.00800000E+00  0.00000000E+00  1.60000000E+01
  1.00800000E+00  1.00800000E+00  0.00000000E+00  1.60000000E+01  1.00800000E+00
  1.00800000E+00  0.00000000E+00  1.60000000E+01  1.00800000E+00  1.00800000E+00
  0.00000000E+00  1.60000000E+01  1.00800000E+00  1.00800000E+00  0.00000000E+00
  1.60000000E+01  1.00800000E+00  1.00800000E+00  0.00000000E+00  1.60000000E+01
  1.00800000E+00  1.00800000E+00  0.00000000E+00  1.60000000E+01  1.00800000E+00
  1.00800000E+00  0.00000000E+00  1.60000000E+01  1.00800000E+00  1.00800000E+00
  0.00000000E+00  1.60000000E+01  1.00800000E+00  1.00800000E+00  0.00000000E+00
  1.60000000E+01  1.00800000E+00  1.00800000E+00  0.00000000E+00  1.60000000E+01
  1.00800000E+00  1.00800000E+00  0.00000000E+00  1.60000000E+01  1.00800000E+00
  1.00800000E+00  0.00000000E+00  1.60000000E+01  1.00800000E+00  1.00800000E+00
  0.00000000E+00  1.60000000E+01  1.00800000E+00  1.00800000E+00  0.00000000E+00
  1.60000000E+01  1.00800000E+00  1.00800000E+00  0.00000000E+00  1.60000000E+01
  1.00800000E+00  1.00800000E+00  0.00000000E+00  1.60000000E+01  1.00800000E+00
  1.00800000E+00  0.00000000E+00  1.60000000E+01  1.00800000E+00  1.00800000E+00
  0.00000000E+00  1.60000000E+01  1.00800000E+00  1.00800000E+00  0.00000000E+00
  1.60000000E+01  1.00800000E+00  1.00800000E+00  0.00000000E+00  1.60000000E+01
  1.00800000E+00  1.00800000E+00  0.00000000E+00  1.60000000E+01  1.00800000E+00
  1.00800000E+00  0.00000000E+00  1.60000000E+01  1.00800000E+00  1.00800000E+00
  0.00000000E+00  1.60000000E+01  1.00800000E+00  1.00800000E+00  0.00000000E+00
  1.60000000E+01  1.00800000E+00  1.00800000E+00  0.00000000E+00  1.60000000E+01
  1.00800000E+00  1.00800000E+00  0.00000000E+00  1.60000000E+01  1.00800000E+00
  1.00800000E+00  0.00000000E+00  1.60000000E+01  1.00800000E+00  1.00800000E+00
  0.00000000E+00  1.60000000E+01  1.00800000E+00  1.00800000E+00  0.00000000E+00
  1.60000000E+01  1.00800000E+00  1.00800000E+00  0.00000000E+00  1.60000000E+01
  1.00800000E+00  1.00800000E+00  0.00000000E+00  1.60000000E+01  1.00800000E+00
  1.00800000E+00  0.00000000E+00  1.60000000E+01  1.00800000E+00  1.00800000E+00
  0.00000000E+00  1.60000000E+01  1.00800000E+00  1.00800000E+00  0.00000000E+00
  1.60000000E+01  1.00800000E+00  1.00800000E+00  0.00000000E+00  1.60000000E+01
  1.00800000E+00  1.00800000E+00  0.00000000E+00  1.60000000E+01  1.00800000E+00
  1.00800000E+00  0.00000000E+00  1.60000000E+01  1.00800000E+00  1.00800000E+00
  0.00000000E+00  1.60000000E+01  1.00800000E+00  1.00800000E+00  0.00000000E+00
  1.60000000E+01  1.00800000E+00  1.00800000E+00  0.00000000E+00  1.60000000E+01
  1.00800000E+00  1.00800000E+00  0.00000000E+00  1.60000000E+01  1.00800000E+00
  1.00800000E+00  0.00000000E+00  1.60000000E+01  1.00800000E+00  1.00800000E+00
  0.00000000E+00  1.60000000E+01  1.00800000E+00  1.00800000E+00  0.00000000E+00
  1.60000000E+01  1.00800000E+00  1.00800000E+00  0.00000000E+00  1.60000000E+01
  1.00800000E+00  1.00800000E+00  0.00000000E+00  1.60000000E+01  1.00800000E+00
  1.00800000E+00  0.00000000E+00  1.60000000E+01  1.00800000E+00  1.00800000E+00
  0.00000000E+00  1.60000000E+01  1.00800000E+00  1.00800000E+00  0.00000000E+00
  1.60000000E+01  1.00800000E+00  1.00800000E+00  0.00000000E+00  1.60000000E+01
  1.00800000E+00  1.00800000E+00  0.00000000E+00  1.60000000E+01  1.00800000E+00
  1.00800000E+00  0.00000000E+00  1.60000000E+01  1.00800000E+00  1.00800000E+00
  0.00000000E+00  1.60000000E+01  1.00800000E+00  1.00800000E+00  0.00000000E+00
  1.60000000E+01  1.00800000E+00  1.00800000E+00  0.00000000E+00  1.60000000E+01
  1.00800000E+00  1.00800000E+00  0.00000000E+00  1.60000000E+01  1.00800000E+00
  1.00800000E+00  0.00000000E+00  1.60000000E+01  1.00800000E+00  1.00800000E+00
  0.00000000E+00  1.60000000E+01  1.00800000E+00  1.00800000E+00  0.00000000E+00
  1.60000000E+01  1.00800000E+00  1.00800000E+00  0.00000000E+00  1.60000000E+01
  1.00800000E+00  1.00800000E+00  0.00000000E+00  1.60000000E+01  1.00800000E+00
  1.00800000E+00  0.00000000E+00  1.60000000E+01  1.00800000E+00  1.00800000E+00
  0.00000000E+00  1.60000000E+01  1.00800000E+00  1.00800000E+00  0.00000000E+00
  1.60000000E+01  1.00800000E+00  1.00800000E+00  0.00000000E+00  1.60000000E+01
  1.00800000E+00  1.00800000E+00  0.00000000E+00  1.60000000E+01  1.00800000E+00
  1.00800000E+00  0.00000000E+00  1.60000000E+01  1.00800000E+00  1.00800000E+00
  0.00000000E+00  1.60000000E+01  1.00800000E+00  1.00800000E+00  0.00000000E+00
  1.60000000E+01  1.00800000E+00  1.00800000E+00  0.00000000E+00  1.60000000E+01
  1.00800000E+00  1.00800000E+00  0.00000000E+00  1.60000000E+01  1.00800000E+00
  1.00800000E+00  0.00000000E+00  1.60000000E+01  1.00800000E+00  1.00800000E+00
  0.00000000E+00  1.60000000E+01  1.00800000E+00  1.00800000E+00  0.00000000E+00
  1.60000000E+01  1.00800000E+00  1.00800000E+00  0.00000000E+00  1.60000000E+01
  1.00800000E+00  1.00800000E+00  0.00000000E+00  1.60000000E+01  1.00800000E+00
  1.00800000E+00  0.00000000E+00  1.60000000E+01  1.00800000E+00  1.00800000E+00
  0.00000000E+00  1.60000000E+01  1.00800000E+00  1.00800000E+00  0.00000000E+00
  1.60000000E+01  1.00800000E+00  1.00800000E+00  0.00000000E+00  1.60000000E+01
  1.00800000E+00  1.00800000E+00  0.00000000E+00  1.60000000E+01  1.00800000E+00
  1.00800000E+00  0.00000000E+00  1.60000000E+01  1.00800000E+00  1.00800000E+00
  0.00000000E+00  1.60000000E+01  1.00800000E+00  1.00800000E+00  0.00000000E+00
  1.60000000E+01  1.00800000E+00  1.00800000E+00  0.00000000E+00  1.60000000E+01
  1.00800000E+00  1.00800000E+00  0.00000000E+00  1.60000000E+01  1.00800000E+00
  1.00800000E+00  0.00000000E+00  1.60000000E+01  1.00800000E+00  1.00800000E+00
  0.00000000E+00  1.60000000E+01  1.00800000E+00  1.00800000E+00  0.00000000E+00
  1.60000000E+01  1.00800000E+00  1.00800000E+00  0.00000000E+00  1.60000000E+01
  1.00800000E+00  1.00800000E+00  0.00000000E+00  1.60000000E+01  1.00800000E+00
  1.00800000E+00  0.00000000E+00  1.60000000E+01  1.00800000E+00  1.00800000E+00
  0.00000000E+00  1.60000000E+01  1.00800000E+00  1.00800000E+00  0.00000000E+00
  1.60000000E+01  1.00800000E+00  1.00800000E+00  0.00000000E+00  1.60000000E+01
  1.00800000E+00  1.00800000E+00  0.00000000E+00  1.60000000E+01  1.00800000E+00
  1.00800000E+00  0.00000000E+00  1.60000000E+01  1.00800000E+00  1.00800000E+00
  0.00000000E+00  1.60000000E+01  1.00800000E+00  1.00800000E+00  0.00000000E+00
  1.60000000E+01  1.00800000E+00  1.00800000E+00  0.00000000E+00  1.60000000E+01
  1.00800000E+00  1.00800000E+00  0.00000000E+00  1.60000000E+01  1.00800000E+00
  1.00800000E+00  0.00000000E+00  1.60000000E+01  1.00800000E+00  1.00800000E+00
  0.00000000E+00  1.60000000E+01  1.00800000E+00  1.00800000E+00  0.00000000E+00
  1.60000000E+01  1.00800000E+00  1.00800000E+00  0.00000000E+00  1.60000000E+01
  1.00800000E+00  1.00800000E+00  0.00000000E+00  1.60000000E+01  1.00800000E+00
  1.00800000E+00  0.00000000E+00  1.60000000E+01  1.00800000E+00  1.00800000E+00
  0.00000000E+00  1.60000000E+01  1.00800000E+00  1.00800000E+00  0.00000000E+00
  1.60000000E+01  1.00800000E+00  1.00800000E+00  0.00000000E+00  1.60000000E+01
  1.00800000E+00  1.00800000E+00  0.00000000E+00  1.60000000E+01  1.00800000E+00
  1.00800000E+00  0.00000000E+00  1.60000000E+01  1.00800000E+00  1.00800000E+00
  0.00000000E+00  1.60000000E+01  1.00800000E+00  1.00800000E+00  0.00000000E+00
  1.60000000E+01  1.00800000E+00  1.00800000E+00  0.00000000E+00  1.60000000E+01
  1.00800000E+00  1.00800000E+00  0.00000000E+00  1.60000000E+01  1.00800000E+00
  1.00800000E+00  0.00000000E+00  1.60000000E+01  1.00800000E+00  1.00800000E+00
  0.00000000E+00  1.60000000E+01  1.00800000E+00  1.00800000E+00  0.00000000E+00
  1.60000000E+01  1.00800000E+00  1.00800000E+00  0.00000000E+00  1.60000000E+01
  1.00800000E+00  1.00800000E+00  0.00000000E+00  1.60000000E+01  1.00800000E+00
  1.00800000E+00  0.00000000E+00  1.60000000E+01  1.00800000E+00  1.00800000E+00
  0.00000000E+00  1.60000000E+01  1.00800000E+00  1.00800000E+00  0.00000000E+00
  1.60000000E+01  1.00800000E+00  1.00800000E+00  0.00000000E+00  1.60000000E+01
  1.00800000E+00  1.00800000E+00  0.00000000E+00  1.60000000E+01  1.00800000E+00
  1.00800000E+00  0.00000000E+00  1.60000000E+01  1.00800000E+00  1.00800000E+00
  0.00000000E+00  1.60000000E+01  1.00800000E+00  1.00800000E+00  0.00000000E+00
  1.60000000E+01  1.00800000E+00  1.00800000E+00  0.00000000E+00  1.60000000E+01
  1.00800000E+00  1.00800000E+00  0.00000000E+00  1.60000000E+01  1.00800000E+00
  1.00800000E+00  0.00000000E+00  1.60000000E+01  1.00800000E+00  1.00800000E+00
  0.00000000E+00  1.60000000E+01  1.00800000E+00  1.00800000E+00  0.00000000E+00
  1.60000000E+01  1.00800000E+00  1.00800000E+00  0.00000000E+00  1.60000000E+01
  1.00800000E+00  1.00800000E+00  0.00000000E+00  1.60000000E+01  1.00800000E+00
  1.00800000E+00  0.00000000E+00  1.60000000E+01  1.00800000E+00  1.00800000E+00
  0.00000000E+00  1.60000000E+01  1.00800000E+00  1.00800000E+00  0.00000000E+00
  1.60000000E+01  1.00800000E+00  1.00800000E+00  0.00000000E+00  1.60000000E+01
  1.00800000E+00  1.00800000E+00  0.00000000E+00  1.60000000E+01  1.00800000E+00
  1.00800000E+00  0.00000000E+00  1.60000000E+01  1.00800000E+00  1.00800000E+00
  0.00000000E+00  1.60000000E+01  1.00800000E+00  1.00800000E+00  0.00000000E+00
  1.60000000E+01  1.00800000E+00  1.00800000E+00  0.00000000E+00  1.60000000E+01
  1.00800000E+00  1.00800000E+00  0.00000000E+00  1.60000000E+01  1.00800000E+00
  1.00800000E+00  0.00000000E+00  1.60000000E+01  1.00800000E+00  1.00800000E+00
  0.00000000E+00  1.60000000E+01  1.00800000E+00  1.00800000E+00  0.00000000E+00
  1.60000000E+01  1.00800000E+00  1.00800000E+00  0.00000000E+00  1.60000000E+01
  1.00800000E+00  1.00800000E+00  0.00000000E+00  1.60000000E+01  1.00800000E+00
  1.00800000E+00  0.00000000E+00  1.60000000E+01  1.00800000E+00  1.00800000E+00
  0.00000000E+00  1.60000000E+01  1.00800000E+00  1.00800000E+00  0.00000000E+00
  1.60000000E+01  1.00800000E+00  1.00800000E+00  0.00000000E+00  1.60000000E+01
  1.00800000E+00  1.00800000E+00  0.00000000E+00  1.60000000E+01  1.00800000E+00
  1.00800000E+00  0.00000000E+00  1.60000000E+01  1.00800000E+00  1.00800000E+00
  0.00000000E+00  1.60000000E+01  1.00800000E+00  1.00800000E+00  0.00000000E+00
  1.60000000E+01  1.00800000E+00  1.00800000E+00  0.00000000E+00  1.60000000E+01
  1.00800000E+00  1.00800000E+00  0.00000000E+00  1.60000000E+01  1.00800000E+00
  1.00800000E+00  0.00000000E+00  1.60000000E+01  1.00800000E+00  1.00800000E+00
  0.00000000E+00  1.60000000E+01  1.00800000E+00  1.00800000E+00  0.00000000E+00
  1.60000000E+01  1.00800000E+00  1.00800000E+00  0.00000000E+00  1.60000000E+01
  1.00800000E+00  1.00800000E+00  0.00000000E+00  1.60000000E+01  1.00800000E+00
  1.00800000E+00  0.00000000E+00  1.60000000E+01  1.00800000E+00  1.00800000E+00
  0.00000000E+00  1.60000000E+01  1.00800000E+00  1.00800000E+00  0.00000000E+00
  1.60000000E+01  1.00800000E+00  1.00800000E+00  0.00000000E+00  1.60000000E+01
  1.00800000E+00  1.00800000E+00  0.00000000E+00  1.60000000E+01  1.00800000E+00
  1.00800000E+00  0.00000000E+00  1.60000000E+01  1.00800000E+00  1.00800000E+00
  0.00000000E+00  1.60000000E+01  1.00800000E+00  1.00800000E+00  0.00000000E+00
  1.60000000E+01  1.00800000E+00  1.00800000E+00  0.00000000E+00  1.60000000E+01
  1.00800000E+00  1.00800000E+00  0.00000000E+00  1.60000000E+01  1.00800000E+00
  1.00800000E+00  0.00000000E+00  1.60000000E+01  1.00800000E+00  1.00800000E+00
  0.00000000E+00  1.60000000E+01  1.00800000E+00  1.00800000E+00  0.00000000E+00
  1.60000000E+01  1.00800000E+00  1.00800000E+00  0.00000000E+00  1.60000000E+01
  1.00800000E+00  1.00800000E+00  0.00000000E+00  1.60000000E+01  1.00800000E+00
  1.00800000E+00  0.00000000E+00  1.60000000E+01  1.00800000E+00  1.00800000E+00
  0.00000000E+00  1.60000000E+01  1.00800000E+00  1.00800000E+00  0.00000000E+00
  1.60000000E+01  1.00800000E+00  1.00800000E+00  0.00000000E+00  1.60000000E+01
  1.00800000E+00  1.00800000E+00  0.00000000E+00  1.60000000E+01  1.00800000E+00
  1.00800000E+00  0.00000000E+00  1.60000000E+01  1.00800000E+00  1.00800000E+00
  0.00000000E+00  1.60000000E+01  1.00800000E+00  1.00800000E+00  0.00000000E+00
  1.60000000E+01  1.00800000E+00  1.00800000E+00  0.00000000E+00  1.60000000E+01
  1.00800000E+00  1.00800000E+00  0.00000000E+00  1.60000000E+01  1.00800000E+00
  1.00800000E+00  0.00000000E+00  1.60000000E+01  1.00800000E+00  1.00800000E+00
  0.00000000E+00  1.60000000E+01  1.00800000E+00  1.00800000E+00  0.00000000E+00
  1.60000000E+01  1.00800000E+00  1.00800000E+00  0.00000000E+00  1.60000000E+01
  1.00800000E+00  1.00800000E+00  0.00000000E+00  1.60000000E+01  1.00800000E+00
  1.00800000E+00  0.00000000E+00  1.60000000E+01  1.00800000E+00  1.00800000E+00
  0.00000000E+00  1.60000000E+01  1.00800000E+00  1.00800000E+00  0.00000000E+00
  1.60000000E+01  1.00800000E+00  1.00800000E+00  0.00000000E+00  1.60000000E+01
  1.00800000E+00  1.00800000E+00  0.00000000E+00  1.60000000E+01  1.00800000E+00
  1.00800000E+00  0.00000000E+00  1.60000000E+01  1.00800000E+00  1.00800000E+00
  0.00000000E+00  1.60000000E+01  1.00800000E+00  1.00800000E+00  0.00000000E+00
  1.60000000E+01  1.00800000E+00  1.00800000E+00  0.00000000E+00  1.60000000E+01
  1.00800000E+00  1.00800000E+00  0.00000000E+00  1.60000000E+01  1.00800000E+00
  1.00800000E+00  0.00000000E+00  1.60000000E+01  1.00800000E+00  1.00800000E+00
  0.00000000E+00  1.60000000E+01  1.00800000E+00  1.00800000E+00  0.00000000E+00
  1.60000000E+01  1.00800000E+00  1.00800000E+00  0.00000000E+00  1.60000000E+01
  1.00800000E+00  1.00800000E+00  0.00000000E+00  1.60000000E+01  1.00800000E+00
  1.00800000E+00  0.00000000E+00  1.60000000E+01  1.00800000E+00  1.00800000E+00
  0.00000000E+00  1.60000000E+01  1.00800000E+00  1.00800000E+00  0.00000000E+00
  1.60000000E+01  1.00800000E+00  1.00800000E+00  0.00000000E+00  1.60000000E+01
  1.00800000E+00  1.00800000E+00  0.00000000E+00  1.60000000E+01  1.00800000E+00
  1.00800000E+00  0.00000000E+00  1.60000000E+01  1.00800000E+00  1.00800000E+00
  0.00000000E+00  1.60000000E+01  1.00800000E+00  1.00800000E+00  0.00000000E+00
  1.60000000E+01  1.00800000E+00  1.00800000E+00  0.00000000E+00  1.60000000E+01
  1.00800000E+00  1.00800000E+00  0.00000000E+00  1.60000000E+01  1.00800000E+00
  1.00800000E+00  0.00000000E+00  1.60000000E+01  1.00800000E+00  1.00800000E+00
  0.00000000E+00  1.60000000E+01  1.00800000E+00  1.00800000E+00  0.00000000E+00
  1.60000000E+01  1.00800000E+00  1.00800000E+00  0.00000000E+00  1.60000000E+01
  1.00800000E+00  1.00800000E+00  0.00000000E+00  1.60000000E+01  1.00800000E+00
  1.00800000E+00  0.00000000E+00  1.60000000E+01  1.00800000E+00  1.00800000E+00
  0.00000000E+00  1.60000000E+01  1.00800000E+00  1.00800000E+00  0.00000000E+00
  1.60000000E+01  1.00800000E+00  1.00800000E+00  0.00000000E+00  1.60000000E+01
  1.00800000E+00  1.00800000E+00  0.00000000E+00  1.60000000E+01  1.00800000E+00
  1.00800000E+00  0.00000000E+00  1.60000000E+01  1.00800000E+00  1.00800000E+00
  0.00000000E+00  1.60000000E+01  1.00800000E+00  1.00800000E+00  0.00000000E+00
  1.60000000E+01  1.00800000E+00  1.00800000E+00  0.00000000E+00  1.60000000E+01
  1.00800000E+00  1.00800000E+00  0.00000000E+00  1.60000000E+01  1.00800000E+00
  1.00800000E+00  0.00000000E+00  1.60000000E+01  1.00800000E+00  1.00800000E+00
  0.00000000E+00  1.60000000E+01  1.00800000E+00  1.00800000E+00  0.00000000E+00
  1.60000000E+01  1.00800000E+00  1.00800000E+00  0.00000000E+00  1.60000000E+01
  1.00800000E+00  1.00800000E+00  0.00000000E+00  1.60000000E+01  1.00800000E+00
  1.00800000E+00  0.00000000E+00  1.60000000E+01  1.00800000E+00  1.00800000E+00
  0.00000000E+00  1.60000000E+01  1.00800000E+00  1.00800000E+00  0.00000000E+00
  1.60000000E+01  1.00800000E+00  1.00800000E+00  0.00000000E+00  1.60000000E+01
  1.00800000E+00  1.00800000E+00  0.00000000E+00  1.60000000E+01  1.00800000E+00
  1.00800000E+00  0.00000000E+00  1.60000000E+01  1.00800000E+00  1.00800000E+00
  0.00000000E+00  1.60000000E+01  1.00800000E+00  1.00800000E+00  0.00000000E+00
  1.60000000E+01  1.00800000E+00  1.00800000E+00  0.00000000E+00  1.60000000E+01
  1.00800000E+00  1.00800000E+00  0.00000000E+00  1.60000000E+01  1.00800000E+00
  1.00800000E+00  0.00000000E+00  1.60000000E+01  1.00800000E+00  1.00800000E+00
  0.00000000E+00  1.60000000E+01  1.00800000E+00  1.00800000E+00  0.00000000E+00
  1.60000000E+01  1.00800000E+00  1.00800000E+00  0.00000000E+00  1.60000000E+01
  1.00800000E+00  1.00800000E+00  0.00000000E+00  1.60000000E+01  1.00800000E+00
  1.00800000E+00  0.00000000E+00  1.60000000E+01  1.00800000E+00  1.00800000E+00
  0.00000000E+00  1.60000000E+01  1.00800000E+00  1.00800000E+00  0.00000000E+00
  1.60000000E+01  1.00800000E+00  1.00800000E+00  0.00000000E+00  1.60000000E+01
  1.00800000E+00  1.00800000E+00  0.00000000E+00  1.60000000E+01  1.00800000E+00
  1.00800000E+00  0.00000000E+00  1.60000000E+01  1.00800000E+00  1.00800000E+00
  0.00000000E+00  1.60000000E+01  1.00800000E+00  1.00800000E+00  0.00000000E+00
  1.60000000E+01  1.00800000E+00  1.00800000E+00  0.00000000E+00  1.60000000E+01
  1.00800000E+00  1.00800000E+00  0.00000000E+00  1.60000000E+01  1.00800000E+00
  1.00800000E+00  0.00000000E+00  1.60000000E+01  1.00800000E+00  1.00800000E+00
  0.00000000E+00  1.60000000E+01  1.00800000E+00  1.00800000E+00  0.00000000E+00
  1.60000000E+01  1.00800000E+00  1.00800000E+00  0.00000000E+00  1.60000000E+01
  1.00800000E+00  1.00800000E+00  0.00000000E+00  1.60000000E+01  1.00800000E+00
  1.00800000E+00  0.00000000E+00  1.60000000E+01  1.00800000E+00  1.00800000E+00
  0.00000000E+00  1.60000000E+01  1.00800000E+00  1.00800000E+00  0.00000000E+00
  1.60000000E+01  1.00800000E+00  1.00800000E+00  0.00000000E+00  1.60000000E+01
  1.00800000E+00  1.00800000E+00  0.00000000E+00  1.60000000E+01  1.00800000E+00
  1.00800000E+00  0.00000000E+00  1.60000000E+01  1.00800000E+00  1.00800000E+00
  0.00000000E+00  1.60000000E+01  1.00800000E+00  1.00800000E+00  0.00000000E+00
  1.60000000E+01  1.00800000E+00  1.00800000E+00  0.00000000E+00  1.60000000E+01
  1.00800000E+00  1.00800000E+00  0.00000000E+00  1.60000000E+01  1.00800000E+00
  1.00800000E+00  0.00000000E+00  1.60000000E+01  1.00800000E+00  1.00800000E+00
  0.00000000E+00  1.60000000E+01  1.00800000E+00  1.00800000E+00  0.00000000E+00
  1.60000000E+01  1.00800000E+00  1.00800000E+00  0.00000000E+00  1.60000000E+01
  1.00800000E+00  1.00800000E+00  0.00000000E+00  1.60000000E+01  1.00800000E+00
  1.00800000E+00  0.00000000E+00  1.60000000E+01  1.00800000E+00  1.00800000E+00
  0.00000000E+00  1.60000000E+01  1.00800000E+00  1.00800000E+00  0.00000000E+00
  1.60000000E+01  1.00800000E+00  1.00800000E+00  0.00000000E+00  1.60000000E+01
  1.00800000E+00  1.00800000E+00  0.00000000E+00  1.60000000E+01  1.00800000E+00
  1.00800000E+00  0.00000000E+00  1.60000000E+01  1.00800000E+00  1.00800000E+00
  0.00000000E+00  1.60000000E+01  1.00800000E+00  1.00800000E+00  0.00000000E+00
  1.60000000E+01  1.00800000E+00  1.00800000E+00  0.00000000E+00  1.60000000E+01
  1.00800000E+00  1.00800000E+00  0.00000000E+00  1.60000000E+01  1.00800000E+00
  1.00800000E+00  0.00000000E+00  1.60000000E+01  1.00800000E+00  1.00800000E+00
  0.00000000E+00  1.60000000E+01  1.00800000E+00  1.00800000E+00  0.00000000E+00
  1.60000000E+01  1.00800000E+00  1.00800000E+00  0.00000000E+00  1.60000000E+01
  1.00800000E+00  1.00800000E+00  0.00000000E+00  1.60000000E+01  1.00800000E+00
  1.00800000E+00  0.00000000E+00  1.60000000E+01  1.00800000E+00  1.00800000E+00
  0.00000000E+00  1.60000000E+01  1.00800000E+00  1.00800000E+00  0.00000000E+00
  1.60000000E+01  1.00800000E+00  1.00800000E+00  0.00000000E+00  1.60000000E+01
  1.00800000E+00  1.00800000E+00  0.00000000E+00  1.60000000E+01  1.00800000E+00
  1.00800000E+00  0.00000000E+00  1.60000000E+01  1.00800000E+00  1.00800000E+00
  0.00000000E+00  1.60000000E+01  1.00800000E+00  1.00800000E+00  0.00000000E+00
  1.60000000E+01  1.00800000E+00  1.00800000E+00  0.00000000E+00  1.60000000E+01
  1.00800000E+00  1.00800000E+00  0.00000000E+00  1.60000000E+01  1.00800000E+00
  1.00800000E+00  0.00000000E+00  1.60000000E+01  1.00800000E+00  1.00800000E+00
  0.00000000E+00  1.60000000E+01  1.00800000E+00  1.00800000E+00  0.00000000E+00
  1.60000000E+01  1.00800000E+00  1.00800000E+00  0.00000000E+00  1.60000000E+01
  1.00800000E+00  1.00800000E+00  0.00000000E+00  1.60000000E+01  1.00800000E+00
  1.00800000E+00  0.00000000E+00  1.60000000E+01  1.00800000E+00  1.00800000E+00
  0.00000000E+00  1.60000000E+01  1.00800000E+00  1.00800000E+00  0.00000000E+00
  1.60000000E+01  1.00800000E+00  1.00800000E+00  0.00000000E+00  1.60000000E+01
  1.00800000E+00  1.00800000E+00  0.00000000E+00  1.60000000E+01  1.00800000E+00
  1.00800000E+00  0.00000000E+00  1.60000000E+01  1.00800000E+00  1.00800000E+00
  0.00000000E+00  1.60000000E+01  1.00800000E+00  1.00800000E+00  0.00000000E+00
  1.60000000E+01  1.00800000E+00  1.00800000E+00  0.00000000E+00  1.60000000E+01
  1.00800000E+00  1.00800000E+00  0.00000000E+00  1.60000000E+01  1.00800000E+00
  1.00800000E+00  0.00000000E+00  1.60000000E+01  1.00800000E+00  1.00800000E+00
  0.00000000E+00  1.60000000E+01  1.00800000E+00  1.00800000E+00  0.00000000E+00
  1.60000000E+01  1.00800000E+00  1.00800000E+00  0.00000000E+00  1.60000000E+01
  1.00800000E+00  1.00800000E+00  0.00000000E+00  1.60000000E+01  1.00800000E+00
  1.00800000E+00  0.00000000E+00  1.60000000E+01  1.00800000E+00  1.00800000E+00
  0.00000000E+00  1.60000000E+01  1.00800000E+00  1.00800000E+00  0.00000000E+00
  1.60000000E+01  1.00800000E+00  1.00800000E+00  0.00000000E+00  1.60000000E+01
  1.00800000E+00  1.00800000E+00  0.00000000E+00  1.60000000E+01  1.00800000E+00
  1.00800000E+00  0.00000000E+00  1.60000000E+01  1.00800000E+00  1.00800000E+00
  0.00000000E+00  1.60000000E+01  1.00800000E+00  1.00800000E+00  0.00000000E+00
  1.60000000E+01  1.00800000E+00  1.00800000E+00  0.00000000E+00  1.60000000E+01
  1.00800000E+00  1.00800000E+00  0.00000000E+00  1.60000000E+01  1.00800000E+00
  1.00800000E+00  0.00000000E+00  1.60000000E+01  1.00800000E+00  1.00800000E+00
  0.00000000E+00  1.60000000E+01  1.00800000E+00  1.00800000E+00  0.00000000E+00
  1.60000000E+01  1.00800000E+00  1.00800000E+00  0.00000000E+00  1.60000000E+01
  1.00800000E+00  1.00800000E+00  0.00000000E+00  1.60000000E+01  1.00800000E+00
  1.00800000E+00  0.00000000E+00  1.60000000E+01  1.00800000E+00  1.00800000E+00
  0.00000000E+00  1.60000000E+01  1.00800000E+00  1.00800000E+00  0.00000000E+00
  1.60000000E+01  1.00800000E+00  1.00800000E+00  0.00000000E+00  1.60000000E+01
  1.00800000E+00  1.00800000E+00  0.00000000E+00  1.60000000E+01  1.00800000E+00
  1.00800000E+00  0.00000000E+00  1.60000000E+01  1.00800000E+00  1.00800000E+00
  0.00000000E+00  1.60000000E+01  1.00800000E+00  1.00800000E+00  0.00000000E+00
  1.60000000E+01  1.00800000E+00  1.00800000E+00  0.00000000E+00  1.60000000E+01
  1.00800000E+00  1.00800000E+00  0.00000000E+00  1.60000000E+01  1.00800000E+00
  1.00800000E+00  0.00000000E+00  1.60000000E+01  1.00800000E+00  1.00800000E+00
  0.00000000E+00  1.60000000E+01  1.00800000E+00  1.00800000E+00  0.00000000E+00
  1.60000000E+01  1.00800000E+00  1.00800000E+00  0.00000000E+00  1.60000000E+01
  1.00800000E+00  1.00800000E+00  0.00000000E+00  1.60000000E+01  1.00800000E+00
  1.00800000E+00  0.00000000E+00  1.60000000E+01  1.00800000E+00  1.00800000E+00
  0.00000000E+00  1.60000000E+01  1.00800000E+00  1.00800000E+00  0.00000000E+00
  1.60000000E+01  1.00800000E+00  1.00800000E+00  0.00000000E+00  1.60000000E+01
  1.00800000E+00  1.00800000E+00  0.00000000E+00  1.60000000E+01  1.00800000E+00
  1.00800000E+00  0.00000000E+00  1.60000000E+01  1.00800000E+00  1.00800000E+00
  0.00000000E+00  1.60000000E+01  1.00800000E+00  1.00800000E+00  0.00000000E+00
  1.60000000E+01  1.00800000E+00  1.00800000E+00  0.00000000E+00  1.60000000E+01
  1.00800000E+00  1.00800000E+00  0.00000000E+00  1.60000000E+01  1.00800000E+00
  1.00800000E+00  0.00000000E+00  1.60000000E+01  1.00800000E+00  1.00800000E+00
  0.00000000E+00  1.60000000E+01  1.00800000E+00  1.00800000E+00  0.00000000E+00
  1.60000000E+01  1.00800000E+00  1.00800000E+00  0.00000000E+00  1.60000000E+01
  1.00800000E+00  1.00800000E+00  0.00000000E+00  1.60000000E+01  1.00800000E+00
  1.00800000E+00  0.00000000E+00  1.60000000E+01  1.00800000E+00  1.00800000E+00
  0.00000000E+00  1.60000000E+01  1.00800000E+00  1.00800000E+00  0.00000000E+00
  1.60000000E+01  1.00800000E+00  1.00800000E+00  0.00000000E+00  1.60000000E+01
  1.00800000E+00  1.00800000E+00  0.00000000E+00  1.60000000E+01  1.00800000E+00
  1.00800000E+00  0.00000000E+00  1.60000000E+01  1.00800000E+00  1.00800000E+00
  0.00000000E+00  1.60000000E+01  1.00800000E+00  1.00800000E+00  0.00000000E+00
  1.60000000E+01  1.00800000E+00  1.00800000E+00  0.00000000E+00  1.60000000E+01
  1.00800000E+00  1.00800000E+00  0.00000000E+00  1.60000000E+01  1.00800000E+00
  1.00800000E+00  0.00000000E+00  1.60000000E+01  1.00800000E+00  1.00800000E+00
  0.00000000E+00  1.60000000E+01  1.00800000E+00  1.00800000E+00  0.00000000E+00
  1.60000000E+01  1.00800000E+00  1.00800000E+00  0.00000000E+00  1.60000000E+01
  1.00800000E+00  1.00800000E+00  0.00000000E+00  1.60000000E+01  1.00800000E+00
  1.00800000E+00  0.00000000E+00  1.60000000E+01  1.00800000E+00  1.00800000E+00
  0.00000000E+00  1.60000000E+01  1.00800000E+00  1.00800000E+00  0.00000000E+00
  1.60000000E+01  1.00800000E+00  1.00800000E+00  0.00000000E+00  1.60000000E+01
  1.00800000E+00  1.00800000E+00  0.00000000E+00  1.60000000E+01  1.00800000E+00
  1.00800000E+00  0.00000000E+00  1.60000000E+01  1.00800000E+00  1.00800000E+00
  0.00000000E+00  1.60000000E+01  1.00800000E+00  1.00800000E+00  0.00000000E+00
  1.60000000E+01  1.00800000E+00  1.00800000E+00  0.00000000E+00  1.60000000E+01
  1.00800000E+00  1.00800000E+00  0.00000000E+00  1.60000000E+01  1.00800000E+00
  1.00800000E+00  0.00000000E+00  1.60000000E+01  1.00800000E+00  1.00800000E+00
  0.00000000E+00  1.60000000E+01  1.00800000E+00  1.00800000E+00  0.00000000E+00
  1.60000000E+01  1.00800000E+00  1.00800000E+00  0.00000000E+00  1.60000000E+01
  1.00800000E+00  1.00800000E+00  0.00000000E+00  1.60000000E+01  1.00800000E+00
  1.00800000E+00  0.00000000E+00  1.60000000E+01  1.00800000E+00  1.00800000E+00
  0.00000000E+00  1.60000000E+01  1.00800000E+00  1.00800000E+00  0.00000000E+00
  1.60000000E+01  1.00800000E+00  1.00800000E+00  0.00000000E+00  1.60000000E+01
  1.00800000E+00  1.00800000E+00  0.00000000E+00  1.60000000E+01  1.00800000E+00
  1.00800000E+00  0.00000000E+00  1.60000000E+01  1.00800000E+00  1.00800000E+00
  0.00000000E+00  1.60000000E+01  1.00800000E+00  1.00800000E+00  0.00000000E+00
  1.60000000E+01  1.00800000E+00  1.00800000E+00  0.00000000E+00  1.60000000E+01
  1.00800000E+00  1.00800000E+00  0.00000000E+00  1.60000000E+01  1.00800000E+00
  1.00800000E+00  0.00000000E+00  1.60000000E+01  1.00800000E+00  1.00800000E+00
  0.00000000E+00  1.60000000E+01  1.00800000E+00  1.00800000E+00  0.00000000E+00
  1.60000000E+01  1.00800000E+00  1.00800000E+00  0.00000000E+00  1.60000000E+01
  1.00800000E+00  1.00800000E+00  0.00000000E+00  1.60000000E+01  1.00800000E+00
  1.00800000E+00  0.00000000E+00  1.60000000E+01  1.00800000E+00  1.00800000E+00
  0.00000000E+00  1.60000000E+01  1.00800000E+00  1.00800000E+00  0.00000000E+00
  1.60000000E+01  1.00800000E+00  1.00800000E+00  0.00000000E+00  1.60000000E+01
  1.00800000E+00  1.00800000E+00  0.00000000E+00  1.60000000E+01  1.00800000E+00
  1.00800000E+00  0.00000000E+00  1.60000000E+01  1.00800000E+00  1.00800000E+00
  0.00000000E+00  1.60000000E+01  1.00800000E+00  1.00800000E+00  0.00000000E+00
  1.60000000E+01  1.00800000E+00  1.00800000E+00  0.00000000E+00  1.60000000E+01
  1.00800000E+00  1.00800000E+00  0.00000000E+00  1.60000000E+01  1.00800000E+00
  1.00800000E+00  0.00000000E+00  1.60000000E+01  1.00800000E+00  1.00800000E+00
  0.00000000E+00  1.60000000E+01  1.00800000E+00  1.00800000E+00  0.00000000E+00
  1.60000000E+01  1.00800000E+00  1.00800000E+00  0.00000000E+00  1.60000000E+01
  1.00800000E+00  1.00800000E+00  0.00000000E+00  1.60000000E+01  1.00800000E+00
  1.00800000E+00  0.00000000E+00  1.60000000E+01  1.00800000E+00  1.00800000E+00
  0.00000000E+00  1.60000000E+01  1.00800000E+00  1.00800000E+00  0.00000000E+00
  1.60000000E+01  1.00800000E+00  1.00800000E+00  0.00000000E+00  1.60000000E+01
  1.00800000E+00  1.00800000E+00  0.00000000E+00  1.60000000E+01  1.00800000E+00
  1.00800000E+00  0.00000000E+00  1.60000000E+01  1.00800000E+00  1.00800000E+00
  0.00000000E+00  1.60000000E+01  1.00800000E+00  1.00800000E+00  0.00000000E+00
  1.60000000E+01  1.00800000E+00  1.00800000E+00  0.00000000E+00  1.60000000E+01
  1.00800000E+00  1.00800000E+00  0.00000000E+00  1.60000000E+01  1.00800000E+00
  1.00800000E+00  0.00000000E+00  1.60000000E+01  1.00800000E+00  1.00800000E+00
  0.00000000E+00  1.60000000E+01  1.00800000E+00  1.00800000E+00  0.00000000E+00
  1.60000000E+01  1.00800000E+00  1.00800000E+00  0.00000000E+00  1.60000000E+01
  1.00800000E+00  1.00800000E+00  0.00000000E+00  1.60000000E+01  1.00800000E+00
  1.00800000E+00  0.00000000E+00  1.60000000E+01  1.00800000E+00  1.00800000E+00
  0.00000000E+00  1.60000000E+01  1.00800000E+00  1.00800000E+00  0.00000000E+00
  1.60000000E+01  1.00800000E+00  1.00800000E+00  0.00000000E+00  1.60000000E+01
  1.00800000E+00  1.00800000E+00  0.00000000E+00  1.60000000E+01  1.00800000E+00
  1.00800000E+00  0.00000000E+00  1.60000000E+01  1.00800000E+00  1.00800000E+00
  0.00000000E+00  1.60000000E+01  1.00800000E+00  1.00800000E+00  0.00000000E+00
  1.60000000E+01  1.00800000E+00  1.00800000E+00  0.00000000E+00  1.60000000E+01
  1.00800000E+00  1.00800000E+00  0.00000000E+00  1.60000000E+01  1.00800000E+00
  1.00800000E+00  0.00000000E+00  1.60000000E+01  1.00800000E+00  1.00800000E+00
  0.00000000E+00  1.60000000E+01  1.00800000E+00  1.00800000E+00  0.00000000E+00
  1.60000000E+01  1.00800000E+00  1.00800000E+00  0.00000000E+00  1.60000000E+01
  1.00800000E+00  1.00800000E+00  0.00000000E+00  1.60000000E+01  1.00800000E+00
  1.00800000E+00  0.00000000E+00  1.60000000E+01  1.00800000E+00  1.00800000E+00
  0.00000000E+00  1.60000000E+01  1.00800000E+00  1.00800000E+00  0.00000000E+00
  1.60000000E+01  1.00800000E+00  1.00800000E+00  0.00000000E+00  1.60000000E+01
  1.00800000E+00  1.00800000E+00  0.00000000E+00  1.60000000E+01  1.00800000E+00
  1.00800000E+00  0.00000000E+00  1.60000000E+01  1.00800000E+00  1.00800000E+00
  0.00000000E+00  1.60000000E+01  1.00800000E+00  1.00800000E+00  0.00000000E+00
  1.60000000E+01  1.00800000E+00  1.00800000E+00  0.00000000E+00  1.60000000E+01
  1.00800000E+00  1.00800000E+00  0.00000000E+00  1.60000000E+01  1.00800000E+00
  1.00800000E+00  0.00000000E+00  1.60000000E+01  1.00800000E+00  1.00800000E+00
  0.00000000E+00  1.60000000E+01  1.00800000E+00  1.00800000E+00  0.00000000E+00
  1.60000000E+01  1.00800000E+00  1.00800000E+00  0.00000000E+00  1.60000000E+01
  1.00800000E+00  1.00800000E+00  0.00000000E+00  1.60000000E+01  1.00800000E+00
  1.00800000E+00  0.00000000E+00  1.60000000E+01  1.00800000E+00  1.00800000E+00
  0.00000000E+00  1.60000000E+01  1.00800000E+00  1.00800000E+00  0.00000000E+00
  1.60000000E+01  1.00800000E+00  1.00800000E+00  0.00000000E+00  1.60000000E+01
  1.00800000E+00  1.00800000E+00  0.00000000E+00  1.60000000E+01  1.00800000E+00
  1.00800000E+00  0.00000000E+00  1.60000000E+01  1.00800000E+00  1.00800000E+00
  0.00000000E+00  1.60000000E+01  1.00800000E+00  1.00800000E+00  0.00000000E+00
  1.60000000E+01  1.00800000E+00  1.00800000E+00  0.00000000E+00  1.60000000E+01
  1.00800000E+00  1.00800000E+00  0.00000000E+00  1.60000000E+01  1.00800000E+00
  1.00800000E+00  0.00000000E+00  1.60000000E+01  1.00800000E+00  1.00800000E+00
  0.00000000E+00  1.60000000E+01  1.00800000E+00  1.00800000E+00  0.00000000E+00
  1.60000000E+01  1.00800000E+00  1.00800000E+00  0.00000000E+00  1.60000000E+01
  1.00800000E+00  1.00800000E+00  0.00000000E+00  1.60000000E+01  1.00800000E+00
  1.00800000E+00  0.00000000E+00  1.60000000E+01  1.00800000E+00  1.00800000E+00
  0.00000000E+00  1.60000000E+01  1.00800000E+00  1.00800000E+00  0.00000000E+00
  1.60000000E+01  1.00800000E+00  1.00800000E+00  0.00000000E+00  1.60000000E+01
  1.00800000E+00  1.00800000E+00  0.00000000E+00  1.60000000E+01  1.00800000E+00
  1.00800000E+00  0.00000000E+00  1.60000000E+01  1.00800000E+00  1.00800000E+00
  0.00000000E+00  1.60000000E+01  1.00800000E+00  1.00800000E+00  0.00000000E+00
  1.60000000E+01  1.00800000E+00  1.00800000E+00  0.00000000E+00  1.60000000E+01
  1.00800000E+00  1.00800000E+00  0.00000000E+00  1.60000000E+01  1.00800000E+00
  1.00800000E+00  0.00000000E+00  1.60000000E+01  1.00800000E+00  1.00800000E+00
  0.00000000E+00  1.60000000E+01  1.00800000E+00  1.00800000E+00  0.00000000E+00
  1.60000000E+01  1.00800000E+00  1.00800000E+00  0.00000000E+00  1.60000000E+01
  1.00800000E+00  1.00800000E+00  0.00000000E+00  1.60000000E+01  1.00800000E+00
  1.00800000E+00  0.00000000E+00  1.60000000E+01  1.00800000E+00  1.00800000E+00
  0.00000000E+00  1.60000000E+01  1.00800000E+00  1.00800000E+00  0.00000000E+00
  1.60000000E+01  1.00800000E+00  1.00800000E+00  0.00000000E+00  1.60000000E+01
  1.00800000E+00  1.00800000E+00  0.00000000E+00  1.60000000E+01  1.00800000E+00
  1.00800000E+00  0.00000000E+00  1.60000000E+01  1.00800000E+00  1.00800000E+00
  0.00000000E+00  1.60000000E+01  1.00800000E+00  1.00800000E+00  0.00000000E+00
  1.60000000E+01  1.00800000E+00  1.00800000E+00  0.00000000E+00  1.60000000E+01
  1.00800000E+00  1.00800000E+00  0.00000000E+00  1.60000000E+01  1.00800000E+00
  1.00800000E+00  0.00000000E+00  1.60000000E+01  1.00800000E+00  1.00800000E+00
  0.00000000E+00  1.60000000E+01  1.00800000E+00  1.00800000E+00  0.00000000E+00
  1.60000000E+01  1.00800000E+00  1.00800000E+00  0.00000000E+00  1.60000000E+01
  1.00800000E+00  1.00800000E+00  0.00000000E+00  1.60000000E+01  1.00800000E+00
  1.00800000E+00  0.00000000E+00  1.60000000E+01  1.00800000E+00  1.00800000E+00
  0.00000000E+00  1.60000000E+01  1.00800000E+00  1.00800000E+00  0.00000000E+00
  1.60000000E+01  1.00800000E+00  1.00800000E+00  0.00000000E+00  1.60000000E+01
  1.00800000E+00  1.00800000E+00  0.00000000E+00  1.60000000E+01  1.00800000E+00
  1.00800000E+00  0.00000000E+00  1.60000000E+01  1.00800000E+00  1.00800000E+00
  0.00000000E+00  1.60000000E+01  1.00800000E+00  1.00800000E+00  0.00000000E+00
  1.60000000E+01  1.00800000E+00  1.00800000E+00  0.00000000E+00  1.60000000E+01
  1.00800000E+00  1.00800000E+00  0.00000000E+00  1.60000000E+01  1.00800000E+00
  1.00800000E+00  0.00000000E+00  1.60000000E+01  1.00800000E+00  1.00800000E+00
  0.00000000E+00  1.60000000E+01  1.00800000E+00  1.00800000E+00  0.00000000E+00
  1.60000000E+01  1.00800000E+00  1.00800000E+00  0.00000000E+00  1.60000000E+01
  1.00800000E+00  1.00800000E+00  0.00000000E+00  1.60000000E+01  1.00800000E+00
  1.00800000E+00  0.00000000E+00  1.60000000E+01  1.00800000E+00  1.00800000E+00
  0.00000000E+00  1.60000000E+01  1.00800000E+00  1.00800000E+00  0.00000000E+00
  1.60000000E+01  1.00800000E+00  1.00800000E+00  0.00000000E+00  1.60000000E+01
  1.00800000E+00  1.00800000E+00  0.00000000E+00  1.60000000E+01  1.00800000E+00
  1.00800000E+00  0.00000000E+00  1.60000000E+01  1.00800000E+00  1.00800000E+00
  0.00000000E+00  1.60000000E+01  1.00800000E+00  1.00800000E+00  0.00000000E+00
  1.60000000E+01  1.00800000E+00  1.00800000E+00  0.00000000E+00  1.60000000E+01
  1.00800000E+00  1.00800000E+00  0.00000000E+00  1.60000000E+01  1.00800000E+00
  1.00800000E+00  0.00000000E+00  1.60000000E+01  1.00800000E+00  1.00800000E+00
  0.00000000E+00  1.60000000E+01  1.00800000E+00  1.00800000E+00  0.00000000E+00
  1.60000000E+01  1.00800000E+00  1.00800000E+00  0.00000000E+00  1.60000000E+01
  1.00800000E+00  1.00800000E+00  0.00000000E+00  1.60000000E+01  1.00800000E+00
  1.00800000E+00  0.00000000E+00  1.60000000E+01  1.00800000E+00  1.00800000E+00
  0.00000000E+00  1.60000000E+01  1.00800000E+00  1.00800000E+00  0.00000000E+00
  1.60000000E+01  1.00800000E+00  1.00800000E+00  0.00000000E+00  1.60000000E+01
  1.00800000E+00  1.00800000E+00  0.00000000E+00  1.60000000E+01  1.00800000E+00
  1.00800000E+00  0.00000000E+00  1.60000000E+01  1.00800000E+00  1.00800000E+00
  0.00000000E+00  1.60000000E+01  1.00800000E+00  1.00800000E+00  0.00000000E+00
  1.60000000E+01  1.00800000E+00  1.00800000E+00  0.00000000E+00  1.60000000E+01
  1.00800000E+00  1.00800000E+00  0.00000000E+00  1.60000000E+01  1.00800000E+00
  1.00800000E+00  0.00000000E+00  1.60000000E+01  1.00800000E+00  1.00800000E+00
  0.00000000E+00  1.60000000E+01  1.00800000E+00  1.00800000E+00  0.00000000E+00
  1.60000000E+01  1.00800000E+00  1.00800000E+00  0.00000000E+00  1.60000000E+01
  1.00800000E+00  1.00800000E+00  0.00000000E+00  1.60000000E+01  1.00800000E+00
  1.00800000E+00  0.00000000E+00  1.60000000E+01  1.00800000E+00  1.00800000E+00
  0.00000000E+00  1.60000000E+01  1.00800000E+00  1.00800000E+00  0.00000000E+00
  1.60000000E+01  1.00800000E+00  1.00800000E+00  0.00000000E+00  1.60000000E+01
  1.00800000E+00  1.00800000E+00  0.00000000E+00  1.60000000E+01  1.00800000E+00
  1.00800000E+00  0.00000000E+00  1.60000000E+01  1.00800000E+00  1.00800000E+00
  0.00000000E+00  1.60000000E+01  1.00800000E+00  1.00800000E+00  0.00000000E+00
  1.60000000E+01  1.00800000E+00  1.00800000E+00  0.00000000E+00  1.60000000E+01
  1.00800000E+00  1.00800000E+00  0.00000000E+00  1.60000000E+01  1.00800000E+00
  1.00800000E+00  0.00000000E+00  1.60000000E+01  1.00800000E+00  1.00800000E+00
  0.00000000E+00  1.60000000E+01  1.00800000E+00  1.00800000E+00  0.00000000E+00
  1.60000000E+01  1.00800000E+00  1.00800000E+00  0.00000000E+00  1.60000000E+01
  1.00800000E+00  1.00800000E+00  0.00000000E+00  1.60000000E+01  1.00800000E+00
  1.00800000E+00  0.00000000E+00  1.60000000E+01  1.00800000E+00  1.00800000E+00
  0.00000000E+00  1.60000000E+01  1.00800000E+00  1.00800000E+00  0.00000000E+00
  1.60000000E+01  1.00800000E+00  1.00800000E+00  0.00000000E+00  1.60000000E+01
  1.00800000E+00  1.00800000E+00  0.00000000E+00  1.60000000E+01  1.00800000E+00
  1.00800000E+00  0.00000000E+00  1.60000000E+01  1.00800000E+00  1.00800000E+00
  0.00000000E+00  1.60000000E+01  1.00800000E+00  1.00800000E+00  0.00000000E+00
  1.60000000E+01  1.00800000E+00  1.00800000E+00  0.00000000E+00  1.60000000E+01
  1.00800000E+00  1.00800000E+00  0.00000000E+00  1.60000000E+01  1.00800000E+00
  1.00800000E+00  0.00000000E+00  1.60000000E+01  1.00800000E+00  1.00800000E+00
  0.00000000E+00  1.60000000E+01  1.00800000E+00  1.00800000E+00  0.00000000E+00
  1.60000000E+01  1.00800000E+00  1.00800000E+00  0.00000000E+00  1.60000000E+01
  1.00800000E+00  1.00800000E+00  0.00000000E+00  1.60000000E+01  1.00800000E+00
  1.00800000E+00  0.00000000E+00  1.60000000E+01  1.00800000E+00  1.00800000E+00
  0.00000000E+00  1.60000000E+01  1.00800000E+00  1.00800000E+00  0.00000000E+00
  1.60000000E+01  1.00800000E+00  1.00800000E+00  0.00000000E+00  1.60000000E+01
  1.00800000E+00  1.00800000E+00  0.00000000E+00  1.60000000E+01  1.00800000E+00
  1.00800000E+00  0.00000000E+00  1.60000000E+01  1.00800000E+00  1.00800000E+00
  0.00000000E+00  1.60000000E+01  1.00800000E+00  1.00800000E+00  0.00000000E+00
  1.60000000E+01  1.00800000E+00  1.00800000E+00  0.00000000E+00  1.60000000E+01
  1.00800000E+00  1.00800000E+00  0.00000000E+00  1.60000000E+01  1.00800000E+00
  1.00800000E+00  0.00000000E+00  1.60000000E+01  1.00800000E+00  1.00800000E+00
  0.00000000E+00  1.60000000E+01  1.00800000E+00  1.00800000E+00  0.00000000E+00
  1.60000000E+01  1.00800000E+00  1.00800000E+00  0.00000000E+00  1.60000000E+01
  1.00800000E+00  1.00800000E+00  0.00000000E+00  1.60000000E+01  1.00800000E+00
  1.00800000E+00  0.00000000E+00  1.60000000E+01  1.00800000E+00  1.00800000E+00
  0.00000000E+00  1.60000000E+01  1.00800000E+00  1.00800000E+00  0.00000000E+00
  1.60000000E+01  1.00800000E+00  1.00800000E+00  0.00000000E+00  1.60000000E+01
  1.00800000E+00  1.00800000E+00  0.00000000E+00  1.60000000E+01  1.00800000E+00
  1.00800000E+00  0.00000000E+00  1.60000000E+01  1.00800000E+00  1.00800000E+00
  0.00000000E+00  1.60000000E+01  1.00800000E+00  1.00800000E+00  0.00000000E+00
  1.60000000E+01  1.00800000E+00  1.00800000E+00  0.00000000E+00  1.60000000E+01
  1.00800000E+00  1.00800000E+00  0.00000000E+00  1.60000000E+01  1.00800000E+00
  1.00800000E+00  0.00000000E+00  1.60000000E+01  1.00800000E+00  1.00800000E+00
  0.00000000E+00  1.60000000E+01  1.00800000E+00  1.00800000E+00  0.00000000E+00
  1.60000000E+01  1.00800000E+00  1.00800000E+00  0.00000000E+00  1.60000000E+01
  1.00800000E+00  1.00800000E+00  0.00000000E+00  1.60000000E+01  1.00800000E+00
  1.00800000E+00  0.00000000E+00  1.60000000E+01  1.00800000E+00  1.00800000E+00
  0.00000000E+00  1.60000000E+01  1.00800000E+00  1.00800000E+00  0.00000000E+00
  1.60000000E+01  1.00800000E+00  1.00800000E+00  0.00000000E+00  1.60000000E+01
  1.00800000E+00  1.00800000E+00  0.00000000E+00  1.60000000E+01  1.00800000E+00
  1.00800000E+00  0.00000000E+00  1.60000000E+01  1.00800000E+00  1.00800000E+00
  0.00000000E+00  1.60000000E+01  1.00800000E+00  1.00800000E+00  0.00000000E+00
  1.60000000E+01  1.00800000E+00  1.00800000E+00  0.00000000E+00  1.60000000E+01
  1.00800000E+00  1.00800000E+00  0.00000000E+00  1.60000000E+01  1.00800000E+00
  1.00800000E+00  0.00000000E+00  1.60000000E+01  1.00800000E+00  1.00800000E+00
  0.00000000E+00  1.60000000E+01  1.00800000E+00  1.00800000E+00  0.00000000E+00
  1.60000000E+01  1.00800000E+00  1.00800000E+00  0.00000000E+00  1.60000000E+01
  1.00800000E+00  1.00800000E+00  0.00000000E+00  1.60000000E+01  1.00800000E+00
  1.00800000E+00  0.00000000E+00  1.60000000E+01  1.00800000E+00  1.00800000E+00
  0.00000000E+00  1.60000000E+01  1.00800000E+00  1.00800000E+00  0.00000000E+00
  1.60000000E+01  1.00800000E+00  1.00800000E+00  0.00000000E+00  1.60000000E+01
  1.00800000E+00  1.00800000E+00  0.00000000E+00  1.60000000E+01  1.00800000E+00
  1.00800000E+00  0.00000000E+00  1.60000000E+01  1.00800000E+00  1.00800000E+00
  0.00000000E+00  1.60000000E+01  1.00800000E+00  1.00800000E+00  0.00000000E+00
  1.60000000E+01  1.00800000E+00  1.00800000E+00  0.00000000E+00  1.60000000E+01
  1.00800000E+00  1.00800000E+00  0.00000000E+00  1.60000000E+01  1.00800000E+00
  1.00800000E+00  0.00000000E+00  1.60000000E+01  1.00800000E+00  1.00800000E+00
  0.00000000E+00  1.60000000E+01  1.00800000E+00  1.00800000E+00  0.00000000E+00
  1.60000000E+01  1.00800000E+00  1.00800000E+00  0.00000000E+00  1.60000000E+01
  1.00800000E+00  1.00800000E+00  0.00000000E+00  1.60000000E+01  1.00800000E+00
  1.00800000E+00  0.00000000E+00  1.60000000E+01  1.00800000E+00  1.00800000E+00
  0.00000000E+00  1.60000000E+01  1.00800000E+00  1.00800000E+00  0.00000000E+00
  1.60000000E+01  1.00800000E+00  1.00800000E+00  0.00000000E+00  1.60000000E+01
  1.00800000E+00  1.00800000E+00  0.00000000E+00  1.60000000E+01  1.00800000E+00
  1.00800000E+00  0.00000000E+00  1.60000000E+01  1.00800000E+00  1.00800000E+00
  0.00000000E+00  1.60000000E+01  1.00800000E+00  1.00800000E+00  0.00000000E+00
  1.60000000E+01  1.00800000E+00  1.00800000E+00  0.00000000E+00  1.60000000E+01
  1.00800000E+00  1.00800000E+00  0.00000000E+00  1.60000000E+01  1.00800000E+00
  1.00800000E+00  0.00000000E+00  1.60000000E+01  1.00800000E+00  1.00800000E+00
  0.00000000E+00  1.60000000E+01  1.00800000E+00  1.00800000E+00  0.00000000E+00
  1.60000000E+01  1.00800000E+00  1.00800000E+00  0.00000000E+00  1.60000000E+01
  1.00800000E+00  1.00800000E+00  0.00000000E+00  1.60000000E+01  1.00800000E+00
  1.00800000E+00  0.00000000E+00  1.60000000E+01  1.00800000E+00  1.00800000E+00
  0.00000000E+00  1.60000000E+01  1.00800000E+00  1.00800000E+00  0.00000000E+00
  1.60000000E+01  1.00800000E+00  1.00800000E+00  0.00000000E+00  1.60000000E+01
  1.00800000E+00  1.00800000E+00  0.00000000E+00  1.60000000E+01  1.00800000E+00
  1.00800000E+00  0.00000000E+00  1.60000000E+01  1.00800000E+00  1.00800000E+00
  0.00000000E+00  1.60000000E+01  1.00800000E+00  1.00800000E+00  0.00000000E+00
  1.60000000E+01  1.00800000E+00  1.00800000E+00  0.00000000E+00  1.60000000E+01
  1.00800000E+00  1.00800000E+00  0.00000000E+00  1.60000000E+01  1.00800000E+00
  1.00800000E+00  0.00000000E+00  1.60000000E+01  1.00800000E+00  1.00800000E+00
  0.00000000E+00  1.60000000E+01  1.00800000E+00  1.00800000E+00  0.00000000E+00
  1.60000000E+01  1.00800000E+00  1.00800000E+00  0.00000000E+00  1.60000000E+01
  1.00800000E+00  1.00800000E+00  0.00000000E+00  1.60000000E+01  1.00800000E+00
  1.00800000E+00  0.00000000E+00  1.60000000E+01  1.00800000E+00  1.00800000E+00
  0.00000000E+00  1.60000000E+01  1.00800000E+00  1.00800000E+00  0.00000000E+00
  1.60000000E+01  1.00800000E+00  1.00800000E+00  0.00000000E+00  1.60000000E+01
  1.00800000E+00  1.00800000E+00  0.00000000E+00  1.60000000E+01  1.00800000E+00
  1.00800000E+00  0.00000000E+00  1.60000000E+01  1.00800000E+00  1.00800000E+00
  0.00000000E+00  1.60000000E+01  1.00800000E+00  1.00800000E+00  0.00000000E+00
  1.60000000E+01  1.00800000E+00  1.00800000E+00  0.00000000E+00  1.60000000E+01
  1.00800000E+00  1.00800000E+00  0.00000000E+00  1.60000000E+01  1.00800000E+00
  1.00800000E+00  0.00000000E+00  1.60000000E+01  1.00800000E+00  1.00800000E+00
  0.00000000E+00  1.60000000E+01  1.00800000E+00  1.00800000E+00  0.00000000E+00
  1.60000000E+01  1.00800000E+00  1.00800000E+00  0.00000000E+00  1.60000000E+01
  1.00800000E+00  1.00800000E+00  0.00000000E+00  1.60000000E+01  1.00800000E+00
  1.00800000E+00  0.00000000E+00  1.60000000E+01  1.00800000E+00  1.00800000E+00
  0.00000000E+00  1.60000000E+01  1.00800000E+00  1.00800000E+00  0.00000000E+00
  1.60000000E+01  1.00800000E+00  1.00800000E+00  0.00000000E+00  1.60000000E+01
  1.00800000E+00  1.00800000E+00  0.00000000E+00  1.60000000E+01  1.00800000E+00
  1.00800000E+00  0.00000000E+00  1.60000000E+01  1.00800000E+00  1.00800000E+00
  0.00000000E+00  1.60000000E+01  1.00800000E+00  1.00800000E+00  0.00000000E+00
  1.60000000E+01  1.00800000E+00  1.00800000E+00  0.00000000E+00  1.60000000E+01
  1.00800000E+00  1.00800000E+00  0.00000000E+00  1.60000000E+01  1.00800000E+00
  1.00800000E+00  0.00000000E+00  1.60000000E+01  1.00800000E+00  1.00800000E+00
  0.00000000E+00  1.60000000E+01  1.00800000E+00  1.00800000E+00  0.00000000E+00
  1.60000000E+01  1.00800000E+00  1.00800000E+00  0.00000000E+00  1.60000000E+01
  1.00800000E+00  1.00800000E+00  0.00000000E+00  1.60000000E+01  1.00800000E+00
  1.00800000E+00  0.00000000E+00  1.60000000E+01  1.00800000E+00  1.00800000E+00
  0.00000000E+00  1.60000000E+01  1.00800000E+00  1.00800000E+00  0.00000000E+00
  1.60000000E+01  1.00800000E+00  1.00800000E+00  0.00000000E+00  1.60000000E+01
  1.00800000E+00  1.00800000E+00  0.00000000E+00  1.60000000E+01  1.00800000E+00
  1.00800000E+00  0.00000000E+00  1.60000000E+01  1.00800000E+00  1.00800000E+00
  0.00000000E+00  1.60000000E+01  1.00800000E+00  1.00800000E+00  0.00000000E+00
  1.60000000E+01  1.00800000E+00  1.00800000E+00  0.00000000E+00  1.60000000E+01
  1.00800000E+00  1.00800000E+00  0.00000000E+00  1.60000000E+01  1.00800000E+00
  1.00800000E+00  0.00000000E+00  1.60000000E+01  1.00800000E+00  1.00800000E+00
  0.00000000E+00  1.60000000E+01  1.00800000E+00  1.00800000E+00  0.00000000E+00
  1.60000000E+01  1.00800000E+00  1.00800000E+00  0.00000000E+00  1.60000000E+01
  1.00800000E+00  1.00800000E+00  0.00000000E+00  1.60000000E+01  1.00800000E+00
  1.00800000E+00  0.00000000E+00  1.60000000E+01  1.00800000E+00  1.00800000E+00
  0.00000000E+00  1.60000000E+01  1.00800000E+00  1.00800000E+00  0.00000000E+00
  1.60000000E+01  1.00800000E+00  1.00800000E+00  0.00000000E+00  1.60000000E+01
  1.00800000E+00  1.00800000E+00  0.00000000E+00  1.60000000E+01  1.00800000E+00
  1.00800000E+00  0.00000000E+00  1.60000000E+01  1.00800000E+00  1.00800000E+00
  0.00000000E+00  1.60000000E+01  1.00800000E+00  1.00800000E+00  0.00000000E+00
  1.60000000E+01  1.00800000E+00  1.00800000E+00  0.00000000E+00  1.60000000E+01
  1.00800000E+00  1.00800000E+00  0.00000000E+00  1.60000000E+01  1.00800000E+00
  1.00800000E+00  0.00000000E+00  1.60000000E+01  1.00800000E+00  1.00800000E+00
  0.00000000E+00  1.60000000E+01  1.00800000E+00  1.00800000E+00  0.00000000E+00
  1.60000000E+01  1.00800000E+00  1.00800000E+00  0.00000000E+00  1.60000000E+01
  1.00800000E+00  1.00800000E+00  0.00000000E+00  1.60000000E+01  1.00800000E+00
  1.00800000E+00  0.00000000E+00  1.60000000E+01  1.00800000E+00  1.00800000E+00
  0.00000000E+00  1.60000000E+01  1.00800000E+00  1.00800000E+00  0.00000000E+00
  1.60000000E+01  1.00800000E+00  1.00800000E+00  0.00000000E+00  1.60000000E+01
  1.00800000E+00  1.00800000E+00  0.00000000E+00  1.60000000E+01  1.00800000E+00
  1.00800000E+00  0.00000000E+00  1.60000000E+01  1.00800000E+00  1.00800000E+00
  0.00000000E+00  1.60000000E+01  1.00800000E+00  1.00800000E+00  0.00000000E+00
  1.60000000E+01  1.00800000E+00  1.00800000E+00  0.00000000E+00  1.60000000E+01
  1.00800000E+00  1.00800000E+00  0.00000000E+00  1.60000000E+01  1.00800000E+00
  1.00800000E+00  0.00000000E+00  1.60000000E+01  1.00800000E+00  1.00800000E+00
  0.00000000E+00  1.60000000E+01  1.00800000E+00  1.00800000E+00  0.00000000E+00
  1.60000000E+01  1.00800000E+00  1.00800000E+00  0.00000000E+00  1.60000000E+01
  1.00800000E+00  1.00800000E+00  0.00000000E+00  1.60000000E+01  1.00800000E+00
  1.00800000E+00  0.00000000E+00  1.60000000E+01  1.00800000E+00  1.00800000E+00
  0.00000000E+00  1.60000000E+01  1.00800000E+00  1.00800000E+00  0.00000000E+00
  1.60000000E+01  1.00800000E+00  1.00800000E+00  0.00000000E+00  1.60000000E+01
  1.00800000E+00  1.00800000E+00  0.00000000E+00  1.60000000E+01  1.00800000E+00
  1.00800000E+00  0.00000000E+00  1.60000000E+01  1.00800000E+00  1.00800000E+00
  0.00000000E+00  1.60000000E+01  1.00800000E+00  1.00800000E+00  0.00000000E+00
  1.60000000E+01  1.00800000E+00  1.00800000E+00  0.00000000E+00  1.60000000E+01
  1.00800000E+00  1.00800000E+00  0.00000000E+00  1.60000000E+01  1.00800000E+00
  1.00800000E+00  0.00000000E+00  1.60000000E+01  1.00800000E+00  1.00800000E+00
  0.00000000E+00  1.60000000E+01  1.00800000E+00  1.00800000E+00  0.00000000E+00
  1.60000000E+01  1.00800000E+00  1.00800000E+00  0.00000000E+00  1.60000000E+01
  1.00800000E+00  1.00800000E+00  0.00000000E+00  1.60000000E+01  1.00800000E+00
  1.00800000E+00  0.00000000E+00  1.60000000E+01  1.00800000E+00  1.00800000E+00
  0.00000000E+00  1.60000000E+01  1.00800000E+00  1.00800000E+00  0.00000000E+00
  1.60000000E+01  1.00800000E+00  1.00800000E+00  0.00000000E+00  1.60000000E+01
  1.00800000E+00  1.00800000E+00  0.00000000E+00  1.60000000E+01  1.00800000E+00
  1.00800000E+00  0.00000000E+00  1.60000000E+01  1.00800000E+00  1.00800000E+00
  0.00000000E+00  1.60000000E+01  1.00800000E+00  1.00800000E+00  0.00000000E+00
  1.60000000E+01  1.00800000E+00  1.00800000E+00  0.00000000E+00  1.60000000E+01
  1.00800000E+00  1.00800000E+00  0.00000000E+00  1.60000000E+01  1.00800000E+00
  1.00800000E+00  0.00000000E+00  1.60000000E+01  1.00800000E+00  1.00800000E+00
  0.00000000E+00  1.60000000E+01  1.00800000E+00  1.00800000E+00  0.00000000E+00
  1.60000000E+01  1.00800000E+00  1.00800000E+00  0.00000000E+00  1.60000000E+01
  1.00800000E+00  1.00800000E+00  0.00000000E+00  1.60000000E+01  1.00800000E+00
  1.00800000E+00  0.00000000E+00  1.60000000E+01  1.00800000E+00  1.00800000E+00
  0.00000000E+00  1.60000000E+01  1.00800000E+00  1.00800000E+00  0.00000000E+00
  1.60000000E+01  1.00800000E+00  1.00800000E+00  0.00000000E+00  1.60000000E+01
  1.00800000E+00  1.00800000E+00  0.00000000E+00  1.60000000E+01  1.00800000E+00
  1.00800000E+00  0.00000000E+00  1.60000000E+01  1.00800000E+00  1.00800000E+00
  0.00000000E+00  1.60000000E+01  1.00800000E+00  1.00800000E+00  0.00000000E+00
  1.60000000E+01  1.00800000E+00  1.00800000E+00  0.00000000E+00  1.60000000E+01
  1.00800000E+00  1.00800000E+00  0.00000000E+00  1.60000000E+01  1.00800000E+00
  1.00800000E+00  0.00000000E+00  1.60000000E+01  1.00800000E+00  1.00800000E+00
  0.00000000E+00  1.60000000E+01  1.00800000E+00  1.00800000E+00  0.00000000E+00
  1.60000000E+01  1.00800000E+00  1.00800000E+00  0.00000000E+00  1.60000000E+01
  1.00800000E+00  1.00800000E+00  0.00000000E+00  1.60000000E+01  1.00800000E+00
  1.00800000E+00  0.00000000E+00  1.60000000E+01  1.00800000E+00  1.00800000E+00
  0.00000000E+00  1.60000000E+01  1.00800000E+00  1.00800000E+00  0.00000000E+00
  1.60000000E+01  1.00800000E+00  1.00800000E+00  0.00000000E+00  1.60000000E+01
  1.00800000E+00  1.00800000E+00  0.00000000E+00  1.60000000E+01  1.00800000E+00
  1.00800000E+00  0.00000000E+00  1.60000000E+01  1.00800000E+00  1.00800000E+00
  0.00000000E+00  1.60000000E+01  1.00800000E+00  1.00800000E+00  0.00000000E+00
  1.60000000E+01  1.00800000E+00  1.00800000E+00  0.00000000E+00  1.60000000E+01
  1.00800000E+00  1.00800000E+00  0.00000000E+00  1.60000000E+01  1.00800000E+00
  1.00800000E+00  0.00000000E+00  1.60000000E+01  1.00800000E+00  1.00800000E+00
  0.00000000E+00  1.60000000E+01  1.00800000E+00  1.00800000E+00  0.00000000E+00
  1.60000000E+01  1.00800000E+00  1.00800000E+00  0.00000000E+00  1.60000000E+01
  1.00800000E+00  1.00800000E+00  0.00000000E+00  1.60000000E+01  1.00800000E+00
  1.00800000E+00  0.00000000E+00  1.60000000E+01  1.00800000E+00  1.00800000E+00
  0.00000000E+00  1.60000000E+01  1.00800000E+00  1.00800000E+00  0.00000000E+00
  1.60000000E+01  1.00800000E+00  1.00800000E+00  0.00000000E+00  1.60000000E+01
  1.00800000E+00  1.00800000E+00  0.00000000E+00  1.60000000E+01  1.00800000E+00
  1.00800000E+00  0.00000000E+00  1.60000000E+01  1.00800000E+00  1.00800000E+00
  0.00000000E+00  1.60000000E+01  1.00800000E+00  1.00800000E+00  0.00000000E+00
  1.60000000E+01  1.00800000E+00  1.00800000E+00  0.00000000E+00  1.60000000E+01
  1.00800000E+00  1.00800000E+00  0.00000000E+00  1.60000000E+01  1.00800000E+00
  1.00800000E+00  0.00000000E+00  1.60000000E+01  1.00800000E+00  1.00800000E+00
  0.00000000E+00  1.60000000E+01  1.00800000E+00  1.00800000E+00  0.00000000E+00
  1.60000000E+01  1.00800000E+00  1.00800000E+00  0.00000000E+00  1.60000000E+01
  1.00800000E+00  1.00800000E+00  0.00000000E+00  1.60000000E+01  1.00800000E+00
  1.00800000E+00  0.00000000E+00  1.60000000E+01  1.00800000E+00  1.00800000E+00
  0.00000000E+00  1.60000000E+01  1.00800000E+00  1.00800000E+00  0.00000000E+00
  1.60000000E+01  1.00800000E+00  1.00800000E+00  0.00000000E+00  1.60000000E+01
  1.00800000E+00  1.00800000E+00  0.00000000E+00  1.60000000E+01  1.00800000E+00
  1.00800000E+00  0.00000000E+00  1.60000000E+01  1.00800000E+00  1.00800000E+00
  0.00000000E+00  1.60000000E+01  1.00800000E+00  1.00800000E+00  0.00000000E+00
  1.60000000E+01  1.00800000E+00  1.00800000E+00  0.00000000E+00  1.60000000E+01
  1.00800000E+00  1.00800000E+00  0.00000000E+00  1.60000000E+01  1.00800000E+00
  1.00800000E+00  0.00000000E+00  1.60000000E+01  1.00800000E+00  1.00800000E+00
  0.00000000E+00  1.60000000E+01  1.00800000E+00  1.00800000E+00  0.00000000E+00
  1.60000000E+01  1.00800000E+00  1.00800000E+00  0.00000000E+00  1.60000000E+01
  1.00800000E+00  1.00800000E+00  0.00000000E+00  1.60000000E+01  1.00800000E+00
  1.00800000E+00  0.00000000E+00  1.60000000E+01  1.00800000E+00  1.00800000E+00
  0.00000000E+00  1.60000000E+01  1.00800000E+00  1.00800000E+00  0.00000000E+00
  1.60000000E+01  1.00800000E+00  1.00800000E+00  0.00000000E+00  1.60000000E+01
  1.00800000E+00  1.00800000E+00  0.00000000E+00  1.60000000E+01  1.00800000E+00
  1.00800000E+00  0.00000000E+00  1.60000000E+01  1.00800000E+00  1.00800000E+00
  0.00000000E+00  1.60000000E+01  1.00800000E+00  1.00800000E+00  0.00000000E+00
  1.60000000E+01  1.00800000E+00  1.00800000E+00  0.00000000E+00  1.60000000E+01
  1.00800000E+00  1.00800000E+00  0.00000000E+00  1.60000000E+01  1.00800000E+00
  1.00800000E+00  0.00000000E+00  1.60000000E+01  1.00800000E+00  1.00800000E+00
  0.00000000E+00  1.60000000E+01  1.00800000E+00  1.00800000E+00  0.00000000E+00
  1.60000000E+01  1.00800000E+00  1.00800000E+00  0.00000000E+00  1.60000000E+01
  1.00800000E+00  1.00800000E+00  0.00000000E+00  1.60000000E+01  1.00800000E+00
  1.00800000E+00  0.00000000E+00  1.60000000E+01  1.00800000E+00  1.00800000E+00
  0.00000000E+00  1.60000000E+01  1.00800000E+00  1.00800000E+00  0.00000000E+00
  1.60000000E+01  1.00800000E+00  1.00800000E+00  0.00000000E+00  1.60000000E+01
  1.00800000E+00  1.00800000E+00  0.00000000E+00  1.60000000E+01  1.00800000E+00
  1.00800000E+00  0.00000000E+00  1.60000000E+01  1.00800000E+00  1.00800000E+00
  0.00000000E+00  1.60000000E+01  1.00800000E+00  1.00800000E+00  0.00000000E+00
  1.60000000E+01  1.00800000E+00  1.00800000E+00  0.00000000E+00  1.60000000E+01
  1.00800000E+00  1.00800000E+00  0.00000000E+00  1.60000000E+01  1.00800000E+00
  1.00800000E+00  0.00000000E+00  1.60000000E+01  1.00800000E+00  1.00800000E+00
  0.00000000E+00  1.60000000E+01  1.00800000E+00  1.00800000E+00  0.00000000E+00
  1.60000000E+01  1.00800000E+00  1.00800000E+00  0.00000000E+00  1.60000000E+01
  1.00800000E+00  1.00800000E+00  0.00000000E+00  1.60000000E+01  1.00800000E+00
  1.00800000E+00  0.00000000E+00  1.60000000E+01  1.00800000E+00  1.00800000E+00
  0.00000000E+00  1.60000000E+01  1.00800000E+00  1.00800000E+00  0.00000000E+00
  1.60000000E+01  1.00800000E+00  1.00800000E+00  0.00000000E+00  1.60000000E+01
  1.00800000E+00  1.00800000E+00  0.00000000E+00  1.60000000E+01  1.00800000E+00
  1.00800000E+00  0.00000000E+00  1.60000000E+01  1.00800000E+00  1.00800000E+00
  0.00000000E+00  1.60000000E+01  1.00800000E+00  1.00800000E+00  0.00000000E+00
  1.60000000E+01  1.00800000E+00  1.00800000E+00  0.00000000E+00  1.60000000E+01
  1.00800000E+00  1.00800000E+00  0.00000000E+00  1.60000000E+01  1.00800000E+00
  1.00800000E+00  0.00000000E+00  1.60000000E+01  1.00800000E+00  1.00800000E+00
  0.00000000E+00  1.60000000E+01  1.00800000E+00  1.00800000E+00  0.00000000E+00
  1.60000000E+01  1.00800000E+00  1.00800000E+00  0.00000000E+00  1.60000000E+01
  1.00800000E+00  1.00800000E+00  0.00000000E+00  1.60000000E+01  1.00800000E+00
  1.00800000E+00  0.00000000E+00  1.60000000E+01  1.00800000E+00  1.00800000E+00
  0.00000000E+00  1.60000000E+01  1.00800000E+00  1.00800000E+00  0.00000000E+00
  1.60000000E+01  1.00800000E+00  1.00800000E+00  0.00000000E+00  1.60000000E+01
  1.00800000E+00  1.00800000E+00  0.00000000E+00  1.60000000E+01  1.00800000E+00
  1.00800000E+00  0.00000000E+00  1.60000000E+01  1.00800000E+00  1.00800000E+00
  0.00000000E+00  1.60000000E+01  1.00800000E+00  1.00800000E+00  0.00000000E+00
  1.60000000E+01  1.00800000E+00  1.00800000E+00  0.00000000E+00  1.60000000E+01
  1.00800000E+00  1.00800000E+00  0.00000000E+00  1.60000000E+01  1.00800000E+00
  1.00800000E+00  0.00000000E+00  1.60000000E+01  1.00800000E+00  1.00800000E+00
  0.00000000E+00  1.60000000E+01  1.00800000E+00  1.00800000E+00  0.00000000E+00
  1.60000000E+01  1.00800000E+00  1.00800000E+00  0.00000000E+00  1.60000000E+01
  1.00800000E+00  1.00800000E+00  0.00000000E+00  1.60000000E+01  1.00800000E+00
  1.00800000E+00  0.00000000E+00  1.60000000E+01  1.00800000E+00  1.00800000E+00
  0.00000000E+00  1.60000000E+01  1.00800000E+00  1.00800000E+00  0.00000000E+00
  1.60000000E+01  1.00800000E+00  1.00800000E+00  0.00000000E+00  1.60000000E+01
  1.00800000E+00  1.00800000E+00  0.00000000E+00  1.60000000E+01  1.00800000E+00
  1.00800000E+00  0.00000000E+00  1.60000000E+01  1.00800000E+00  1.00800000E+00
  0.00000000E+00  1.60000000E+01  1.00800000E+00  1.00800000E+00  0.00000000E+00
  1.60000000E+01  1.00800000E+00  1.00800000E+00  0.00000000E+00  1.60000000E+01
  1.00800000E+00  1.00800000E+00  0.00000000E+00  1.60000000E+01  1.00800000E+00
  1.00800000E+00  0.00000000E+00  1.60000000E+01  1.00800000E+00  1.00800000E+00
  0.00000000E+00  1.60000000E+01  1.00800000E+00  1.00800000E+00  0.00000000E+00
  1.60000000E+01  1.00800000E+00  1.00800000E+00  0.00000000E+00  1.60000000E+01
  1.00800000E+00  1.00800000E+00  0.00000000E+00  1.60000000E+01  1.00800000E+00
  1.00800000E+00  0.00000000E+00  1.60000000E+01  1.00800000E+00  1.00800000E+00
  0.00000000E+00  1.60000000E+01  1.00800000E+00  1.00800000E+00  0.00000000E+00
  1.60000000E+01  1.00800000E+00  1.00800000E+00  0.00000000E+00  1.60000000E+01
  1.00800000E+00  1.00800000E+00  0.00000000E+00  1.60000000E+01  1.00800000E+00
  1.00800000E+00  0.00000000E+00  1.60000000E+01  1.00800000E+00  1.00800000E+00
  0.00000000E+00  1.60000000E+01  1.00800000E+00  1.00800000E+00  0.00000000E+00
  1.60000000E+01  1.00800000E+00  1.00800000E+00  0.00000000E+00  1.60000000E+01
  1.00800000E+00  1.00800000E+00  0.00000000E+00  1.60000000E+01  1.00800000E+00
  1.00800000E+00  0.00000000E+00  1.60000000E+01  1.00800000E+00  1.00800000E+00
  0.00000000E+00  1.60000000E+01  1.00800000E+00  1.00800000E+00  0.00000000E+00
  1.60000000E+01  1.00800000E+00  1.00800000E+00  0.00000000E+00  1.60000000E+01
  1.00800000E+00  1.00800000E+00  0.00000000E+00  1.60000000E+01  1.00800000E+00
  1.00800000E+00  0.00000000E+00  1.60000000E+01  1.00800000E+00  1.00800000E+00
  0.00000000E+00  1.60000000E+01  1.00800000E+00  1.00800000E+00  0.00000000E+00
  1.60000000E+01  1.00800000E+00  1.00800000E+00  0.00000000E+00  1.60000000E+01
  1.00800000E+00  1.00800000E+00  0.00000000E+00  1.60000000E+01  1.00800000E+00
  1.00800000E+00  0.00000000E+00  1.60000000E+01  1.00800000E+00  1.00800000E+00
  0.00000000E+00  1.60000000E+01  1.00800000E+00  1.00800000E+00  0.00000000E+00
  1.60000000E+01  1.00800000E+00  1.00800000E+00  0.00000000E+00  1.60000000E+01
  1.00800000E+00  1.00800000E+00  0.00000000E+00  1.60000000E+01  1.00800000E+00
  1.00800000E+00  0.00000000E+00  1.60000000E+01  1.00800000E+00  1.00800000E+00
  0.00000000E+00  1.60000000E+01  1.00800000E+00  1.00800000E+00  0.00000000E+00
  1.60000000E+01  1.00800000E+00  1.00800000E+00  0.00000000E+00  1.60000000E+01
  1.00800000E+00  1.00800000E+00  0.00000000E+00  1.60000000E+01  1.00800000E+00
  1.00800000E+00  0.00000000E+00  1.60000000E+01  1.00800000E+00  1.00800000E+00
  0.00000000E+00  1.60000000E+01  1.00800000E+00  1.00800000E+00  0.00000000E+00
  1.60000000E+01  1.00800000E+00  1.00800000E+00  0.00000000E+00  1.60000000E+01
  1.00800000E+00  1.00800000E+00  0.00000000E+00  1.60000000E+01  1.00800000E+00
  1.00800000E+00  0.00000000E+00  1.60000000E+01  1.00800000E+00  1.00800000E+00
  0.00000000E+00  1.60000000E+01  1.00800000E+00  1.00800000E+00  0.00000000E+00
  1.60000000E+01  1.00800000E+00  1.00800000E+00  0.00000000E+00  1.60000000E+01
  1.00800000E+00  1.00800000E+00  0.00000000E+00  1.60000000E+01  1.00800000E+00
  1.00800000E+00  0.00000000E+00  1.60000000E+01  1.00800000E+00  1.00800000E+00
  0.00000000E+00  1.60000000E+01  1.00800000E+00  1.00800000E+00  0.00000000E+00
  1.60000000E+01  1.00800000E+00  1.00800000E+00  0.00000000E+00  1.60000000E+01
  1.00800000E+00  1.00800000E+00  0.00000000E+00  1.60000000E+01  1.00800000E+00
  1.00800000E+00  0.00000000E+00  1.60000000E+01  1.00800000E+00  1.00800000E+00
  0.00000000E+00  1.60000000E+01  1.00800000E+00  1.00800000E+00  0.00000000E+00
  1.60000000E+01  1.00800000E+00  1.00800000E+00  0.00000000E+00  1.60000000E+01
  1.00800000E+00  1.00800000E+00  0.00000000E+00  1.60000000E+01  1.00800000E+00
  1.00800000E+00  0.00000000E+00  1.60000000E+01  1.00800000E+00  1.00800000E+00
  0.00000000E+00  1.60000000E+01  1.00800000E+00  1.00800000E+00  0.00000000E+00
  1.60000000E+01  1.00800000E+00  1.00800000E+00  0.00000000E+00  1.60000000E+01
  1.00800000E+00  1.00800000E+00  0.00000000E+00  1.60000000E+01  1.00800000E+00
  1.00800000E+00  0.00000000E+00  1.60000000E+01  1.00800000E+00  1.00800000E+00
  0.00000000E+00  1.60000000E+01  1.00800000E+00  1.00800000E+00  0.00000000E+00
  1.60000000E+01  1.00800000E+00  1.00800000E+00  0.00000000E+00  1.60000000E+01
  1.00800000E+00  1.00800000E+00  0.00000000E+00  1.60000000E+01  1.00800000E+00
  1.00800000E+00  0.00000000E+00  1.60000000E+01  1.00800000E+00  1.00800000E+00
  0.00000000E+00  1.60000000E+01  1.00800000E+00  1.00800000E+00  0.00000000E+00
  1.60000000E+01  1.00800000E+00  1.00800000E+00  0.00000000E+00  1.60000000E+01
  1.00800000E+00  1.00800000E+00  0.00000000E+00  1.60000000E+01  1.00800000E+00
  1.00800000E+00  0.00000000E+00  1.60000000E+01  1.00800000E+00  1.00800000E+00
  0.00000000E+00  1.60000000E+01  1.00800000E+00  1.00800000E+00  0.00000000E+00
  1.60000000E+01  1.00800000E+00  1.00800000E+00  0.00000000E+00  1.60000000E+01
  1.00800000E+00  1.00800000E+00  0.00000000E+00  1.60000000E+01  1.00800000E+00
  1.00800000E+00  0.00000000E+00  1.60000000E+01  1.00800000E+00  1.00800000E+00
  0.00000000E+00  1.60000000E+01  1.00800000E+00  1.00800000E+00  0.00000000E+00
  1.60000000E+01  1.00800000E+00  1.00800000E+00  0.00000000E+00  1.60000000E+01
  1.00800000E+00  1.00800000E+00  0.00000000E+00  1.60000000E+01  1.00800000E+00
  1.00800000E+00  0.00000000E+00  1.60000000E+01  1.00800000E+00  1.00800000E+00
  0.00000000E+00  1.60000000E+01  1.00800000E+00  1.00800000E+00  0.00000000E+00
  1.60000000E+01  1.00800000E+00  1.00800000E+00  0.00000000E+00  1.60000000E+01
  1.00800000E+00  1.00800000E+00  0.00000000E+00  1.60000000E+01  1.00800000E+00
  1.00800000E+00  0.00000000E+00  1.60000000E+01  1.00800000E+00  1.00800000E+00
  0.00000000E+00  1.60000000E+01  1.00800000E+00  1.00800000E+00  0.00000000E+00
  1.60000000E+01  1.00800000E+00  1.00800000E+00  0.00000000E+00  1.60000000E+01
  1.00800000E+00  1.00800000E+00  0.00000000E+00  1.60000000E+01  1.00800000E+00
  1.00800000E+00  0.00000000E+00  1.60000000E+01  1.00800000E+00  1.00800000E+00
  0.00000000E+00  1.60000000E+01  1.00800000E+00  1.00800000E+00  0.00000000E+00
  1.60000000E+01  1.00800000E+00  1.00800000E+00  0.00000000E+00  1.60000000E+01
  1.00800000E+00  1.00800000E+00  0.00000000E+00  1.60000000E+01  1.00800000E+00
  1.00800000E+00  0.00000000E+00  1.60000000E+01  1.00800000E+00  1.00800000E+00
  0.00000000E+00  1.60000000E+01  1.00800000E+00  1.00800000E+00  0.00000000E+00
  1.60000000E+01  1.00800000E+00  1.00800000E+00  0.00000000E+00  1.60000000E+01
  1.00800000E+00  1.00800000E+00  0.00000000E+00  1.60000000E+01  1.00800000E+00
  1.00800000E+00  0.00000000E+00  1.60000000E+01  1.00800000E+00  1.00800000E+00
  0.00000000E+00  1.60000000E+01  1.00800000E+00  1.00800000E+00  0.00000000E+00
  1.60000000E+01  1.00800000E+00  1.00800000E+00  0.00000000E+00  1.60000000E+01
  1.00800000E+00  1.00800000E+00  0.00000000E+00  1.60000000E+01  1.00800000E+00
  1.00800000E+00  0.00000000E+00  1.60000000E+01  1.00800000E+00  1.00800000E+00
  0.00000000E+00  1.60000000E+01  1.00800000E+00  1.00800000E+00  0.00000000E+00
  1.60000000E+01  1.00800000E+00  1.00800000E+00  0.00000000E+00  1.60000000E+01
  1.00800000E+00  1.00800000E+00  0.00000000E+00  1.60000000E+01  1.00800000E+00
  1.00800000E+00  0.00000000E+00  1.60000000E+01  1.00800000E+00  1.00800000E+00
  0.00000000E+00  1.60000000E+01  1.00800000E+00  1.00800000E+00  0.00000000E+00
  1.60000000E+01  1.00800000E+00  1.00800000E+00  0.00000000E+00  1.60000000E+01
  1.00800000E+00  1.00800000E+00  0.00000000E+00  1.60000000E+01  1.00800000E+00
  1.00800000E+00  0.00000000E+00  1.60000000E+01  1.00800000E+00  1.00800000E+00
  0.00000000E+00  1.60000000E+01  1.00800000E+00  1.00800000E+00  0.00000000E+00
  1.60000000E+01  1.00800000E+00  1.00800000E+00  0.00000000E+00  1.60000000E+01
  1.00800000E+00  1.00800000E+00  0.00000000E+00  1.60000000E+01  1.00800000E+00
  1.00800000E+00  0.00000000E+00  1.60000000E+01  1.00800000E+00  1.00800000E+00
  0.00000000E+00  1.60000000E+01  1.00800000E+00  1.00800000E+00  0.00000000E+00
  1.60000000E+01  1.00800000E+00  1.00800000E+00  0.00000000E+00  1.60000000E+01
  1.00800000E+00  1.00800000E+00  0.00000000E+00  1.60000000E+01  1.00800000E+00
  1.00800000E+00  0.00000000E+00  1.60000000E+01  1.00800000E+00  1.00800000E+00
  0.00000000E+00  1.60000000E+01  1.00800000E+00  1.00800000E+00  0.00000000E+00
  1.60000000E+01  1.00800000E+00  1.00800000E+00  0.00000000E+00  1.60000000E+01
  1.00800000E+00  1.00800000E+00  0.00000000E+00  1.60000000E+01  1.00800000E+00
  1.00800000E+00  0.00000000E+00  1.60000000E+01  1.00800000E+00  1.00800000E+00
  0.00000000E+00  1.60000000E+01  1.00800000E+00  1.00800000E+00  0.00000000E+00
  1.60000000E+01  1.00800000E+00  1.00800000E+00  0.00000000E+00  1.60000000E+01
  1.00800000E+00  1.00800000E+00  0.00000000E+00  1.60000000E+01  1.00800000E+00
  1.00800000E+00  0.00000000E+00  1.60000000E+01  1.00800000E+00  1.00800000E+00
  0.00000000E+00  1.60000000E+01  1.00800000E+00  1.00800000E+00  0.00000000E+00
  1.60000000E+01  1.00800000E+00  1.00800000E+00  0.00000000E+00  1.60000000E+01
  1.00800000E+00  1.00800000E+00  0.00000000E+00  1.60000000E+01  1.00800000E+00
  1.00800000E+00  0.00000000E+00  1.60000000E+01  1.00800000E+00  1.00800000E+00
  0.00000000E+00  1.60000000E+01  1.00800000E+00  1.00800000E+00  0.00000000E+00
  1.60000000E+01  1.00800000E+00  1.00800000E+00  0.00000000E+00  1.60000000E+01
  1.00800000E+00  1.00800000E+00  0.00000000E+00  1.60000000E+01  1.00800000E+00
  1.00800000E+00  0.00000000E+00  1.60000000E+01  1.00800000E+00  1.00800000E+00
  0.00000000E+00  1.60000000E+01  1.00800000E+00  1.00800000E+00  0.00000000E+00
  1.60000000E+01  1.00800000E+00  1.00800000E+00  0.00000000E+00  1.60000000E+01
  1.00800000E+00  1.00800000E+00  0.00000000E+00  1.60000000E+01  1.00800000E+00
  1.00800000E+00  0.00000000E+00  1.60000000E+01  1.00800000E+00  1.00800000E+00
  0.00000000E+00  1.60000000E+01  1.00800000E+00  1.00800000E+00  0.00000000E+00
  1.60000000E+01  1.00800000E+00  1.00800000E+00  0.00000000E+00  1.60000000E+01
  1.00800000E+00  1.00800000E+00  0.00000000E+00  1.60000000E+01  1.00800000E+00
  1.00800000E+00  0.00000000E+00  1.60000000E+01  1.00800000E+00  1.00800000E+00
  0.00000000E+00  1.60000000E+01  1.00800000E+00  1.00800000E+00  0.00000000E+00
  1.60000000E+01  1.00800000E+00  1.00800000E+00  0.00000000E+00  1.60000000E+01
  1.00800000E+00  1.00800000E+00  0.00000000E+00  1.60000000E+01  1.00800000E+00
  1.00800000E+00  0.00000000E+00  1.60000000E+01  1.00800000E+00  1.00800000E+00
  0.00000000E+00  1.60000000E+01  1.00800000E+00  1.00800000E+00  0.00000000E+00
  1.60000000E+01  1.00800000E+00  1.00800000E+00  0.00000000E+00  1.60000000E+01
  1.00800000E+00  1.00800000E+00  0.00000000E+00  1.60000000E+01  1.00800000E+00
  1.00800000E+00  0.00000000E+00  1.60000000E+01  1.00800000E+00  1.00800000E+00
  0.00000000E+00  1.60000000E+01  1.00800000E+00  1.00800000E+00  0.00000000E+00
  1.60000000E+01  1.00800000E+00  1.00800000E+00  0.00000000E+00  1.60000000E+01
  1.00800000E+00  1.00800000E+00  0.00000000E+00  1.60000000E+01  1.00800000E+00
  1.00800000E+00  0.00000000E+00  1.60000000E+01  1.00800000E+00  1.00800000E+00
  0.00000000E+00  1.60000000E+01  1.00800000E+00  1.00800000E+00  0.00000000E+00
  1.60000000E+01  1.00800000E+00  1.00800000E+00  0.00000000E+00  1.60000000E+01
  1.00800000E+00  1.00800000E+00  0.00000000E+00  1.60000000E+01  1.00800000E+00
  1.00800000E+00  0.00000000E+00  1.60000000E+01  1.00800000E+00  1.00800000E+00
  0.00000000E+00  1.60000000E+01  1.00800000E+00  1.00800000E+00  0.00000000E+00
  1.60000000E+01  1.00800000E+00  1.00800000E+00  0.00000000E+00  1.60000000E+01
  1.00800000E+00  1.00800000E+00  0.00000000E+00  1.60000000E+01  1.00800000E+00
  1.00800000E+00  0.00000000E+00  1.60000000E+01  1.00800000E+00  1.00800000E+00
  0.00000000E+00  1.60000000E+01  1.00800000E+00  1.00800000E+00  0.00000000E+00
  1.60000000E+01  1.00800000E+00  1.00800000E+00  0.00000000E+00  1.60000000E+01
  1.00800000E+00  1.00800000E+00  0.00000000E+00  1.60000000E+01  1.00800000E+00
  1.00800000E+00  0.00000000E+00  1.60000000E+01  1.00800000E+00  1.00800000E+00
  0.00000000E+00  1.60000000E+01  1.00800000E+00  1.00800000E+00  0.00000000E+00
  1.60000000E+01  1.00800000E+00  1.00800000E+00  0.00000000E+00  1.60000000E+01
  1.00800000E+00  1.00800000E+00  0.00000000E+00  1.60000000E+01  1.00800000E+00
  1.00800000E+00  0.00000000E+00  1.60000000E+01  1.00800000E+00  1.00800000E+00
  0.00000000E+00  1.60000000E+01  1.00800000E+00  1.00800000E+00  0.00000000E+00
  1.60000000E+01  1.00800000E+00  1.00800000E+00  0.00000000E+00  1.60000000E+01
  1.00800000E+00  1.00800000E+00  0.00000000E+00  1.60000000E+01  1.00800000E+00
  1.00800000E+00  0.00000000E+00  1.60000000E+01  1.00800000E+00  1.00800000E+00
  0.00000000E+00  1.60000000E+01  1.00800000E+00  1.00800000E+00  0.00000000E+00
  1.60000000E+01  1.00800000E+00  1.00800000E+00  0.00000000E+00  1.60000000E+01
  1.00800000E+00  1.00800000E+00  0.00000000E+00  1.60000000E+01  1.00800000E+00
  1.00800000E+00  0.00000000E+00  1.60000000E+01  1.00800000E+00  1.00800000E+00
  0.00000000E+00  1.60000000E+01  1.00800000E+00  1.00800000E+00  0.00000000E+00
  1.60000000E+01  1.00800000E+00  1.00800000E+00  0.00000000E+00  1.60000000E+01
  1.00800000E+00  1.00800000E+00  0.00000000E+00  1.60000000E+01  1.00800000E+00
  1.00800000E+00  0.00000000E+00  1.60000000E+01  1.00800000E+00  1.00800000E+00
  0.00000000E+00  1.60000000E+01  1.00800000E+00  1.00800000E+00  0.00000000E+00
  1.60000000E+01  1.00800000E+00  1.00800000E+00  0.00000000E+00  1.60000000E+01
  1.00800000E+00  1.00800000E+00  0.00000000E+00  1.60000000E+01  1.00800000E+00
  1.00800000E+00  0.00000000E+00  1.60000000E+01  1.00800000E+00  1.00800000E+00
  0.00000000E+00  1.60000000E+01  1.00800000E+00  1.00800000E+00  0.00000000E+00
  1.60000000E+01  1.00800000E+00  1.00800000E+00  0.00000000E+00  1.60000000E+01
  1.00800000E+00  1.00800000E+00  0.00000000E+00  1.60000000E+01  1.00800000E+00
  1.00800000E+00  0.00000000E+00  1.60000000E+01  1.00800000E+00  1.00800000E+00
  0.00000000E+00  1.60000000E+01  1.00800000E+00  1.00800000E+00  0.00000000E+00
  1.60000000E+01  1.00800000E+00  1.00800000E+00  0.00000000E+00  1.60000000E+01
  1.00800000E+00  1.00800000E+00  0.00000000E+00  1.60000000E+01  1.00800000E+00
  1.00800000E+00  0.00000000E+00  1.60000000E+01  1.00800000E+00  1.00800000E+00
  0.00000000E+00  1.60000000E+01  1.00800000E+00  1.00800000E+00  0.00000000E+00
  1.60000000E+01  1.00800000E+00  1.00800000E+00  0.00000000E+00  1.60000000E+01
  1.00800000E+00  1.00800000E+00  0.00000000E+00  1.60000000E+01  1.00800000E+00
  1.00800000E+00  0.00000000E+00  1.60000000E+01  1.00800000E+00  1.00800000E+00
  0.00000000E+00  1.60000000E+01  1.00800000E+00  1.00800000E+00  0.00000000E+00
  1.60000000E+01  1.00800000E+00  1.00800000E+00  0.00000000E+00  1.60000000E+01
  1.00800000E+00  1.00800000E+00  0.00000000E+00  1.60000000E+01  1.00800000E+00
  1.00800000E+00  0.00000000E+00  1.60000000E+01  1.00800000E+00  1.00800000E+00
  0.00000000E+00  1.60000000E+01  1.00800000E+00  1.00800000E+00  0.00000000E+00
  1.60000000E+01  1.00800000E+00  1.00800000E+00  0.00000000E+00  1.60000000E+01
  1.00800000E+00  1.00800000E+00  0.00000000E+00  1.60000000E+01  1.00800000E+00
  1.00800000E+00  0.00000000E+00  1.60000000E+01  1.00800000E+00  1.00800000E+00
  0.00000000E+00  1.60000000E+01  1.00800000E+00  1.00800000E+00  0.00000000E+00
  1.60000000E+01  1.00800000E+00  1.00800000E+00  0.00000000E+00  1.60000000E+01
  1.00800000E+00  1.00800000E+00  0.00000000E+00  1.60000000E+01  1.00800000E+00
  1.00800000E+00  0.00000000E+00  1.60000000E+01  1.00800000E+00  1.00800000E+00
  0.00000000E+00  1.60000000E+01  1.00800000E+00  1.00800000E+00  0.00000000E+00
  1.60000000E+01  1.00800000E+00  1.00800000E+00  0.00000000E+00  1.60000000E+01
  1.00800000E+00  1.00800000E+00  0.00000000E+00  1.60000000E+01  1.00800000E+00
  1.00800000E+00  0.00000000E+00  1.60000000E+01  1.00800000E+00  1.00800000E+00
  0.00000000E+00  1.60000000E+01  1.00800000E+00  1.00800000E+00  0.00000000E+00
  1.60000000E+01  1.00800000E+00  1.00800000E+00  0.00000000E+00  1.60000000E+01
  1.00800000E+00  1.00800000E+00  0.00000000E+00  1.60000000E+01  1.00800000E+00
  1.00800000E+00  0.00000000E+00  1.60000000E+01  1.00800000E+00  1.00800000E+00
  0.00000000E+00  1.60000000E+01  1.00800000E+00  1.00800000E+00  0.00000000E+00
  1.60000000E+01  1.00800000E+00  1.00800000E+00  0.00000000E+00  1.60000000E+01
  1.00800000E+00  1.00800000E+00  0.00000000E+00  1.60000000E+01  1.00800000E+00
  1.00800000E+00  0.00000000E+00  1.60000000E+01  1.00800000E+00  1.00800000E+00
  0.00000000E+00  1.60000000E+01  1.00800000E+00  1.00800000E+00  0.00000000E+00
  1.60000000E+01  1.00800000E+00  1.00800000E+00  0.00000000E+00  1.60000000E+01
  1.00800000E+00  1.00800000E+00  0.00000000E+00  1.60000000E+01  1.00800000E+00
  1.00800000E+00  0.00000000E+00  1.60000000E+01  1.00800000E+00  1.00800000E+00
  0.00000000E+00  1.60000000E+01  1.00800000E+00  1.00800000E+00  0.00000000E+00
  1.60000000E+01  1.00800000E+00  1.00800000E+00  0.00000000E+00  1.60000000E+01
  1.00800000E+00  1.00800000E+00  0.00000000E+00  1.60000000E+01  1.00800000E+00
  1.00800000E+00  0.00000000E+00  1.60000000E+01  1.00800000E+00  1.00800000E+00
  0.00000000E+00  1.60000000E+01  1.00800000E+00  1.00800000E+00  0.00000000E+00
  1.60000000E+01  1.00800000E+00  1.00800000E+00  0.00000000E+00  1.60000000E+01
  1.00800000E+00  1.00800000E+00  0.00000000E+00  1.60000000E+01  1.00800000E+00
  1.00800000E+00  0.00000000E+00  1.60000000E+01  1.00800000E+00  1.00800000E+00
  0.00000000E+00  1.60000000E+01  1.00800000E+00  1.00800000E+00  0.00000000E+00
  1.60000000E+01  1.00800000E+00  1.00800000E+00  0.00000000E+00  1.60000000E+01
  1.00800000E+00  1.00800000E+00  0.00000000E+00  1.60000000E+01  1.00800000E+00
  1.00800000E+00  0.00000000E+00  1.60000000E+01  1.00800000E+00  1.00800000E+00
  0.00000000E+00  1.60000000E+01  1.00800000E+00  1.00800000E+00  0.00000000E+00
  1.60000000E+01  1.00800000E+00  1.00800000E+00  0.00000000E+00  1.60000000E+01
  1.00800000E+00  1.00800000E+00  0.00000000E+00  1.60000000E+01  1.00800000E+00
  1.00800000E+00  0.00000000E+00  1.60000000E+01  1.00800000E+00  1.00800000E+00
  0.00000000E+00  1.60000000E+01  1.00800000E+00  1.00800000E+00  0.00000000E+00
  1.60000000E+01  1.00800000E+00  1.00800000E+00  0.00000000E+00  1.60000000E+01
  1.00800000E+00  1.00800000E+00  0.00000000E+00  1.60000000E+01  1.00800000E+00
  1.00800000E+00  0.00000000E+00  1.60000000E+01  1.00800000E+00  1.00800000E+00
  0.00000000E+00  1.60000000E+01  1.00800000E+00  1.00800000E+00  0.00000000E+00
  1.60000000E+01  1.00800000E+00  1.00800000E+00  0.00000000E+00  1.60000000E+01
  1.00800000E+00  1.00800000E+00  0.00000000E+00  1.60000000E+01  1.00800000E+00
  1.00800000E+00  0.00000000E+00  1.60000000E+01  1.00800000E+00  1.00800000E+00
  0.00000000E+00  1.60000000E+01  1.00800000E+00  1.00800000E+00  0.00000000E+00
  1.60000000E+01  1.00800000E+00  1.00800000E+00  0.00000000E+00  1.60000000E+01
  1.00800000E+00  1.00800000E+00  0.00000000E+00  1.60000000E+01  1.00800000E+00
  1.00800000E+00  0.00000000E+00  1.60000000E+01  1.00800000E+00  1.00800000E+00
  0.00000000E+00  1.60000000E+01  1.00800000E+00  1.00800000E+00  0.00000000E+00
  1.60000000E+01  1.00800000E+00  1.00800000E+00  0.00000000E+00  1.60000000E+01
  1.00800000E+00  1.00800000E+00  0.00000000E+00  1.60000000E+01  1.00800000E+00
  1.00800000E+00  0.00000000E+00  1.60000000E+01  1.00800000E+00  1.00800000E+00
  0.00000000E+00  1.60000000E+01  1.00800000E+00  1.00800000E+00  0.00000000E+00
  1.60000000E+01  1.00800000E+00  1.00800000E+00  0.00000000E+00  1.60000000E+01
  1.00800000E+00  1.00800000E+00  0.00000000E+00  1.60000000E+01  1.00800000E+00
  1.00800000E+00  0.00000000E+00  1.60000000E+01  1.00800000E+00  1.00800000E+00
  0.00000000E+00  1.60000000E+01  1.00800000E+00  1.00800000E+00  0.00000000E+00
  1.60000000E+01  1.00800000E+00  1.00800000E+00  0.00000000E+00  1.60000000E+01
  1.00800000E+00  1.00800000E+00  0.00000000E+00  1.60000000E+01  1.00800000E+00
  1.00800000E+00  0.00000000E+00  1.60000000E+01  1.00800000E+00  1.00800000E+00
  0.00000000E+00  1.60000000E+01  1.00800000E+00  1.00800000E+00  0.00000000E+00
  1.60000000E+01  1.00800000E+00  1.00800000E+00  0.00000000E+00  1.60000000E+01
  1.00800000E+00  1.00800000E+00  0.00000000E+00  1.60000000E+01  1.00800000E+00
  1.00800000E+00  0.00000000E+00  1.60000000E+01  1.00800000E+00  1.00800000E+00
  0.00000000E+00  1.60000000E+01  1.00800000E+00  1.00800000E+00  0.00000000E+00
  1.60000000E+01  1.00800000E+00  1.00800000E+00  0.00000000E+00  1.60000000E+01
  1.00800000E+00  1.00800000E+00  0.00000000E+00  1.60000000E+01  1.00800000E+00
  1.00800000E+00  0.00000000E+00  1.60000000E+01  1.00800000E+00  1.00800000E+00
  0.00000000E+00  1.60000000E+01  1.00800000E+00  1.00800000E+00  0.00000000E+00
  1.60000000E+01  1.00800000E+00  1.00800000E+00  0.00000000E+00  1.60000000E+01
  1.00800000E+00  1.00800000E+00  0.00000000E+00  1.60000000E+01  1.00800000E+00
  1.00800000E+00  0.00000000E+00  1.60000000E+01  1.00800000E+00  1.00800000E+00
  0.00000000E+00  1.60000000E+01  1.00800000E+00  1.00800000E+00  0.00000000E+00
  1.60000000E+01  1.00800000E+00  1.00800000E+00  0.00000000E+00  1.60000000E+01
  1.00800000E+00  1.00800000E+00  0.00000000E+00  1.60000000E+01  1.00800000E+00
  1.00800000E+00  0.00000000E+00  1.60000000E+01  1.00800000E+00  1.00800000E+00
  0.00000000E+00  1.60000000E+01  1.00800000E+00  1.00800000E+00  0.00000000E+00
  1.60000000E+01  1.00800000E+00  1.00800000E+00  0.00000000E+00  1.60000000E+01
  1.00800000E+00  1.00800000E+00  0.00000000E+00  1.60000000E+01  1.00800000E+00
  1.00800000E+00  0.00000000E+00  1.60000000E+01  1.00800000E+00  1.00800000E+00
  0.00000000E+00  1.60000000E+01  1.00800000E+00  1.00800000E+00  0.00000000E+00
  1.60000000E+01  1.00800000E+00  1.00800000E+00  0.00000000E+00  1.60000000E+01
  1.00800000E+00  1.00800000E+00  0.00000000E+00  1.60000000E+01  1.00800000E+00
  1.00800000E+00  0.00000000E+00  1.60000000E+01  1.00800000E+00  1.00800000E+00
  0.00000000E+00  1.60000000E+01  1.00800000E+00  1.00800000E+00  0.00000000E+00
  1.60000000E+01  1.00800000E+00  1.00800000E+00  0.00000000E+00  1.60000000E+01
  1.00800000E+00  1.00800000E+00  0.00000000E+00  1.60000000E+01  1.00800000E+00
  1.00800000E+00  0.00000000E+00  1.60000000E+01  1.00800000E+00  1.00800000E+00
  0.00000000E+00  1.60000000E+01  1.00800000E+00  1.00800000E+00  0.00000000E+00
  1.60000000E+01  1.00800000E+00  1.00800000E+00  0.00000000E+00  1.60000000E+01
  1.00800000E+00  1.00800000E+00  0.00000000E+00  1.60000000E+01  1.00800000E+00
  1.00800000E+00  0.00000000E+00  1.60000000E+01  1.00800000E+00  1.00800000E+00
  0.00000000E+00  1.60000000E+01  1.00800000E+00  1.00800000E+00  0.00000000E+00
  1.60000000E+01  1.00800000E+00  1.00800000E+00  0.00000000E+00  1.60000000E+01
  1.00800000E+00  1.00800000E+00  0.00000000E+00  1.60000000E+01  1.00800000E+00
  1.00800000E+00  0.00000000E+00  1.60000000E+01  1.00800000E+00  1.00800000E+00
  0.00000000E+00  1.60000000E+01  1.00800000E+00  1.00800000E+00  0.00000000E+00
  1.60000000E+01  1.00800000E+00  1.00800000E+00  0.00000000E+00  1.60000000E+01
  1.00800000E+00  1.00800000E+00  0.00000000E+00  1.60000000E+01  1.00800000E+00
  1.00800000E+00  0.00000000E+00  1.60000000E+01  1.00800000E+00  1.00800000E+00
  0.00000000E+00  1.60000000E+01  1.00800000E+00  1.00800000E+00  0.00000000E+00
  1.60000000E+01  1.00800000E+00  1.00800000E+00  0.00000000E+00  1.60000000E+01
  1.00800000E+00  1.00800000E+00  0.00000000E+00  1.60000000E+01  1.00800000E+00
  1.00800000E+00  0.00000000E+00  1.60000000E+01  1.00800000E+00  1.00800000E+00
  0.00000000E+00  1.60000000E+01  1.00800000E+00  1.00800000E+00  0.00000000E+00
  1.60000000E+01  1.00800000E+00  1.00800000E+00  0.00000000E+00  1.60000000E+01
  1.00800000E+00  1.00800000E+00  0.00000000E+00  1.60000000E+01  1.00800000E+00
  1.00800000E+00  0.00000000E+00  1.60000000E+01  1.00800000E+00  1.00800000E+00
  0.00000000E+00  1.60000000E+01  1.00800000E+00  1.00800000E+00  0.00000000E+00
  1.60000000E+01  1.00800000E+00  1.00800000E+00  0.00000000E+00  1.60000000E+01
  1.00800000E+00  1.00800000E+00  0.00000000E+00  1.60000000E+01  1.00800000E+00
  1.00800000E+00  0.00000000E+00  1.60000000E+01  1.00800000E+00  1.00800000E+00
  0.00000000E+00  1.60000000E+01  1.00800000E+00  1.00800000E+00  0.00000000E+00
  1.60000000E+01  1.00800000E+00  1.00800000E+00  0.00000000E+00  1.60000000E+01
  1.00800000E+00  1.00800000E+00  0.00000000E+00  1.60000000E+01  1.00800000E+00
  1.00800000E+00  0.00000000E+00  1.60000000E+01  1.00800000E+00  1.00800000E+00
  0.00000000E+00  1.60000000E+01  1.00800000E+00  1.00800000E+00  0.00000000E+00
  1.60000000E+01  1.00800000E+00  1.00800000E+00  0.00000000E+00  1.60000000E+01
  1.00800000E+00  1.00800000E+00  0.00000000E+00  1.60000000E+01  1.00800000E+00
  1.00800000E+00  0.00000000E+00  1.60000000E+01  1.00800000E+00  1.00800000E+00
  0.00000000E+00  1.60000000E+01  1.00800000E+00  1.00800000E+00  0.00000000E+00
  1.60000000E+01  1.00800000E+00  1.00800000E+00  0.00000000E+00  1.60000000E+01
  1.00800000E+00  1.00800000E+00  0.00000000E+00  1.60000000E+01  1.00800000E+00
  1.00800000E+00  0.00000000E+00  1.60000000E+01  1.00800000E+00  1.00800000E+00
  0.00000000E+00  1.60000000E+01  1.00800000E+00  1.00800000E+00  0.00000000E+00
  1.60000000E+01  1.00800000E+00  1.00800000E+00  0.00000000E+00  1.60000000E+01
  1.00800000E+00  1.00800000E+00  0.00000000E+00  1.60000000E+01  1.00800000E+00
  1.00800000E+00  0.00000000E+00  1.60000000E+01  1.00800000E+00  1.00800000E+00
  0.00000000E+00  1.60000000E+01  1.00800000E+00  1.00800000E+00  0.00000000E+00
  1.60000000E+01  1.00800000E+00  1.00800000E+00  0.00000000E+00  1.60000000E+01
  1.00800000E+00  1.00800000E+00  0.00000000E+00  1.60000000E+01  1.00800000E+00
  1.00800000E+00  0.00000000E+00  1.60000000E+01  1.00800000E+00  1.00800000E+00
  0.00000000E+00  1.60000000E+01  1.00800000E+00  1.00800000E+00  0.00000000E+00
  1.60000000E+01  1.00800000E+00  1.00800000E+00  0.00000000E+00  1.60000000E+01
  1.00800000E+00  1.00800000E+00  0.00000000E+00  1.60000000E+01  1.00800000E+00
  1.00800000E+00  0.00000000E+00  1.60000000E+01  1.00800000E+00  1.00800000E+00
  0.00000000E+00  1.60000000E+01  1.00800000E+00  1.00800000E+00  0.00000000E+00
  1.60000000E+01  1.00800000E+00  1.00800000E+00  0.00000000E+00  1.60000000E+01
  1.00800000E+00  1.00800000E+00  0.00000000E+00  1.60000000E+01  1.00800000E+00
  1.00800000E+00  0.00000000E+00  1.60000000E+01  1.00800000E+00  1.00800000E+00
  0.00000000E+00  1.60000000E+01  1.00800000E+00  1.00800000E+00  0.00000000E+00
  1.60000000E+01  1.00800000E+00  1.00800000E+00  0.00000000E+00  1.60000000E+01
  1.00800000E+00  1.00800000E+00  0.00000000E+00  1.60000000E+01  1.00800000E+00
  1.00800000E+00  0.00000000E+00  1.60000000E+01  1.00800000E+00  1.00800000E+00
  0.00000000E+00  1.60000000E+01  1.00800000E+00  1.00800000E+00  0.00000000E+00
  1.60000000E+01  1.00800000E+00  1.00800000E+00  0.00000000E+00  1.60000000E+01
  1.00800000E+00  1.00800000E+00  0.00000000E+00  1.60000000E+01  1.00800000E+00
  1.00800000E+00  0.00000000E+00  1.60000000E+01  1.00800000E+00  1.00800000E+00
  0.00000000E+00  1.60000000E+01  1.00800000E+00  1.00800000E+00  0.00000000E+00
  1.60000000E+01  1.00800000E+00  1.00800000E+00  0.00000000E+00  1.60000000E+01
  1.00800000E+00  1.00800000E+00  0.00000000E+00  1.60000000E+01  1.00800000E+00
  1.00800000E+00  0.00000000E+00  1.60000000E+01  1.00800000E+00  1.00800000E+00
  0.00000000E+00  1.60000000E+01  1.00800000E+00  1.00800000E+00  0.00000000E+00
  1.60000000E+01  1.00800000E+00  1.00800000E+00  0.00000000E+00  1.60000000E+01
  1.00800000E+00  1.00800000E+00  0.00000000E+00  1.60000000E+01  1.00800000E+00
  1.00800000E+00  0.00000000E+00  1.60000000E+01  1.00800000E+00  1.00800000E+00
  0.00000000E+00  1.60000000E+01  1.00800000E+00  1.00800000E+00  0.00000000E+00
  1.60000000E+01  1.00800000E+00  1.00800000E+00  0.00000000E+00  1.60000000E+01
  1.00800000E+00  1.00800000E+00  0.00000000E+00  1.60000000E+01  1.00800000E+00
  1.00800000E+00  0.00000000E+00  1.60000000E+01  1.00800000E+00  1.00800000E+00
  0.00000000E+00  1.60000000E+01  1.00800000E+00  1.00800000E+00  0.00000000E+00
  1.60000000E+01  1.00800000E+00  1.00800000E+00  0.00000000E+00  1.60000000E+01
  1.00800000E+00  1.00800000E+00  0.00000000E+00  1.60000000E+01  1.00800000E+00
  1.00800000E+00  0.00000000E+00  1.60000000E+01  1.00800000E+00  1.00800000E+00
  0.00000000E+00  1.60000000E+01  1.00800000E+00  1.00800000E+00  0.00000000E+00
  1.60000000E+01  1.00800000E+00  1.00800000E+00  0.00000000E+00  1.60000000E+01
  1.00800000E+00  1.00800000E+00  0.00000000E+00  1.60000000E+01  1.00800000E+00
  1.00800000E+00  0.00000000E+00  1.60000000E+01  1.00800000E+00  1.00800000E+00
  0.00000000E+00  1.60000000E+01  1.00800000E+00  1.00800000E+00  0.00000000E+00
  1.60000000E+01  1.00800000E+00  1.00800000E+00  0.00000000E+00  1.60000000E+01
  1.00800000E+00  1.00800000E+00  0.00000000E+00  1.60000000E+01  1.00800000E+00
  1.00800000E+00  0.00000000E+00  1.60000000E+01  1.00800000E+00  1.00800000E+00
  0.00000000E+00  1.60000000E+01  1.00800000E+00  1.00800000E+00  0.00000000E+00
  1.60000000E+01  1.00800000E+00  1.00800000E+00  0.00000000E+00  1.60000000E+01
  1.00800000E+00  1.00800000E+00  0.00000000E+00  1.60000000E+01  1.00800000E+00
  1.00800000E+00  0.00000000E+00  1.60000000E+01  1.00800000E+00  1.00800000E+00
  0.00000000E+00  1.60000000E+01  1.00800000E+00  1.00800000E+00  0.00000000E+00
  1.60000000E+01  1.00800000E+00  1.00800000E+00  0.00000000E+00  1.60000000E+01
  1.00800000E+00  1.00800000E+00  0.00000000E+00  1.60000000E+01  1.00800000E+00
  1.00800000E+00  0.00000000E+00  1.60000000E+01  1.00800000E+00  1.00800000E+00
  0.00000000E+00  1.60000000E+01  1.00800000E+00  1.00800000E+00  0.00000000E+00
  1.60000000E+01  1.00800000E+00  1.00800000E+00  0.00000000E+00  1.60000000E+01
  1.00800000E+00  1.00800000E+00  0.00000000E+00  1.60000000E+01  1.00800000E+00
  1.00800000E+00  0.00000000E+00  1.60000000E+01  1.00800000E+00  1.00800000E+00
  0.00000000E+00  1.60000000E+01  1.00800000E+00  1.00800000E+00  0.00000000E+00
  1.60000000E+01  1.00800000E+00  1.00800000E+00  0.00000000E+00  1.60000000E+01
  1.00800000E+00  1.00800000E+00  0.00000000E+00  1.60000000E+01  1.00800000E+00
  1.00800000E+00  0.00000000E+00  1.60000000E+01  1.00800000E+00  1.00800000E+00
  0.00000000E+00  1.60000000E+01  1.00800000E+00  1.00800000E+00  0.00000000E+00
  1.60000000E+01  1.00800000E+00  1.00800000E+00  0.00000000E+00  1.60000000E+01
  1.00800000E+00  1.00800000E+00  0.00000000E+00  1.60000000E+01  1.00800000E+00
  1.00800000E+00  0.00000000E+00  1.60000000E+01  1.00800000E+00  1.00800000E+00
  0.00000000E+00  1.60000000E+01  1.00800000E+00  1.00800000E+00  0.00000000E+00
  1.60000000E+01  1.00800000E+00  1.00800000E+00  0.00000000E+00  1.60000000E+01
  1.00800000E+00  1.00800000E+00  0.00000000E+00  1.60000000E+01  1.00800000E+00
  1.00800000E+00  0.00000000E+00  1.60000000E+01  1.00800000E+00  1.00800000E+00
  0.00000000E+00  1.60000000E+01  1.00800000E+00  1.00800000E+00  0.00000000E+00
  1.60000000E+01  1.00800000E+00  1.00800000E+00  0.00000000E+00  1.60000000E+01
  1.00800000E+00  1.00800000E+00  0.00000000E+00  1.60000000E+01  1.00800000E+00
  1.00800000E+00  0.00000000E+00  1.60000000E+01  1.00800000E+00  1.00800000E+00
  0.00000000E+00  1.60000000E+01  1.00800000E+00  1.00800000E+00  0.00000000E+00
  1.60000000E+01  1.00800000E+00  1.00800000E+00  0.00000000E+00  1.60000000E+01
  1.00800000E+00  1.00800000E+00  0.00000000E+00  1.60000000E+01  1.00800000E+00
  1.00800000E+00  0.00000000E+00  1.60000000E+01  1.00800000E+00  1.00800000E+00
  0.00000000E+00  1.60000000E+01  1.00800000E+00  1.00800000E+00  0.00000000E+00
  1.60000000E+01  1.00800000E+00  1.00800000E+00  0.00000000E+00  1.60000000E+01
  1.00800000E+00  1.00800000E+00  0.00000000E+00  1.60000000E+01  1.00800000E+00
  1.00800000E+00  0.00000000E+00  1.60000000E+01  1.00800000E+00  1.00800000E+00
  0.00000000E+00  1.60000000E+01  1.00800000E+00  1.00800000E+00  0.00000000E+00
  1.60000000E+01  1.00800000E+00  1.00800000E+00  0.00000000E+00  1.60000000E+01
  1.00800000E+00  1.00800000E+00  0.00000000E+00  1.60000000E+01  1.00800000E+00
  1.00800000E+00  0.00000000E+00  1.60000000E+01  1.00800000E+00  1.00800000E+00
  0.00000000E+00  1.60000000E+01  1.00800000E+00  1.00800000E+00  0.00000000E+00
  1.60000000E+01  1.00800000E+00  1.00800000E+00  0.00000000E+00  1.60000000E+01
  1.00800000E+00  1.00800000E+00  0.00000000E+00  1.60000000E+01  1.00800000E+00
  1.00800000E+00  0.00000000E+00  1.60000000E+01  1.00800000E+00  1.00800000E+00
  0.00000000E+00  1.60000000E+01  1.00800000E+00  1.00800000E+00  0.00000000E+00
  1.60000000E+01  1.00800000E+00  1.00800000E+00  0.00000000E+00  1.60000000E+01
  1.00800000E+00  1.00800000E+00  0.00000000E+00  1.60000000E+01  1.00800000E+00
  1.00800000E+00  0.00000000E+00  1.60000000E+01  1.00800000E+00  1.00800000E+00
  0.00000000E+00  1.60000000E+01  1.00800000E+00  1.00800000E+00  0.00000000E+00
  1.60000000E+01  1.00800000E+00  1.00800000E+00  0.00000000E+00  1.60000000E+01
  1.00800000E+00  1.00800000E+00  0.00000000E+00  1.60000000E+01  1.00800000E+00
  1.00800000E+00  0.00000000E+00  1.60000000E+01  1.00800000E+00  1.00800000E+00
  0.00000000E+00  1.60000000E+01  1.00800000E+00  1.00800000E+00  0.00000000E+00
  1.60000000E+01  1.00800000E+00  1.00800000E+00  0.00000000E+00  1.60000000E+01
  1.00800000E+00  1.00800000E+00  0.00000000E+00  1.60000000E+01  1.00800000E+00
  1.00800000E+00  0.00000000E+00  1.60000000E+01  1.00800000E+00  1.00800000E+00
  0.00000000E+00  1.60000000E+01  1.00800000E+00  1.00800000E+00  0.00000000E+00
  1.60000000E+01  1.00800000E+00  1.00800000E+00  0.00000000E+00  1.60000000E+01
  1.00800000E+00  1.00800000E+00  0.00000000E+00  1.60000000E+01  1.00800000E+00
  1.00800000E+00  0.00000000E+00  1.60000000E+01  1.00800000E+00  1.00800000E+00
  0.00000000E+00  1.60000000E+01  1.00800000E+00  1.00800000E+00  0.00000000E+00
  1.60000000E+01  1.00800000E+00  1.00800000E+00  0.00000000E+00  1.60000000E+01
  1.00800000E+00  1.00800000E+00  0.00000000E+00  1.60000000E+01  1.00800000E+00
  1.00800000E+00  0.00000000E+00  1.60000000E+01  1.00800000E+00  1.00800000E+00
  0.00000000E+00  1.60000000E+01  1.00800000E+00  1.00800000E+00  0.00000000E+00
  1.60000000E+01  1.00800000E+00  1.00800000E+00  0.00000000E+00  1.60000000E+01
  1.00800000E+00  1.00800000E+00  0.00000000E+00  1.60000000E+01  1.00800000E+00
  1.00800000E+00  0.00000000E+00  1.60000000E+01  1.00800000E+00  1.00800000E+00
  0.00000000E+00  1.60000000E+01  1.00800000E+00  1.00800000E+00  0.00000000E+00
  1.60000000E+01  1.00800000E+00  1.00800000E+00  0.00000000E+00  1.60000000E+01
  1.00800000E+00  1.00800000E+00  0.00000000E+00  1.60000000E+01  1.00800000E+00
  1.00800000E+00  0.00000000E+00  1.60000000E+01  1.00800000E+00  1.00800000E+00
  0.00000000E+00  1.60000000E+01  1.00800000E+00  1.00800000E+00  0.00000000E+00
  1.60000000E+01  1.00800000E+00  1.00800000E+00  0.00000000E+00  1.60000000E+01
  1.00800000E+00  1.00800000E+00  0.00000000E+00  1.60000000E+01  1.00800000E+00
  1.00800000E+00  0.00000000E+00  1.60000000E+01  1.00800000E+00  1.00800000E+00
  0.00000000E+00  1.60000000E+01  1.00800000E+00  1.00800000E+00  0.00000000E+00
  1.60000000E+01  1.00800000E+00  1.00800000E+00  0.00000000E+00  1.60000000E+01
  1.00800000E+00  1.00800000E+00  0.00000000E+00  1.60000000E+01  1.00800000E+00
  1.00800000E+00  0.00000000E+00  1.60000000E+01  1.00800000E+00  1.00800000E+00
  0.00000000E+00  1.60000000E+01  1.00800000E+00  1.00800000E+00  0.00000000E+00
  1.60000000E+01  1.00800000E+00  1.00800000E+00  0.00000000E+00  1.60000000E+01
  1.00800000E+00  1.00800000E+00  0.00000000E+00  1.60000000E+01  1.00800000E+00
  1.00800000E+00  0.00000000E+00  1.60000000E+01  1.00800000E+00  1.00800000E+00
  0.00000000E+00  1.60000000E+01  1.00800000E+00  1.00800000E+00  0.00000000E+00
  1.60000000E+01  1.00800000E+00  1.00800000E+00  0.00000000E+00  1.60000000E+01
  1.00800000E+00  1.00800000E+00  0.00000000E+00  1.60000000E+01  1.00800000E+00
  1.00800000E+00  0.00000000E+00  1.60000000E+01  1.00800000E+00  1.00800000E+00
  0.00000000E+00  1.60000000E+01  1.00800000E+00  1.00800000E+00  0.00000000E+00
  1.60000000E+01  1.00800000E+00  1.00800000E+00  0.00000000E+00  1.60000000E+01
  1.00800000E+00  1.00800000E+00  0.00000000E+00  1.60000000E+01  1.00800000E+00
  1.00800000E+00  0.00000000E+00  1.60000000E+01  1.00800000E+00  1.00800000E+00
  0.00000000E+00  1.60000000E+01  1.00800000E+00  1.00800000E+00  0.00000000E+00
  1.60000000E+01  1.00800000E+00  1.00800000E+00  0.00000000E+00  1.60000000E+01
  1.00800000E+00  1.00800000E+00  0.00000000E+00  1.60000000E+01  1.00800000E+00
  1.00800000E+00  0.00000000E+00  1.60000000E+01  1.00800000E+00  1.00800000E+00
  0.00000000E+00  1.60000000E+01  1.00800000E+00  1.00800000E+00  0.00000000E+00
  1.60000000E+01  1.00800000E+00  1.00800000E+00  0.00000000E+00  1.60000000E+01
  1.00800000E+00  1.00800000E+00  0.00000000E+00  1.60000000E+01  1.00800000E+00
  1.00800000E+00  0.00000000E+00  1.60000000E+01  1.00800000E+00  1.00800000E+00
  0.00000000E+00  1.60000000E+01  1.00800000E+00  1.00800000E+00  0.00000000E+00
  1.60000000E+01  1.00800000E+00  1.00800000E+00  0.00000000E+00  1.60000000E+01
  1.00800000E+00  1.00800000E+00  0.00000000E+00  1.60000000E+01  1.00800000E+00
  1.00800000E+00  0.00000000E+00
%FLAG ATOM_TYPE_INDEX                                                           
%FORMAT(10I8)                                                                   
       1       2       1       1       3       4       5       6       2       7
       2       1       1       3       3       8       3       8       3       9
      10       3       8       3       8       3       4       5       6       2
       7       2       1       1       1       3       4       5       6       2
       7       7       3       4       5       6       2       7       2       1
       1       3       3       8       3       8       3       8       3       8
       3       8       3       4       5       6       2       7       7       7
      11      10      10      12      11      10      10      12      11      10
      10      12      11      10      10      12      11      10      10      12
      11      10      10      12      11      10      10      12      11      10
      10      12      11      10      10      12      11      10      10      12
      11      10      10      12      11      10      10      12      11      10
      10      12      11      10      10      12      11      10      10      12
      11      10      10      12      11      10      10      12      11      10
      10      12      11      10      10      12      11      10      10      12
      11      10      10      12      11      10      10      12      11      10
      10      12      11      10      10      12      11      10      10      12
      11      10      10      12      11      10      10      12      11      10
      10      12      11      10      10      12      11      10      10      12
      11      10      10      12      11      10      10      12      11      10
      10      12      11      10      10      12      11      10      10      12
      11      10      10      12      11      10      10      12      11      10
      10      12      11      10      10      12      11      10      10      12
      11      10      10      12      11      10      10      12      11      10
      10      12      11      10      10      12      11      10      10      12
      11      10      10      12      11      10      10      12      11      10
      10      12      11      10      10      12      11      10      10      12
      11      10      10      12      11      10      10      12      11      10
      10      12      11      10      10      12      11      10      10      12
      11      10      10      12      11      10      10      12      11      10
      10      12      11      10      10      12      11      10      10      12
      11      10      10      12      11      10      10      12      11      10
      10      12      11      10      10      12      11      10      10      12
      11      10      10      12      11      10      10      12      11      10
      10      12      11      10      10      12      11      10      10      12
      11      10      10      12      11      10      10      12      11      10
      10      12      11      10      10      12      11      10      10      12
      11      10      10      12      11      10      10      12      11      10
      10      12      11      10      10      12      11      10      10      12
      11      10      10      12      11      10      10      12      11      10
      10      12      11      10      10      12      11      10      10      12
      11      10      10      12      11      10      10      12      11      10
      10      12      11      10      10      12      11      10      10      12
      11      10      10      12      11      10      10      12      11      10
      10      12      11      10      10      12      11      10      10      12
      11      10      10      12      11      10      10      12      11      10
      10      12      11      10      10      12      11      10      10      12
      11      10      10      12      11      10      10      12      11      10
      10      12      11      10      10      12      11      10      10      12
      11      10      10      12      11      10      10      12      11      10
      10      12      11      10      10      12      11      10      10      12
      11      10      10      12      11      10      10      12      11      10
      10      12      11      10      10      12      11      10      10      12
      11      10      10      12      11      10      10      12      11      10
      10      12      11      10      10      12      11      10      10      12
      11      10      10      12      11      10      10      12      11      10
      10      12      11      10      10      12      11      10      10      12
      11      10      10      12      11      10      10      12      11      10
      10      12      11      10      10      12      11      10      10      12
      11      10      10      12      11      10      10      12      11      10
      10      12      11      10      10      12      11      10      10      12
      11      10      10      12      11      10      10      12      11      10
      10      12      11      10      10      12      11      10      10      12
      11      10      10      12      11      10      10      12      11      10
      10      12      11      10      10      12      11      10      10      12
      11      10      10      12      11      10      10      12      11      10
      10      12      11      10      10      12      11      10      10      12
      11      10      10      12      11      10      10      12      11      10
      10      12      11      10      10      12      11      10      10      12
      11      10      10      12      11      10      10      12      11      10
      10      12      11      10      10      12      11      10      10      12
      11      10      10      12      11      10      10      12      11      10
      10      12      11      10      10      12      11      10      10      12
      11      10      10      12      11      10      10      12      11      10
      10      12      11      10      10      12      11      10      10      12
      11      10      10      12      11      10      10      12      11      10
      10      12      11      10      10      12      11      10      10      12
      11      10      10      12      11      10      10      12      11      10
      10      12      11      10      10      12      11      10      10      12
      11      10      10      12      11      10      10      12      11      10
      10      12      11      10      10      12      11      10      10      12
      11      10      10      12      11      10      10      12      11      10
      10      12      11      10      10      12      11      10      10      12
      11      10      10      12      11      10      10      12      11      10
      10      12      11      10      10      12      11      10      10      12
      11      10      10      12      11      10      10      12      11      10
      10      12      11      10      10      12      11      10      10      12
      11      10      10      12      11      10      10      12      11      10
      10      12      11      10      10      12      11      10      10      12
      11      10      10      12      11      10      10      12      11      10
      10      12      11      10      10      12      11      10      10      12
      11      10      10      12      11      10      10      12      11      10
      10      12      11      10      10      12      11      10      10      12
      11      10      10      12      11      10      10      12      11      10
      10      12      11      10      10      12      11      10      10      12
      11      10      10      12      11      10      10      12      11      10
      10      12      11      10      10      12      11      10      10      12
      11      10      10      12      11      10      10      12      11      10
      10      12      11      10      10      12      11      10      10      12
      11      10      10      12      11      10      10      12      11      10
      10      12      11      10      10      12      11      10      10      12
      11      10      10      12      11      10      10      12      11      10
      10      12      11      10      10      12      11      10      10      12
      11      10      10      12      11      10      10      12      11      10
      10      12      11      10      10      12      11      10      10      12
      11      10      10      12      11      10      10      12      11      10
      10      12      11      10      10      12      11      10      10      12
      11      10      10      12      11      10      10      12      11      10
      10      12      11      10      10      12      11      10      10      12
      11      10      10      12      11      10      10      12      11      10
      10      12      11      10      10      12      11      10      10      12
      11      10      10      12      11      10      10      12      11      10
      10      12      11      10      10      12      11      10      10      12
      11      10      10      12      11      10      10      12      11      10
      10      12      11      10      10      12      11      10      10      12
      11      10      10      12      11      10      10      12      11      10
      10      12      11      10      10      12      11      10      10      12
      11      10      10      12      11      10      10      12      11      10
      10      12      11      10      10      12      11      10      10      12
      11      10      10      12      11      10      10      12      11      10
      10      12      11      10      10      12      11      10      10      12
      11      10      10      12      11      10      10      12      11      10
      10      12      11      10      10      12      11      10      10      12
      11      10      10      12      11      10      10      12      11      10
      10      12      11      10      10      12      11      10      10      12
      11      10      10      12      11      10      10      12      11      10
      10      12      11      10      10      12      11      10      10      12
      11      10      10      12      11      10      10      12      11      10
      10      12      11      10      10      12      11      10      10      12
      11      10      10      12      11      10      10      12      11      10
      10      12      11      10      10      12      11      10      10      12
      11      10      10      12      11      10      10      12      11      10
      10      12      11      10      10      12      11      10      10      12
      11      10      10      12      11      10      10      12      11      10
      10      12      11      10      10      12      11      10      10      12
      11      10      10      12      11      10      10      12      11      10
      10      12      11      10      10      12      11      10      10      12
      11      10      10      12      11      10      10      12      11      10
      10      12      11      10      10      12      11      10      10      12
      11      10      10      12      11      10      10      12      11      10
      10      12      11      10      10      12      11      10      10      12
      11      10      10      12      11      10      10      12      11      10
      10      12      11      10      10      12      11      10      10      12
      11      10      10      12      11      10      10      12      11      10
      10      12      11      10      10      12      11      10      10      12
      11      10      10      12      11      10      10      12      11      10
      10      12      11      10      10      12      11      10      10      12
      11      10      10      12      11      10      10      12      11      10
      10      12      11      10      10      12      11      10      10      12
      11      10      10      12      11      10      10      12      11      10
      10      12      11      10      10      12      11      10      10      12
      11      10      10      12      11      10      10      12      11      10
      10      12      11      10      10      12      11      10      10      12
      11      10      10      12      11      10      10      12      11      10
      10      12      11      10      10      12      11      10      10      12
      11      10      10      12      11      10      10      12      11      10
      10      12      11      10      10      12      11      10      10      12
      11      10      10      12      11      10      10      12      11      10
      10      12      11      10      10      12      11      10      10      12
      11      10      10      12      11      10      10      12      11      10
      10      12      11      10      10      12      11      10      10      12
      11      10      10      12      11      10      10      12      11      10
      10      12      11      10      10      12      11      10      10      12
      11      10      10      12      11      10      10      12      11      10
      10      12      11      10      10      12      11      10      10      12
      11      10      10      12      11      10      10      12      11      10
      10      12      11      10      10      12      11      10      10      12
      11      10      10      12      11      10      10      12      11      10
      10      12      11      10      10      12      11      10      10      12
      11      10      10      12      11      10      10      12      11      10
      10      12      11      10      10      12      11      10      10      12
      11      10      10      12      11      10      10      12      11      10
      10      12      11      10      10      12      11      10      10      12
      11      10      10      12      11      10      10      12      11      10
      10      12      11      10      10      12      11      10      10      12
      11      10      10      12      11      10      10      12      11      10
      10      12      11      10      10      12      11      10      10      12
      11      10      10      12      11      10      10      12      11      10
      10      12      11      10      10      12      11      10      10      12
      11      10      10      12      11      10      10      12      11      10
      10      12      11      10      10      12      11      10      10      12
      11      10      10      12      11      10      10      12      11      10
      10      12      11      10      10      12      11      10      10      12
      11      10      10      12      11      10      10      12      11      10
      10      12      11      10      10      12      11      10      10      12
      11      10      10      12      11      10      10      12      11      10
      10      12      11      10      10      12      11      10      10      12
      11      10      10      12      11      10      10      12      11      10
      10      12      11      10      10      12      11      10      10      12
      11      10      10      12      11      10      10      12      11      10
      10      12      11      10      10      12      11      10      10      12
      11      10      10      12      11      10      10      12      11      10
      10      12      11      10      10      12      11      10      10      12
      11      10      10      12      11      10      10      12      11      10
      10      12      11      10      10      12      11      10      10      12
      11      10      10      12      11      10      10      12      11      10
      10      12      11      10      10      12      11      10      10      12
      11      10      10      12      11      10      10      12      11      10
      10      12      11      10      10      12      11      10      10      12
      11      10      10      12      11      10      10      12      11      10
      10      12      11      10      10      12      11      10      10      12
      11      10      10      12      11      10      10      12      11      10
      10      12      11      10      10      12      11      10      10      12
      11      10      10      12      11      10      10      12      11      10
      10      12      11      10      10      12      11      10      10      12
      11      10      10      12      11      10      10      12      11      10
      10      12      11      10      10      12      11      10      10      12
      11      10      10      12      11      10      10      12      11      10
      10      12      11      10      10      12      11      10      10      12
      11      10      10      12      11      10      10      12      11      10
      10      12      11      10      10      12      11      10      10      12
      11      10      10      12      11      10      10      12      11      10
      10      12      11      10      10      12      11      10      10      12
      11      10      10      12      11      10      10      12      11      10
      10      12      11      10      10      12      11      10      10      12
      11      10      10      12      11      10      10      12      11      10
      10      12      11      10      10      12      11      10      10      12
      11      10      10      12      11      10      10      12      11      10
      10      12      11      10      10      12      11      10      10      12
      11      10      10      12      11      10      10      12      11      10
      10      12      11      10      10      12      11      10      10      12
      11      10      10      12      11      10      10      12      11      10
      10      12      11      10      10      12      11      10      10      12
      11      10      10      12      11      10      10      12      11      10
      10      12      11      10      10      12      11      10      10      12
      11      10      10      12      11      10      10      12      11      10
      10      12      11      10      10      12      11      10      10      12
      11      10      10      12      11      10      10      12      11      10
      10      12      11      10      10      12      11      10      10      12
      11      10      10      12      11      10      10      12      11      10
      10      12      11      10      10      12      11      10      10      12
      11      10      10      12      11      10      10      12      11      10
      10      12      11      10      10      12      11      10      10      12
      11      10      10      12      11      10      10      12      11      10
      10      12      11      10      10      12      11      10      10      12
      11      10      10      12      11      10      10      12      11      10
      10      12      11      10      10      12      11      10      10      12
      11      10      10      12      11      10      10      12      11      10
      10      12      11      10      10      12      11      10      10      12
      11      10      10      12      11      10      10      12      11      10
      10      12      11      10      10      12      11      10      10      12
      11      10      10      12      11      10      10      12      11      10
      10      12      11      10      10      12      11      10      10      12
      11      10      10      12      11      10      10      12      11      10
      10      12      11      10      10      12      11      10      10      12
      11      10      10      12      11      10      10      12      11      10
      10      12      11      10      10      12      11      10      10      12
      11      10      10      12      11      10      10      12      11      10
      10      12      11      10      10      12      11      10      10      12
      11      10      10      12      11      10      10      12      11      10
      10      12      11      10      10      12      11      10      10      12
      11      10      10      12      11      10      10      12      11      10
      10      12      11      10      10      12      11      10      10      12
      11      10      10      12      11      10      10      12      11      10
      10      12      11      10      10      12      11      10      10      12
      11      10      10      12      11      10      10      12      11      10
      10      12      11      10      10      12      11      10      10      12
      11      10      10      12      11      10      10      12      11      10
      10      12      11      10      10      12      11      10      10      12
      11      10      10      12      11      10      10      12      11      10
      10      12      11      10      10      12      11      10      10      12
      11      10      10      12      11      10      10      12      11      10
      10      12      11      10      10      12      11      10      10      12
      11      10      10      12      11      10      10      12      11      10
      10      12      11      10      10      12      11      10      10      12
      11      10      10      12      11      10      10      12      11      10
      10      12      11      10      10      12      11      10      10      12
      11      10      10      12      11      10      10      12      11      10
      10      12      11      10      10      12      11      10      10      12
      11      10      10      12      11      10      10      12      11      10
      10      12      11      10      10      12      11      10      10      12
      11      10      10      12      11      10      10      12      11      10
      10      12      11      10      10      12      11      10      10      12
      11      10      10      12      11      10      10      12      11      10
      10      12      11      10      10      12      11      10      10      12
      11      10      10      12      11      10      10      12      11      10
      10      12      11      10      10      12      11      10      10      12
      11      10      10      12      11      10      10      12      11      10
      10      12      11      10      10      12      11      10      10      12
      11      10      10      12      11      10      10      12      11      10
      10      12      11      10      10      12      11      10      10      12
      11      10      10      12      11      10      10      12      11      10
      10      12      11      10      10      12      11      10      10      12
      11      10      10      12      11      10      10      12      11      10
      10      12      11      10      10      12      11      10      10      12
      11      10      10      12      11      10      10      12      11      10
      10      12      11      10      10      12      11      10      10      12
      11      10      10      12      11      10      10      12      11      10
      10      12      11      10      10      12      11      10      10      12
      11      10      10      12      11      10      10      12      11      10
      10      12      11      10      10      12      11      10      10      12
      11      10      10      12      11      10      10      12      11      10
      10      12      11      10      10      12      11      10      10      12
      11      10      10      12      11      10      10      12      11      10
      10      12      11      10      10      12      11      10      10      12
      11      10      10      12      11      10      10      12      11      10
      10      12      11      10      10      12      11      10      10      12
      11      10      10      12      11      10      10      12      11      10
      10      12      11      10      10      12      11      10      10      12
      11      10      10      12      11      10      10      12      11      10
      10      12      11      10      10      12      11      10      10      12
      11      10      10      12      11      10      10      12      11      10
      10      12      11      10      10      12      11      10      10      12
      11      10      10      12      11      10      10      12      11      10
      10      12      11      10      10      12      11      10      10      12
      11      10      10      12      11      10      10      12      11      10
      10      12      11      10      10      12      11      10      10      12
      11      10      10      12      11      10      10      12      11      10
      10      12      11      10      10      12      11      10      10      12
      11      10      10      12      11      10      10      12      11      10
      10      12      11      10      10      12      11      10      10      12
      11      10      10      12      11      10      10      12      11      10
      10      12      11      10      10      12      11      10      10      12
      11      10      10      12      11      10      10      12      11      10
      10      12      11      10      10      12      11      10      10      12
      11      10      10      12      11      10      10      12      11      10
      10      12      11      10      10      12      11      10      10      12
      11      10      10      12      11      10      10      12      11      10
      10      12      11      10      10      12      11      10      10      12
      11      10      10      12      11      10      10      12      11      10
      10      12      11      10      10      12      11      10      10      12
      11      10      10      12      11      10      10      12      11      10
      10      12      11      10      10      12      11      10      10      12
      11      10      10      12      11      10      10      12      11      10
      10      12      11      10      10      12      11      10      10      12
      11      10      10      12      11      10      10      12      11      10
      10      12      11      10      10      12      11      10      10      12
      11      10      10      12      11      10      10      12      11      10
      10      12      11      10      10      12      11      10      10      12
      11      10      10      12      11      10      10      12      11      10
      10      12      11      10      10      12      11      10      10      12
      11      10      10      12      11      10      10      12      11      10
      10      12      11      10      10      12      11      10      10      12
      11      10      10      12      11      10      10      12      11      10
      10      12      11      10      10      12      11      10      10      12
      11      10      10      12      11      10      10      12      11      10
      10      12      11      10      10      12      11      10      10      12
      11      10      10      12      11      10      10      12      11      10
      10      12      11      10      10      12      11      10      10      12
      11      10      10      12      11      10      10      12      11      10
      10      12      11      10      10      12      11      10      10      12
      11      10      10      12      11      10      10      12      11      10
      10      12      11      10      10      12      11      10      10      12
      11      10      10      12      11      10      10      12      11      10
      10      12      11      10      10      12      11      10      10      12
      11      10      10      12      11      10      10      12      11      10
      10      12      11      10      10      12      11      10      10      12
      11      10      10      12      11      10      10      12      11      10
      10      12      11      10      10      12      11      10      10      12
      11      10      10      12      11      10      10      12      11      10
      10      12      11      10      10      12      11      10      10      12
      11      10      10      12      11      10      10      12      11      10
      10      12      11      10      10      12      11      10      10      12
      11      10      10      12      11      10      10      12      11      10
      10      12      11      10      10      12      11      10      10      12
      11      10      10      12      11      10      10      12      11      10
      10      12      11      10      10      12      11      10      10      12
      11      10      10      12      11      10      10      12      11      10
      10      12      11      10      10      12      11      10      10      12
      11      10      10      12      11      10      10      12      11      10
      10      12      11      10      10      12      11      10      10      12
      11      10      10      12      11      10      10      12      11      10
      10      12      11      10      10      12      11      10      10      12
      11      10      10      12      11      10      10      12      11      10
      10      12      11      10      10      12      11      10      10      12
      11      10      10      12      11      10      10      12      11      10
      10      12      11      10      10      12      11      10      10      12
      11      10      10      12      11      10      10      12      11      10
      10      12      11      10      10      12      11      10      10      12
      11      10      10      12      11      10      10      12      11      10
      10      12      11      10      10      12      11      10      10      12
      11      10      10      12      11      10      10      12      11      10
      10      12      11      10      10      12      11      10      10      12
      11      10      10      12      11      10      10      12      11      10
      10      12      11      10      10      12      11      10      10      12
      11      10      10      12      11      10      10      12      11      10
      10      12      11      10      10      12      11      10      10      12
      11      10      10      12      11      10      10      12      11      10
      10      12      11      10      10      12      11      10      10      12
      11      10      10      12      11      10      10      12      11      10
      10      12      11      10      10      12      11      10      10      12
      11      10      10      12      11      10      10      12      11      10
      10      12      11      10      10      12      11      10      10      12
      11      10      10      12      11      10      10      12      11      10
      10      12      11      10      10      12      11      10      10      12
      11      10      10      12      11      10      10      12      11      10
      10      12      11      10      10      12      11      10      10      12
      11      10      10      12      11      10      10      12      11      10
      10      12      11      10      10      12      11      10      10      12
      11      10      10      12      11      10      10      12      11      10
      10      12      11      10      10      12      11      10      10      12
      11      10      10      12      11      10      10      12      11      10
      10      12      11      10      10      12      11      10      10      12
      11      10      10      12      11      10      10      12      11      10
      10      12      11      10      10      12      11      10      10      12
      11      10      10      12      11      10      10      12      11      10
      10      12      11      10      10      12      11      10      10      12
      11      10      10      12      11      10      10      12      11      10
      10      12      11      10      10      12      11      10      10      12
      11      10      10      12      11      10      10      12      11      10
      10      12      11      10      10      12      11      10      10      12
      11      10      10      12      11      10      10      12      11      10
      10      12      11      10      10      12      11      10      10      12
      11      10      10      12      11      10      10      12      11      10
      10      12      11      10      10      12      11      10      10      12
      11      10      10      12      11      10      10      12      11      10
      10      12      11      10      10      12      11      10      10      12
      11      10      10      12      11      10      10      12      11      10
      10      12      11      10      10      12      11      10      10      12
      11      10      10      12      11      10      10      12      11      10
      10      12      11      10      10      12      11      10      10      12
      11      10      10      12      11      10      10      12      11      10
      10      12      11      10      10      12      11      10      10      12
      11      10      10      12      11      10      10      12      11      10
      10      12      11      10      10      12      11      10      10      12
      11      10      10      12      11      10      10      12      11      10
      10      12      11      10      10      12      11      10      10      12
      11      10      10      12      11      10      10      12      11      10
      10      12      11      10      10      12      11      10      10      12
      11      10      10      12      11      10      10      12      11      10
      10      12      11      10      10      12      11      10      10      12
      11      10      10      12      11      10      10      12      11      10
      10      12      11      10      10      12      11      10      10      12
      11      10      10      12      11      10      10      12      11      10
      10      12      11      10      10      12      11      10      10      12
      11      10      10      12      11      10      10      12      11      10
      10      12      11      10      10      12      11      10      10      12
      11      10      10      12      11      10      10      12      11      10
      10      12      11      10      10      12      11      10      10      12
      11      10      10      12      11      10      10      12      11      10
      10      12      11      10      10      12      11      10      10      12
      11      10      10      12      11      10      10      12      11      10
      10      12      11      10      10      12      11      10      10      12
      11      10      10      12      11      10      10      12      11      10
      10      12      11      10      10      12      11      10      10      12
      11      10      10      12      11      10      10      12      11      10
      10      12      11      10      10      12      11      10      10      12
      11      10      10      12      11      10      10      12      11      10
      10      12      11      10      10      12      11      10      10      12
      11      10      10      12      11      10      10      12      11      10
      10      12      11      10      10      12      11      10      10      12
      11      10      10      12      11      10      10      12      11      10
      10      12      11      10      10      12      11      10      10      12
      11      10      10      12      11      10      10      12      11      10
      10      12      11      10      10      12      11      10      10      12
      11      10      10      12      11      10      10      12      11      10
      10      12      11      10      10      12      11      10      10      12
      11      10      10      12      11      10      10      12      11      10
      10      12      11      10      10      12      11      10      10      12
      11      10      10      12      11      10      10      12      11      10
      10      12      11      10      10      12      11      10      10      12
      11      10      10      12      11      10      10      12      11      10
      10      12      11      10      10      12      11      10      10      12
      11      10      10      12      11      10      10      12      11      10
      10      12      11      10      10      12      11      10      10      12
      11      10      10      12      11      10      10      12      11      10
      10      12      11      10      10      12      11      10      10      12
      11      10      10      12      11      10      10      12      11      10
      10      12      11      10      10      12      11      10      10      12
      11      10      10      12      11      10      10      12      11      10
      10      12      11      10      10      12      11      10      10      12
      11      10      10      12      11      10      10      12      11      10
      10      12      11      10      10      12      11      10      10      12
      11      10      10      12      11      10      10      12      11      10
      10      12      11      10      10      12      11      10      10      12
      11      10      10      12      11      10      10      12      11      10
      10      12      11      10      10      12      11      10      10      12
      11      10      10      12      11      10      10      12      11      10
      10      12      11      10      10      12      11      10      10      12
      11      10      10      12      11      10      10      12      11      10
      10      12      11      10      10      12      11      10      10      12
      11      10      10      12      11      10      10      12      11      10
      10      12      11      10      10      12      11      10      10      12
      11      10      10      12      11      10      10      12      11      10
      10      12      11      10      10      12      11      10      10      12
      11      10      10      12      11      10      10      12      11      10
      10      12      11      10      10      12      11      10      10      12
      11      10      10      12      11      10      10      12      11      10
      10      12      11      10      10      12      11      10      10      12
      11      10      10      12      11      10      10      12      11      10
      10      12      11      10      10      12      11      10      10      12
      11      10      10      12      11      10      10      12      11      10
      10      12      11      10      10      12      11      10      10      12
      11      10      10      12      11      10      10      12      11      10
      10      12      11      10      10      12      11      10      10      12
      11      10      10      12      11      10      10      12      11      10
      10      12      11      10      10      12      11      10      10      12
      11      10      10      12      11      10      10      12      11      10
      10      12      11      10      10      12      11      10      10      12
      11      10      10      12      11      10      10      12      11      10
      10      12      11      10      10      12      11      10      10      12
      11      10      10      12      11      10      10      12      11      10
      10      12      11      10      10      12      11      10      10      12
      11      10      10      12      11      10      10      12      11      10
      10      12      11      10      10      12      11      10      10      12
      11      10      10      12      11      10      10      12      11      10
      10      12      11      10      10      12      11      10      10      12
      11      10      10      12      11      10      10      12      11      10
      10      12      11      10      10      12      11      10      10      12
      11      10      10      12      11      10      10      12      11      10
      10      12      11      10      10      12      11      10      10      12
      11      10      10      12      11      10      10      12      11      10
      10      12      11      10      10      12      11      10      10      12
      11      10      10      12      11      10      10      12      11      10
      10      12      11      10      10      12      11      10      10      12
      11      10      10      12      11      10      10      12      11      10
      10      12      11      10      10      12      11      10      10      12
      11      10      10      12      11      10      10      12      11      10
      10      12      11      10      10      12      11      10      10      12
      11      10      10      12      11      10      10      12      11      10
      10      12      11      10      10      12      11      10      10      12
      11      10      10      12      11      10      10      12      11      10
      10      12      11      10      10      12      11      10      10      12
      11      10      10      12      11      10      10      12      11      10
      10      12      11      10      10      12      11      10      10      12
      11      10      10      12      11      10      10      12      11      10
      10      12      11      10      10      12      11      10      10      12
      11      10      10      12      11      10      10      12      11      10
      10      12      11      10      10      12      11      10      10      12
      11      10      10      12      11      10      10      12      11      10
      10      12      11      10      10      12      11      10      10      12
      11      10      10      12      11      10      10      12      11      10
      10      12      11      10      10      12      11      10      10      12
      11      10      10      12      11      10      10      12      11      10
      10      12      11      10      10      12      11      10      10      12
      11      10      10      12      11      10      10      12      11      10
      10      12      11      10      10      12      11      10      10      12
      11      10      10      12      11      10      10      12      11      10
      10      12      11      10      10      12      11      10      10      12
      11      10      10      12      11      10      10      12      11      10
      10      12      11      10      10      12      11      10      10      12
      11      10      10      12      11      10      10      12      11      10
      10      12      11      10      10      12      11      10      10      12
      11      10      10      12      11      10      10      12      11      10
      10      12      11      10      10      12      11      10      10      12
      11      10      10      12      11      10      10      12      11      10
      10      12      11      10      10      12      11      10      10      12
      11      10      10      12      11      10      10      12      11      10
      10      12      11      10      10      12      11      10      10      12
      11      10      10      12      11      10      10      12      11      10
      10      12      11      10      10      12      11      10      10      12
      11      10      10      12      11      10      10      12      11      10
      10      12      11      10      10      12      11      10      10      12
      11      10      10      12      11      10      10      12      11      10
      10      12      11      10      10      12      11      10      10      12
      11      10      10      12      11      10      10      12      11      10
      10      12      11      10      10      12      11      10      10      12
      11      10      10      12      11      10      10      12      11      10
      10      12      11      10      10      12      11      10      10      12
      11      10      10      12      11      10      10      12      11      10
      10      12      11      10      10      12      11      10      10      12
      11      10      10      12      11      10      10      12      11      10
      10      12      11      10      10      12      11      10      10      12
      11      10      10      12      11      10      10      12      11      10
      10      12      11      10      10      12      11      10      10      12
      11      10      10      12      11      10      10      12      11      10
      10      12      11      10      10      12      11      10      10      12
      11      10      10      12      11      10      10      12      11      10
      10      12      11      10      10      12      11      10      10      12
      11      10      10      12      11      10      10      12      11      10
      10      12      11      10      10      12      11      10      10      12
      11      10      10      12      11      10      10      12      11      10
      10      12      11      10      10      12      11      10      10      12
      11      10      10      12      11      10      10      12      11      10
      10      12      11      10      10      12      11      10      10      12
      11      10      10      12      11      10      10      12      11      10
      10      12      11      10      10      12      11      10      10      12
      11      10      10      12      11      10      10      12      11      10
      10      12      11      10      10      12      11      10      10      12
      11      10      10      12      11      10      10      12      11      10
      10      12      11      10      10      12      11      10      10      12
      11      10      10      12      11      10      10      12      11      10
      10      12      11      10      10      12      11      10      10      12
      11      10      10      12      11      10      10      12      11      10
      10      12      11      10      10      12      11      10      10      12
      11      10      10      12      11      10      10      12      11      10
      10      12      11      10      10      12      11      10      10      12
      11      10      10      12      11      10      10      12      11      10
      10      12      11      10      10      12      11      10      10      12
      11      10      10      12      11      10      10      12      11      10
      10      12      11      10      10      12      11      10      10      12
      11      10      10      12      11      10      10      12      11      10
      10      12      11      10      10      12      11      10      10      12
      11      10      10      12      11      10      10      12      11      10
      10      12      11      10      10      12      11      10      10      12
      11      10      10      12      11      10      10      12      11      10
      10      12      11      10      10      12      11      10      10      12
      11      10      10      12      11      10      10      12      11      10
      10      12      11      10      10      12      11      10      10      12
      11      10      10      12      11      10      10      12      11      10
      10      12      11      10      10      12      11      10      10      12
      11      10      10      12      11      10      10      12      11      10
      10      12      11      10      10      12      11      10      10      12
      11      10      10      12      11      10      10      12      11      10
      10      12      11      10      10      12      11      10      10      12
      11      10      10      12      11      10      10      12      11      10
      10      12      11      10      10      12      11      10      10      12
      11      10      10      12      11      10      10      12      11      10
      10      12      11      10      10      12      11      10      10      12
      11      10      10      12      11      10      10      12      11      10
      10      12      11      10      10      12      11      10      10      12
      11      10      10      12      11      10      10      12      11      10
      10      12      11      10      10      12      11      10      10      12
      11      10      10      12      11      10      10      12      11      10
      10      12      11      10      10      12      11      10      10      12
      11      10      10      12      11      10      10      12      11      10
      10      12      11      10      10      12      11      10      10      12
      11      10      10      12      11      10      10      12      11      10
      10      12      11      10      10      12      11      10      10      12
      11      10      10      12      11      10      10      12      11      10
      10      12      11      10      10      12      11      10      10      12
      11      10      10      12      11      10      10      12      11      10
      10      12      11      10      10      12      11      10      10      12
      11      10      10      12      11      10      10      12      11      10
      10      12      11      10      10      12      11      10      10      12
      11      10      10      12      11      10      10      12      11      10
      10      12      11      10      10      12      11      10      10      12
      11      10      10      12      11      10      10      12      11      10
      10      12      11      10      10      12      11      10      10      12
      11      10      10      12      11      10      10      12      11      10
      10      12      11      10      10      12      11      10      10      12
      11      10      10      12      11      10      10      12      11      10
      10      12      11      10      10      12      11      10      10      12
      11      10      10      12      11      10      10      12      11      10
      10      12      11      10      10      12      11      10      10      12
      11      10      10      12      11      10      10      12      11      10
      10      12      11      10      10      12      11      10      10      12
      11      10      10      12      11      10      10      12      11      10
      10      12      11      10      10      12      11      10      10      12
      11      10      10      12      11      10      10      12      11      10
      10      12      11      10      10      12      11      10      10      12
      11      10      10      12      11      10      10      12      11      10
      10      12      11      10      10      12      11      10      10      12
      11      10      10      12      11      10      10      12      11      10
      10      12      11      10      10      12      11      10      10      12
      11      10      10      12      11      10      10      12      11      10
      10      12      11      10      10      12      11      10      10      12
      11      10      10      12      11      10      10      12      11      10
      10      12      11      10      10      12      11      10      10      12
      11      10      10      12      11      10      10      12      11      10
      10      12      11      10      10      12      11      10      10      12
      11      10      10      12      11      10      10      12      11      10
      10      12      11      10      10      12      11      10      10      12
      11      10      10      12      11      10      10      12      11      10
      10      12      11      10      10      12      11      10      10      12
      11      10      10      12      11      10      10      12      11      10
      10      12      11      10      10      12      11      10      10      12
      11      10      10      12      11      10      10      12      11      10
      10      12      11      10      10      12      11      10      10      12
      11      10      10      12      11      10      10      12      11      10
      10      12      11      10      10      12      11      10      10      12
      11      10      10      12      11      10      10      12      11      10
      10      12      11      10      10      12      11      10      10      12
      11      10      10      12      11      10      10      12      11      10
      10      12      11      10      10      12      11      10      10      12
      11      10      10      12      11      10      10      12      11      10
      10      12      11      10      10      12      11      10      10      12
      11      10      10      12      11      10      10      12      11      10
      10      12      11      10      10      12      11      10      10      12
      11      10      10      12      11      10      10      12      11      10
      10      12      11      10      10      12      11      10      10      12
      11      10      10      12      11      10      10      12      11      10
      10      12      11      10      10      12      11      10      10      12
      11      10      10      12      11      10      10      12      11      10
      10      12      11      10      10      12      11      10      10      12
      11      10      10      12      11      10      10      12      11      10
      10      12      11      10      10      12      11      10      10      12
      11      10      10      12      11      10      10      12      11      10
      10      12      11      10      10      12      11      10      10      12
      11      10      10      12      11      10      10      12      11      10
      10      12      11      10      10      12      11      10      10      12
      11      10      10      12      11      10      10      12      11      10
      10      12      11      10      10      12      11      10      10      12
      11      10      10      12      11      10      10      12      11      10
      10      12      11      10      10      12      11      10      10      12
      11      10      10      12      11      10      10      12      11      10
      10      12      11      10      10      12      11      10      10      12
      11      10      10      12      11      10      10      12      11      10
      10      12      11      10      10      12      11      10      10      12
      11      10      10      12      11      10      10      12      11      10
      10      12      11      10      10      12      11      10      10      12
      11      10      10      12      11      10      10      12      11      10
      10      12      11      10      10      12      11      10      10      12
      11      10      10      12      11      10      10      12      11      10
      10      12      11      10      10      12      11      10      10      12
      11      10      10      12      11      10      10      12      11      10
      10      12      11      10      10      12      11      10      10      12
      11      10      10      12      11      10      10      12      11      10
      10      12      11      10      10      12      11      10      10      12
      11      10      10      12      11      10      10      12      11      10
      10      12      11      10      10      12      11      10      10      12
      11      10      10      12      11      10      10      12      11      10
      10      12      11      10      10      12      11      10      10      12
      11      10      10      12      11      10      10      12      11      10
      10      12      11      10      10      12      11      10      10      12
      11      10      10      12      11      10      10      12      11      10
      10      12      11      10      10      12      11      10      10      12
      11      10      10      12      11      10      10      12      11      10
      10      12      11      10      10      12      11      10      10      12
      11      10      10      12      11      10      10      12      11      10
      10      12      11      10      10      12      11      10      10      12
      11      10      10      12      11      10      10      12      11      10
      10      12      11      10      10      12      11      10      10      12
      11      10      10      12      11      10      10      12      11      10
      10      12      11      10      10      12      11      10      10      12
      11      10      10      12      11      10      10      12      11      10
      10      12      11      10      10      12      11      10      10      12
      11      10      10      12      11      10      10      12      11      10
      10      12      11      10      10      12      11      10      10      12
      11      10      10      12      11      10      10      12      11      10
      10      12      11      10      10      12      11      10      10      12
      11      10      10      12      11      10      10      12      11      10
      10      12      11      10      10      12      11      10      10      12
      11      10      10      12      11      10      10      12      11      10
      10      12      11      10      10      12      11      10      10      12
      11      10      10      12      11      10      10      12      11      10
      10      12      11      10      10      12      11      10      10      12
      11      10      10      12      11      10      10      12      11      10
      10      12      11      10      10      12      11      10      10      12
      11      10      10      12      11      10      10      12      11      10
      10      12      11      10      10      12      11      10      10      12
      11      10      10      12      11      10      10      12      11      10
      10      12      11      10      10      12      11      10      10      12
      11      10      10      12      11      10      10      12      11      10
      10      12      11      10      10      12      11      10      10      12
      11      10      10      12      11      10      10      12      11      10
      10      12      11      10      10      12      11      10      10      12
      11      10      10      12      11      10      10      12      11      10
      10      12      11      10      10      12      11      10      10      12
      11      10      10      12      11      10      10      12      11      10
      10      12      11      10      10      12      11      10      10      12
      11      10      10      12      11      10      10      12      11      10
      10      12      11      10      10      12      11      10      10      12
      11      10      10      12      11      10      10      12      11      10
      10      12      11      10      10      12      11      10      10      12
      11      10      10      12      11      10      10      12      11      10
      10      12      11      10      10      12      11      10      10      12
      11      10      10      12      11      10      10      12      11      10
      10      12      11      10      10      12      11      10      10      12
      11      10      10      12      11      10      10      12      11      10
      10      12      11      10      10      12      11      10      10      12
      11      10      10      12      11      10      10      12      11      10
      10      12      11      10      10      12      11      10      10      12
      11      10      10      12      11      10      10      12      11      10
      10      12      11      10      10      12      11      10      10      12
      11      10      10      12      11      10      10      12      11      10
      10      12      11      10      10      12      11      10      10      12
      11      10      10      12      11      10      10      12      11      10
      10      12      11      10      10      12      11      10      10      12
      11      10      10      12      11      10      10      12      11      10
      10      12      11      10      10      12      11      10      10      12
      11      10      10      12      11      10      10      12      11      10
      10      12      11      10      10      12      11      10      10      12
      11      10      10      12      11      10      10      12      11      10
      10      12      11      10      10      12      11      10      10      12
      11      10      10      12      11      10      10      12      11      10
      10      12      11      10      10      12      11      10      10      12
      11      10      10      12      11      10      10      12      11      10
      10      12      11      10      10      12      11      10      10      12
      11      10      10      12      11      10      10      12      11      10
      10      12      11      10      10      12      11      10      10      12
      11      10      10      12      11      10      10      12      11      10
      10      12      11      10      10      12      11      10      10      12
      11      10      10      12      11      10      10      12      11      10
      10      12      11      10      10      12      11      10      10      12
      11      10      10      12      11      10      10      12      11      10
      10      12      11      10      10      12      11      10      10      12
      11      10      10      12      11      10      10      12      11      10
      10      12      11      10      10      12      11      10      10      12
      11      10      10      12      11      10      10      12      11      10
      10      12      11      10      10      12      11      10      10      12
      11      10      10      12      11      10      10      12      11      10
      10      12      11      10      10      12      11      10      10      12
      11      10      10      12      11      10      10      12      11      10
      10      12      11      10      10      12      11      10      10      12
      11      10      10      12      11      10      10      12      11      10
      10      12      11      10      10      12      11      10      10      12
      11      10      10      12      11      10      10      12      11      10
      10      12      11      10      10      12      11      10      10      12
      11      10      10      12      11      10      10      12      11      10
      10      12      11      10      10      12      11      10      10      12
      11      10      10      12      11      10      10      12      11      10
      10      12      11      10      10      12      11      10      10      12
      11      10      10      12      11      10      10      12      11      10
      10      12      11      10      10      12      11      10      10      12
      11      10      10      12      11      10      10      12      11      10
      10      12      11      10      10      12      11      10      10      12
      11      10      10      12      11      10      10      12      11      10
      10      12      11      10      10      12      11      10      10      12
      11      10      10      12      11      10      10      12      11      10
      10      12      11      10      10      12      11      10      10      12
      11      10      10      12      11      10      10      12      11      10
      10      12      11      10      10      12      11      10      10      12
      11      10      10      12      11      10      10      12      11      10
      10      12      11      10      10      12      11      10      10      12
      11      10      10      12      11      10      10      12      11      10
      10      12      11      10      10      12      11      10      10      12
      11      10      10      12      11      10      10      12      11      10
      10      12      11      10      10      12      11      10      10      12
      11      10      10      12      11      10      10      12      11      10
      10      12      11      10      10      12      11      10      10      12
      11      10      10      12      11      10      10      12      11      10
      10      12      11      10      10      12      11      10      10      12
      11      10      10      12      11      10      10      12      11      10
      10      12      11      10      10      12      11      10      10      12
      11      10      10      12      11      10      10      12      11      10
      10      12      11      10      10      12      11      10      10      12
      11      10      10      12      11      10      10      12      11      10
      10      12      11      10      10      12      11      10      10      12
      11      10      10      12      11      10      10      12      11      10
      10      12      11      10      10      12      11      10      10      12
      11      10      10      12      11      10      10      12      11      10
      10      12      11      10      10      12      11      10      10      12
      11      10      10      12      11      10      10      12      11      10
      10      12      11      10      10      12      11      10      10      12
      11      10      10      12      11      10      10      12      11      10
      10      12      11      10      10      12      11      10      10      12
      11      10      10      12      11      10      10      12      11      10
      10      12      11      10      10      12      11      10      10      12
      11      10      10      12      11      10      10      12      11      10
      10      12      11      10      10      12      11      10      10      12
      11      10      10      12      11      10      10      12      11      10
      10      12      11      10      10      12      11      10      10      12
      11      10      10      12      11      10      10      12      11      10
      10      12      11      10      10      12      11      10      10      12
      11      10      10      12      11      10      10      12      11      10
      10      12      11      10      10      12      11      10      10      12
      11      10      10      12      11      10      10      12      11      10
      10      12      11      10      10      12      11      10      10      12
      11      10      10      12      11      10      10      12      11      10
      10      12      11      10      10      12      11      10      10      12
      11      10      10      12      11      10      10      12      11      10
      10      12      11      10      10      12      11      10      10      12
      11      10      10      12      11      10      10      12      11      10
      10      12      11      10      10      12      11      10      10      12
      11      10      10      12      11      10      10      12      11      10
      10      12      11      10      10      12      11      10      10      12
      11      10      10      12      11      10      10      12      11      10
      10      12      11      10      10      12      11      10      10      12
      11      10      10      12      11      10      10      12      11      10
      10      12      11      10      10      12      11      10      10      12
      11      10      10      12      11      10      10      12      11      10
      10      12      11      10      10      12      11      10      10      12
      11      10      10      12      11      10      10      12      11      10
      10      12      11      10      10      12      11      10      10      12
      11      10      10      12      11      10      10      12      11      10
      10      12      11      10      10      12      11      10      10      12
      11      10      10      12      11      10      10      12      11      10
      10      12      11      10      10      12      11      10      10      12
      11      10      10      12      11      10      10      12      11      10
      10      12      11      10      10      12      11      10      10      12
      11      10      10      12      11      10      10      12      11      10
      10      12      11      10      10      12      11      10      10      12
      11      10      10      12      11      10      10      12      11      10
      10      12      11      10      10      12      11      10      10      12
      11      10      10      12      11      10      10      12      11      10
      10      12      11      10      10      12      11      10      10      12
      11      10      10      12      11      10      10      12      11      10
      10      12      11      10      10      12      11      10      10      12
      11      10      10      12      11      10      10      12      11      10
      10      12      11      10      10      12      11      10      10      12
      11      10      10      12      11      10      10      12      11      10
      10      12      11      10      10      12      11      10      10      12
      11      10      10      12      11      10      10      12      11      10
      10      12      11      10      10      12      11      10      10      12
      11      10      10      12      11      10      10      12      11      10
      10      12      11      10      10      12      11      10      10      12
      11      10      10      12      11      10      10      12      11      10
      10      12      11      10      10      12      11      10      10      12
      11      10      10      12      11      10      10      12      11      10
      10      12      11      10      10      12      11      10      10      12
      11      10      10      12      11      10      10      12      11      10
      10      12      11      10      10      12      11      10      10      12
      11      10      10      12      11      10      10      12      11      10
      10      12      11      10      10      12      11      10      10      12
      11      10      10      12      11      10      10      12      11      10
      10      12      11      10      10      12      11      10      10      12
      11      10      10      12      11      10      10      12      11      10
      10      12      11      10      10      12      11      10      10      12
      11      10      10      12      11      10      10      12      11      10
      10      12      11      10      10      12      11      10      10      12
      11      10      10      12      11      10      10      12      11      10
      10      12      11      10      10      12      11      10      10      12
      11      10      10      12      11      10      10      12      11      10
      10      12      11      10      10      12      11      10      10      12
      11      10      10      12      11      10      10      12      11      10
      10      12      11      10      10      12      11      10      10      12
      11      10      10      12      11      10      10      12      11      10
      10      12      11      10      10      12      11      10      10      12
      11      10      10      12      11      10      10      12      11      10
      10      12      11      10      10      12      11      10      10      12
      11      10      10      12      11      10      10      12      11      10
      10      12      11      10      10      12      11      10      10      12
      11      10      10      12      11      10      10      12      11      10
      10      12      11      10      10      12      11      10      10      12
      11      10      10      12      11      10      10      12      11      10
      10      12
%FLAG NUMBER_EXCLUDED_ATOMS                                                     
%FORMAT(10I8)                                                                   
       6       7       4       3       7       3      10       4      12       7
      12       5       4      10       8       4       7       3       6       4
       1       3       2       1       1       7       3      10       4      10
       7       6       3       2       1       7       3       7       4       7
       4       3       7       3      10       4      12       7      12       5
       4      10       8       4       6       3       5       3       3       2
       1       1       7       3       5       4       3       2       1       1
       3       2       1       1       3       2       1       1       3       2
       1       1       3       2       1       1       3       2       1       1
       3       2       1       1       3       2       1       1       3       2
       1       1       3       2       1       1       3       2       1       1
       3       2       1       1       3       2       1       1       3       2
       1       1       3       2       1       1       3       2       1       1
       3       2       1       1       3       2       1       1       3       2
       1       1       3       2       1       1       3       2       1       1
       3       2       1       1       3       2       1       1       3       2
       1       1       3       2       1       1       3       2       1       1
       3       2       1       1       3       2       1       1       3       2
       1       1       3       2       1       1       3       2       1       1
       3       2       1       1       3       2       1       1       3       2
       1       1       3       2       1       1       3       2       1       1
       3       2       1       1       3       2       1       1       3       2
       1       1       3       2       1       1       3       2       1       1
       3       2       1       1       3       2       1       1       3       2
       1       1       3       2       1       1       3       2       1       1
       3       2       1       1       3       2       1       1       3       2
       1       1       3       2       1       1       3       2       1       1
       3       2       1       1       3       2       1       1       3       2
       1       1       3       2       1       1       3       2       1       1
       3       2       1       1       3       2       1       1       3       2
       1       1       3       2       1       1       3       2       1       1
       3       2       1       1       3       2       1       1       3       2
       1       1       3       2       1       1       3       2       1       1
       3       2       1       1       3       2       1       1       3       2
       1       1       3       2       1       1       3       2       1       1
       3       2       1       1       3       2       1       1       3       2
       1       1       3       2       1       1       3       2       1       1
       3       2       1       1       3       2       1       1       3       2
       1       1       3       2       1       1       3       2       1       1
       3       2       1       1       3       2       1       1       3       2
       1       1       3       2       1       1       3       2       1       1
       3       2       1       1       3       2       1       1       3       2
       1       1       3       2       1       1       3       2       1       1
       3       2       1       1       3       2       1       1       3       2
       1       1       3       2       1       1       3       2       1       1
       3       2       1       1       3       2       1       1       3       2
       1       1       3       2       1       1       3       2       1       1
       3       2       1       1       3       2       1       1       3       2
       1       1       3       2       1       1       3       2       1       1
       3       2       1       1       3       2       1       1       3       2
       1       1       3       2       1       1       3       2       1       1
       3       2       1       1       3       2       1       1       3       2
       1       1       3       2       1       1       3       2       1       1
       3       2       1       1       3       2       1       1       3       2
       1       1       3       2       1       1       3       2       1       1
       3       2       1       1       3       2       1       1       3       2
       1       1       3       2       1       1       3       2       1       1
       3       2       1       1       3       2       1       1       3       2
       1       1       3       2       1       1       3       2       1       1
       3       2       1       1       3       2       1       1       3       2
       1       1       3       2       1       1       3       2       1       1
       3       2       1       1       3       2       1       1       3       2
       1       1       3       2       1       1       3       2       1       1
       3       2       1       1       3       2       1       1       3       2
       1       1       3       2       1       1       3       2       1       1
       3       2       1       1       3       2       1       1       3       2
       1       1       3       2       1       1       3       2       1       1
       3       2       1       1       3       2       1       1       3       2
       1       1       3       2       1       1       3       2       1       1
       3       2       1       1       3       2       1       1       3       2
       1       1       3       2       1       1       3       2       1       1
       3       2       1       1       3       2       1       1       3       2
       1       1       3       2       1       1       3       2       1       1
       3       2       1       1       3       2       1       1       3       2
       1       1       3       2       1       1       3       2       1       1
       3       2       1       1       3       2       1       1       3       2
       1       1       3       2       1       1       3       2       1       1
       3       2       1       1       3       2       1       1       3       2
       1       1       3       2       1       1       3       2       1       1
       3       2       1       1       3       2       1       1       3       2
       1       1       3       2       1       1       3       2       1       1
       3       2       1       1       3       2       1       1       3       2
       1       1       3       2       1       1       3       2       1       1
       3       2       1       1       3       2       1       1       3       2
       1       1       3       2       1       1       3       2       1       1
       3       2       1       1       3       2       1       1       3       2
       1       1       3       2       1       1       3       2       1       1
       3       2       1       1       3       2       1       1       3       2
       1       1       3       2       1       1       3       2       1       1
       3       2       1       1       3       2       1       1       3       2
       1       1       3       2       1       1       3       2       1       1
       3       2       1       1       3       2       1       1       3       2
       1       1       3       2       1       1       3       2       1       1
       3       2       1       1       3       2       1       1       3       2
       1       1       3       2       1       1       3       2       1       1
       3       2       1       1       3       2       1       1       3       2
       1       1       3       2       1       1       3       2       1       1
       3       2       1       1       3       2       1       1       3       2
       1       1       3       2       1       1       3       2       1       1
       3       2       1       1       3       2       1       1       3       2
       1       1       3       2       1       1       3       2       1       1
       3       2       1       1       3       2       1       1       3       2
       1       1       3       2       1       1       3       2       1       1
       3       2       1       1       3       2       1       1       3       2
       1       1       3       2       1       1       3       2       1       1
       3       2       1       1       3       2       1       1       3       2
       1       1       3       2       1       1       3       2       1       1
       3       2       1       1       3       2       1       1       3       2
       1       1       3       2       1       1       3       2       1       1
       3       2       1       1       3       2       1       1       3       2
       1       1       3       2       1       1       3       2       1       1
       3       2       1       1       3       2       1       1       3       2
       1       1       3       2       1       1       3       2       1       1
       3       2       1       1       3       2       1       1       3       2
       1       1       3       2       1       1       3       2       1       1
       3       2       1       1       3       2       1       1       3       2
       1       1       3       2       1       1       3       2       1       1
       3       2       1       1       3       2       1       1       3       2
       1       1       3       2       1       1       3       2       1       1
       3       2       1       1       3       2       1       1       3       2
       1       1       3       2       1       1       3       2       1       1
       3       2       1       1       3       2       1       1       3       2
       1       1       3       2       1       1       3       2       1       1
       3       2       1       1       3       2       1       1       3       2
       1       1       3       2       1       1       3       2       1       1
       3       2       1       1       3       2       1       1       3       2
       1       1       3       2       1       1       3       2       1       1
       3       2       1       1       3       2       1       1       3       2
       1       1       3       2       1       1       3       2       1       1
       3       2       1       1       3       2       1       1       3       2
       1       1       3       2       1       1       3       2       1       1
       3       2       1       1       3       2       1       1       3       2
       1       1       3       2       1       1       3       2       1       1
       3       2       1       1       3       2       1       1       3       2
       1       1       3       2       1       1       3       2       1       1
       3       2       1       1       3       2       1       1       3       2
       1       1       3       2       1       1       3       2       1       1
       3       2       1       1       3       2       1       1       3       2
       1       1       3       2       1       1       3       2       1       1
       3       2       1       1       3       2       1       1       3       2
       1       1       3       2       1       1       3       2       1       1
       3       2       1       1       3       2       1       1       3       2
       1       1       3       2       1       1       3       2       1       1
       3       2       1       1       3       2       1       1       3       2
       1       1       3       2       1       1       3       2       1       1
       3       2       1       1       3       2       1       1       3       2
       1       1       3       2       1       1       3       2       1       1
       3       2       1       1       3       2       1       1       3       2
       1       1       3       2       1       1       3       2       1       1
       3       2       1       1       3       2       1       1       3       2
       1       1       3       2       1       1       3       2       1       1
       3       2       1       1       3       2       1       1       3       2
       1       1       3       2       1       1       3       2       1       1
       3       2       1       1       3       2       1       1       3       2
       1       1       3       2       1       1       3       2       1       1
       3       2       1       1       3       2       1       1       3       2
       1       1       3       2       1       1       3       2       1       1
       3       2       1       1       3       2       1       1       3       2
       1       1       3       2       1       1       3       2       1       1
       3       2       1       1       3       2       1       1       3       2
       1       1       3       2       1       1       3       2       1       1
       3       2       1       1       3       2       1       1       3       2
       1       1       3       2       1       1       3       2       1       1
       3       2       1       1       3       2       1       1       3       2
       1       1       3       2       1       1       3       2       1       1
       3       2       1       1       3       2       1       1       3       2
       1       1       3       2       1       1       3       2       1       1
       3       2       1       1       3       2       1       1       3       2
       1       1       3       2       1       1       3       2       1       1
       3       2       1       1       3       2       1       1       3       2
       1       1       3       2       1       1       3       2       1       1
       3       2       1       1       3       2       1       1       3       2
       1       1       3       2       1       1       3       2       1       1
       3       2       1       1       3       2       1       1       3       2
       1       1       3       2       1       1       3       2       1       1
       3       2       1       1       3       2       1       1       3       2
       1       1       3       2       1       1       3       2       1       1
       3       2       1       1       3       2       1       1       3       2
       1       1       3       2       1       1       3       2       1       1
       3       2       1       1       3       2       1       1       3       2
       1       1       3       2       1       1       3       2       1       1
       3       2       1       1       3       2       1       1       3       2
       1       1       3       2       1       1       3       2       1       1
       3       2       1       1       3       2       1       1       3       2
       1       1       3       2       1       1       3       2       1       1
       3       2       1       1       3       2       1       1       3       2
       1       1       3       2       1       1       3       2       1       1
       3       2       1       1       3       2       1       1       3       2
       1       1       3       2       1       1       3       2       1       1
       3       2       1       1       3       2       1       1       3       2
       1       1       3       2       1       1       3       2       1       1
       3       2       1       1       3       2       1       1       3       2
       1       1       3       2       1       1       3       2       1       1
       3       2       1       1       3       2       1       1       3       2
       1       1       3       2       1       1       3       2       1       1
       3       2       1       1       3       2       1       1       3       2
       1       1       3       2       1       1       3       2       1       1
       3       2       1       1       3       2       1       1       3       2
       1       1       3       2       1       1       3       2       1       1
       3       2       1       1       3       2       1       1       3       2
       1       1       3       2       1       1       3       2       1       1
       3       2       1       1       3       2       1       1       3       2
       1       1       3       2       1       1       3       2       1       1
       3       2       1       1       3       2       1       1       3       2
       1       1       3       2       1       1       3       2       1       1
       3       2       1       1       3       2       1       1       3       2
       1       1       3       2       1       1       3       2       1       1
       3       2       1       1       3       2       1       1       3       2
       1       1       3       2       1       1       3       2       1       1
       3       2       1       1       3       2       1       1       3       2
       1       1       3       2       1       1       3       2       1       1
       3       2       1       1       3       2       1       1       3       2
       1       1       3       2       1       1       3       2       1       1
       3       2       1       1       3       2       1       1       3       2
       1       1       3       2       1       1       3       2       1       1
       3       2       1       1       3       2       1       1       3       2
       1       1       3       2       1       1       3       2       1       1
       3       2       1       1       3       2       1       1       3       2
       1       1       3       2       1       1       3       2       1       1
       3       2       1       1       3       2       1       1       3       2
       1       1       3       2       1       1       3       2       1       1
       3       2       1       1       3       2       1       1       3       2
       1       1       3       2       1       1       3       2       1       1
       3       2       1       1       3       2       1       1       3       2
       1       1       3       2       1       1       3       2       1       1
       3       2       1       1       3       2       1       1       3       2
       1       1       3       2       1       1       3       2       1       1
       3       2       1       1       3       2       1       1       3       2
       1       1       3       2       1       1       3       2       1       1
       3       2       1       1       3       2       1       1       3       2
       1       1       3       2       1       1       3       2       1       1
       3       2       1       1       3       2       1       1       3       2
       1       1       3       2       1       1       3       2       1       1
       3       2       1       1       3       2       1       1       3       2
       1       1       3       2       1       1       3       2       1       1
       3       2       1       1       3       2       1       1       3       2
       1       1       3       2       1       1       3       2       1       1
       3       2       1       1       3       2       1       1       3       2
       1       1       3       2       1       1       3       2       1       1
       3       2       1       1       3       2       1       1       3       2
       1       1       3       2       1       1       3       2       1       1
       3       2       1       1       3       2       1       1       3       2
       1       1       3       2       1       1       3       2       1       1
       3       2       1       1       3       2       1       1       3       2
       1       1       3       2       1       1       3       2       1       1
       3       2       1       1       3       2       1       1       3       2
       1       1       3       2       1       1       3       2       1       1
       3       2       1       1       3       2       1       1       3       2
       1       1       3       2       1       1       3       2       1       1
       3       2       1       1       3       2       1       1       3       2
       1       1       3       2       1       1       3       2       1       1
       3       2       1       1       3       2       1       1       3       2
       1       1       3       2       1       1       3       2       1       1
       3       2       1       1       3       2       1       1       3       2
       1       1       3       2       1       1       3       2       1       1
       3       2       1       1       3       2       1       1       3       2
       1       1       3       2       1       1       3       2       1       1
       3       2       1       1       3       2       1       1       3       2
       1       1       3       2       1       1       3       2       1       1
       3       2       1       1       3       2       1       1       3       2
       1       1       3       2       1       1       3       2       1       1
       3       2       1       1       3       2       1       1       3       2
       1       1       3       2       1       1       3       2       1       1
       3       2       1       1       3       2       1       1       3       2
       1       1       3       2       1       1       3       2       1       1
       3       2       1       1       3       2       1       1       3       2
       1       1       3       2       1       1       3       2       1       1
       3       2       1       1       3       2       1       1       3       2
       1       1       3       2       1       1       3       2       1       1
       3       2       1       1       3       2       1       1       3       2
       1       1       3       2       1       1       3       2       1       1
       3       2       1       1       3       2       1       1       3       2
       1       1       3       2       1       1       3       2       1       1
       3       2       1       1       3       2       1       1       3       2
       1       1       3       2       1       1       3       2       1       1
       3       2       1       1       3       2       1       1       3       2
       1       1       3       2       1       1       3       2       1       1
       3       2       1       1       3       2       1       1       3       2
       1       1       3       2       1       1       3       2       1       1
       3       2       1       1       3       2       1       1       3       2
       1       1       3       2       1       1       3       2       1       1
       3       2       1       1       3       2       1       1       3       2
       1       1       3       2       1       1       3       2       1       1
       3       2       1       1       3       2       1       1       3       2
       1       1       3       2       1       1       3       2       1       1
       3       2       1       1       3       2       1       1       3       2
       1       1       3       2       1       1       3       2       1       1
       3       2       1       1       3       2       1       1       3       2
       1       1       3       2       1       1       3       2       1       1
       3       2       1       1       3       2       1       1       3       2
       1       1       3       2       1       1       3       2       1       1
       3       2       1       1       3       2       1       1       3       2
       1       1       3       2       1       1       3       2       1       1
       3       2       1       1       3       2       1       1       3       2
       1       1       3       2       1       1       3       2       1       1
       3       2       1       1       3       2       1       1       3       2
       1       1       3       2       1       1       3       2       1       1
       3       2       1       1       3       2       1       1       3       2
       1       1       3       2       1       1       3       2       1       1
       3       2       1       1       3       2       1       1       3       2
       1       1       3       2       1       1       3       2       1       1
       3       2       1       1       3       2       1       1       3       2
       1       1       3       2       1       1       3       2       1       1
       3       2       1       1       3       2       1       1       3       2
       1       1       3       2       1       1       3       2       1       1
       3       2       1       1       3       2       1       1       3       2
       1       1       3       2       1       1       3       2       1       1
       3       2       1       1       3       2       1       1       3       2
       1       1       3       2       1       1       3       2       1       1
       3       2       1       1       3       2       1       1       3       2
       1       1       3       2       1       1       3       2       1       1
       3       2       1       1       3       2       1       1       3       2
       1       1       3       2       1       1       3       2       1       1
       3       2       1       1       3       2       1       1       3       2
       1       1       3       2       1       1       3       2       1       1
       3       2       1       1       3       2       1       1       3       2
       1       1       3       2       1       1       3       2       1       1
       3       2       1       1       3       2       1       1       3       2
       1       1       3       2       1       1       3       2       1       1
       3       2       1       1       3       2       1       1       3       2
       1       1       3       2       1       1       3       2       1       1
       3       2       1       1       3       2       1       1       3       2
       1       1       3       2       1       1       3       2       1       1
       3       2       1       1       3       2       1       1       3       2
       1       1       3       2       1       1       3       2       1       1
       3       2       1       1       3       2       1       1       3       2
       1       1       3       2       1       1       3       2       1       1
       3       2       1       1       3       2       1       1       3       2
       1       1       3       2       1       1       3       2       1       1
       3       2       1       1       3       2       1       1       3       2
       1       1       3       2       1       1       3       2       1       1
       3       2       1       1       3       2       1       1       3       2
       1       1       3       2       1       1       3       2       1       1
       3       2       1       1       3       2       1       1       3       2
       1       1       3       2       1       1       3       2       1       1
       3       2       1       1       3       2       1       1       3       2
       1       1       3       2       1       1       3       2       1       1
       3       2       1       1       3       2       1       1       3       2
       1       1       3       2       1       1       3       2       1       1
       3       2       1       1       3       2       1       1       3       2
       1       1       3       2       1       1       3       2       1       1
       3       2       1       1       3       2       1       1       3       2
       1       1       3       2       1       1       3       2       1       1
       3       2       1       1       3       2       1       1       3       2
       1       1       3       2       1       1       3       2       1       1
       3       2       1       1       3       2       1       1       3       2
       1       1       3       2       1       1       3       2       1       1
       3       2       1       1       3       2       1       1       3       2
       1       1       3       2       1       1       3       2       1       1
       3       2       1       1       3       2       1       1       3       2
       1       1       3       2       1       1       3       2       1       1
       3       2       1       1       3       2       1       1       3       2
       1       1       3       2       1       1       3       2       1       1
       3       2       1       1       3       2       1       1       3       2
       1       1       3       2       1       1       3       2       1       1
       3       2       1       1       3       2       1       1       3       2
       1       1       3       2       1       1       3       2       1       1
       3       2       1       1       3       2       1       1       3       2
       1       1       3       2       1       1       3       2       1       1
       3       2       1       1       3       2       1       1       3       2
       1       1       3       2       1       1       3       2       1       1
       3       2       1       1       3       2       1       1       3       2
       1       1       3       2       1       1       3       2       1       1
       3       2       1       1       3       2       1       1       3       2
       1       1       3       2       1       1       3       2       1       1
       3       2       1       1       3       2       1       1       3       2
       1       1       3       2       1       1       3       2       1       1
       3       2       1       1       3       2       1       1       3       2
       1       1       3       2       1       1       3       2       1       1
       3       2       1       1       3       2       1       1       3       2
       1       1       3       2       1       1       3       2       1       1
       3       2       1       1       3       2       1       1       3       2
       1       1       3       2       1       1       3       2       1       1
       3       2       1       1       3       2       1       1       3       2
       1       1       3       2       1       1       3       2       1       1
       3       2       1       1       3       2       1       1       3       2
       1       1       3       2       1       1       3       2       1       1
       3       2       1       1       3       2       1       1       3       2
       1       1       3       2       1       1       3       2       1       1
       3       2       1       1       3       2       1       1       3       2
       1       1       3       2       1       1       3       2       1       1
       3       2       1       1       3       2       1       1       3       2
       1       1       3       2       1       1       3       2       1       1
       3       2       1       1       3       2       1       1       3       2
       1       1       3       2       1       1       3       2       1       1
       3       2       1       1       3       2       1       1       3       2
       1       1       3       2       1       1       3       2       1       1
       3       2       1       1       3       2       1       1       3       2
       1       1       3       2       1       1       3       2       1       1
       3       2       1       1       3       2       1       1       3       2
       1       1       3       2       1       1       3       2       1       1
       3       2       1       1       3       2       1       1       3       2
       1       1       3       2       1       1       3       2       1       1
       3       2       1       1       3       2       1       1       3       2
       1       1       3       2       1       1       3       2       1       1
       3       2       1       1       3       2       1       1       3       2
       1       1       3       2       1       1       3       2       1       1
       3       2       1       1       3       2       1       1       3       2
       1       1       3       2       1       1       3       2       1       1
       3       2       1       1       3       2       1       1       3       2
       1       1       3       2       1       1       3       2       1       1
       3       2       1       1       3       2       1       1       3       2
       1       1       3       2       1       1       3       2       1       1
       3       2       1       1       3       2       1       1       3       2
       1       1       3       2       1       1       3       2       1       1
       3       2       1       1       3       2       1       1       3       2
       1       1       3       2       1       1       3       2       1       1
       3       2       1       1       3       2       1       1       3       2
       1       1       3       2       1       1       3       2       1       1
       3       2       1       1       3       2       1       1       3       2
       1       1       3       2       1       1       3       2       1       1
       3       2       1       1       3       2       1       1       3       2
       1       1       3       2       1       1       3       2       1       1
       3       2       1       1       3       2       1       1       3       2
       1       1       3       2       1       1       3       2       1       1
       3       2       1       1       3       2       1       1       3       2
       1       1       3       2       1       1       3       2       1       1
       3       2       1       1       3       2       1       1       3       2
       1       1       3       2       1       1       3       2       1       1
       3       2       1       1       3       2       1       1       3       2
       1       1       3       2       1       1       3       2       1       1
       3       2       1       1       3       2       1       1       3       2
       1       1       3       2       1       1       3       2       1       1
       3       2       1       1       3       2       1       1       3       2
       1       1       3       2       1       1       3       2       1       1
       3       2       1       1       3       2       1       1       3       2
       1       1       3       2       1       1       3       2       1       1
       3       2       1       1       3       2       1       1       3       2
       1       1       3       2       1       1       3       2       1       1
       3       2       1       1       3       2       1       1       3       2
       1       1       3       2       1       1       3       2       1       1
       3       2       1       1       3       2       1       1       3       2
       1       1       3       2       1       1       3       2       1       1
       3       2       1       1       3       2       1       1       3       2
       1       1       3       2       1       1       3       2       1       1
       3       2       1       1       3       2       1       1       3       2
       1       1       3       2       1       1       3       2       1       1
       3       2       1       1       3       2       1       1       3       2
       1       1       3       2       1       1       3       2       1       1
       3       2       1       1       3       2       1       1       3       2
       1       1       3       2       1       1       3       2       1       1
       3       2       1       1       3       2       1       1       3       2
       1       1       3       2       1       1       3       2       1       1
       3       2       1       1       3       2       1       1       3       2
       1       1       3       2       1       1       3       2       1       1
       3       2       1       1       3       2       1       1       3       2
       1       1       3       2       1       1       3       2       1       1
       3       2       1       1       3       2       1       1       3       2
       1       1       3       2       1       1       3       2       1       1
       3       2       1       1       3       2       1       1       3       2
       1       1       3       2       1       1       3       2       1       1
       3       2       1       1       3       2       1       1       3       2
       1       1       3       2       1       1       3       2       1       1
       3       2       1       1       3       2       1       1       3       2
       1       1       3       2       1       1       3       2       1       1
       3       2       1       1       3       2       1       1       3       2
       1       1       3       2       1       1       3       2       1       1
       3       2       1       1       3       2       1       1       3       2
       1       1       3       2       1       1       3       2       1       1
       3       2       1       1       3       2       1       1       3       2
       1       1       3       2       1       1       3       2       1       1
       3       2       1       1       3       2       1       1       3       2
       1       1       3       2       1       1       3       2       1       1
       3       2       1       1       3       2       1       1       3       2
       1       1       3       2       1       1       3       2       1       1
       3       2       1       1       3       2       1       1       3       2
       1       1       3       2       1       1       3       2       1       1
       3       2       1       1       3       2       1       1       3       2
       1       1       3       2       1       1       3       2       1       1
       3       2       1       1       3       2       1       1       3       2
       1       1       3       2       1       1       3       2       1       1
       3       2       1       1       3       2       1       1       3       2
       1       1       3       2       1       1       3       2       1       1
       3       2       1       1       3       2       1       1       3       2
       1       1       3       2       1       1       3       2       1       1
       3       2       1       1       3       2       1       1       3       2
       1       1       3       2       1       1       3       2       1       1
       3       2       1       1       3       2       1       1       3       2
       1       1       3       2       1       1       3       2       1       1
       3       2       1       1       3       2       1       1       3       2
       1       1       3       2       1       1       3       2       1       1
       3       2       1       1       3       2       1       1       3       2
       1       1       3       2       1       1       3       2       1       1
       3       2       1       1       3       2       1       1       3       2
       1       1       3       2       1       1       3       2       1       1
       3       2       1       1       3       2       1       1       3       2
       1       1       3       2       1       1       3       2       1       1
       3       2       1       1       3       2       1       1       3       2
       1       1       3       2       1       1       3       2       1       1
       3       2       1       1       3       2       1       1       3       2
       1       1       3       2       1       1       3       2       1       1
       3       2       1       1       3       2       1       1       3       2
       1       1       3       2       1       1       3       2       1       1
       3       2       1       1       3       2       1       1       3       2
       1       1       3       2       1       1       3       2       1       1
       3       2       1       1       3       2       1       1       3       2
       1       1       3       2       1       1       3       2       1       1
       3       2       1       1       3       2       1       1       3       2
       1       1       3       2       1       1       3       2       1       1
       3       2       1       1       3       2       1       1       3       2
       1       1       3       2       1       1       3       2       1       1
       3       2       1       1       3       2       1       1       3       2
       1       1       3       2       1       1       3       2       1       1
       3       2       1       1       3       2       1       1       3       2
       1       1       3       2       1       1       3       2       1       1
       3       2       1       1       3       2       1       1       3       2
       1       1       3       2       1       1       3       2       1       1
       3       2       1       1       3       2       1       1       3       2
       1       1       3       2       1       1       3       2       1       1
       3       2       1       1       3       2       1       1       3       2
       1       1       3       2       1       1       3       2       1       1
       3       2       1       1       3       2       1       1       3       2
       1       1       3       2       1       1       3       2       1       1
       3       2       1       1       3       2       1       1       3       2
       1       1       3       2       1       1       3       2       1       1
       3       2       1       1       3       2       1       1       3       2
       1       1       3       2       1       1       3       2       1       1
       3       2       1       1       3       2       1       1       3       2
       1       1       3       2       1       1       3       2       1       1
       3       2       1       1       3       2       1       1       3       2
       1       1       3       2       1       1       3       2       1       1
       3       2       1       1       3       2       1       1       3       2
       1       1       3       2       1       1       3       2       1       1
       3       2       1       1       3       2       1       1       3       2
       1       1       3       2       1       1       3       2       1       1
       3       2       1       1       3       2       1       1       3       2
       1       1       3       2       1       1       3       2       1       1
       3       2       1       1       3       2       1       1       3       2
       1       1       3       2       1       1       3       2       1       1
       3       2       1       1       3       2       1       1       3       2
       1       1       3       2       1       1       3       2       1       1
       3       2       1       1       3       2       1       1       3       2
       1       1       3       2       1       1       3       2       1       1
       3       2       1       1       3       2       1       1       3       2
       1       1       3       2       1       1       3       2       1       1
       3       2       1       1       3       2       1       1       3       2
       1       1       3       2       1       1       3       2       1       1
       3       2       1       1       3       2       1       1       3       2
       1       1       3       2       1       1       3       2       1       1
       3       2       1       1       3       2       1       1       3       2
       1       1       3       2       1       1       3       2       1       1
       3       2       1       1       3       2       1       1       3       2
       1       1       3       2       1       1       3       2       1       1
       3       2       1       1       3       2       1       1       3       2
       1       1       3       2       1       1       3       2       1       1
       3       2       1       1       3       2       1       1       3       2
       1       1       3       2       1       1       3       2       1       1
       3       2       1       1       3       2       1       1       3       2
       1       1       3       2       1       1       3       2       1       1
       3       2       1       1       3       2       1       1       3       2
       1       1       3       2       1       1       3       2       1       1
       3       2       1       1       3       2       1       1       3       2
       1       1       3       2       1       1       3       2       1       1
       3       2       1       1       3       2       1       1       3       2
       1       1       3       2       1       1       3       2       1       1
       3       2       1       1       3       2       1       1       3       2
       1       1       3       2       1       1       3       2       1       1
       3       2       1       1       3       2       1       1       3       2
       1       1       3       2       1       1       3       2       1       1
       3       2       1       1       3       2       1       1       3       2
       1       1       3       2       1       1       3       2       1       1
       3       2       1       1       3       2       1       1       3       2
       1       1       3       2       1       1       3       2       1       1
       3       2       1       1       3       2       1       1       3       2
       1       1       3       2       1       1       3       2       1       1
       3       2       1       1       3       2       1       1       3       2
       1       1       3       2       1       1       3       2       1       1
       3       2       1       1       3       2       1       1       3       2
       1       1       3       2       1       1       3       2       1       1
       3       2       1       1       3       2       1       1       3       2
       1       1       3       2       1       1       3       2       1       1
       3       2       1       1       3       2       1       1       3       2
       1       1       3       2       1       1       3       2       1       1
       3       2       1       1       3       2       1       1       3       2
       1       1       3       2       1       1       3       2       1       1
       3       2       1       1       3       2       1       1       3       2
       1       1       3       2       1       1       3       2       1       1
       3       2       1       1       3       2       1       1       3       2
       1       1       3       2       1       1       3       2       1       1
       3       2       1       1       3       2       1       1       3       2
       1       1       3       2       1       1       3       2       1       1
       3       2       1       1       3       2       1       1       3       2
       1       1       3       2       1       1       3       2       1       1
       3       2       1       1       3       2       1       1       3       2
       1       1       3       2       1       1       3       2       1       1
       3       2       1       1       3       2       1       1       3       2
       1       1       3       2       1       1       3       2       1       1
       3       2       1       1       3       2       1       1       3       2
       1       1       3       2       1       1       3       2       1       1
       3       2       1       1       3       2       1       1       3       2
       1       1       3       2       1       1       3       2       1       1
       3       2       1       1       3       2       1       1       3       2
       1       1       3       2       1       1       3       2       1       1
       3       2       1       1       3       2       1       1       3       2
       1       1       3       2       1       1       3       2       1       1
       3       2       1       1       3       2       1       1       3       2
       1       1       3       2       1       1       3       2       1       1
       3       2       1       1       3       2       1       1       3       2
       1       1       3       2       1       1       3       2       1       1
       3       2       1       1       3       2       1       1       3       2
       1       1       3       2       1       1       3       2       1       1
       3       2       1       1       3       2       1       1       3       2
       1       1       3       2       1       1       3       2       1       1
       3       2       1       1       3       2       1       1       3       2
       1       1       3       2       1       1       3       2       1       1
       3       2       1       1       3       2       1       1       3       2
       1       1       3       2       1       1       3       2       1       1
       3       2       1       1       3       2       1       1       3       2
       1       1       3       2       1       1       3       2       1       1
       3       2       1       1       3       2       1       1       3       2
       1       1       3       2       1       1       3       2       1       1
       3       2       1       1       3       2       1       1       3       2
       1       1       3       2       1       1       3       2       1       1
       3       2       1       1       3       2       1       1       3       2
       1       1       3       2       1       1       3       2       1       1
       3       2       1       1       3       2       1       1       3       2
       1       1       3       2       1       1       3       2       1       1
       3       2       1       1       3       2       1       1       3       2
       1       1       3       2       1       1       3       2       1       1
       3       2       1       1       3       2       1       1       3       2
       1       1       3       2       1       1       3       2       1       1
       3       2       1       1       3       2       1       1       3       2
       1       1       3       2       1       1       3       2       1       1
       3       2       1       1       3       2       1       1       3       2
       1       1       3       2       1       1       3       2       1       1
       3       2       1       1       3       2       1       1       3       2
       1       1       3       2       1       1       3       2       1       1
       3       2       1       1       3       2       1       1       3       2
       1       1       3       2       1       1       3       2       1       1
       3       2       1       1       3       2       1       1       3       2
       1       1       3       2       1       1       3       2       1       1
       3       2       1       1       3       2       1       1       3       2
       1       1       3       2       1       1       3       2       1       1
       3       2       1       1       3       2       1       1       3       2
       1       1       3       2       1       1       3       2       1       1
       3       2       1       1       3       2       1       1       3       2
       1       1       3       2       1       1       3       2       1       1
       3       2       1       1       3       2       1       1       3       2
       1       1       3       2       1       1       3       2       1       1
       3       2       1       1       3       2       1       1       3       2
       1       1       3       2       1       1       3       2       1       1
       3       2       1       1       3       2       1       1       3       2
       1       1       3       2       1       1       3       2       1       1
       3       2       1       1       3       2       1       1       3       2
       1       1       3       2       1       1       3       2       1       1
       3       2       1       1       3       2       1       1       3       2
       1       1       3       2       1       1       3       2       1       1
       3       2       1       1       3       2       1       1       3       2
       1       1       3       2       1       1       3       2       1       1
       3       2       1       1       3       2       1       1       3       2
       1       1       3       2       1       1       3       2       1       1
       3       2       1       1       3       2       1       1       3       2
       1       1       3       2       1       1       3       2       1       1
       3       2       1       1       3       2       1       1       3       2
       1       1       3       2       1       1       3       2       1       1
       3       2       1       1       3       2       1       1       3       2
       1       1       3       2       1       1       3       2       1       1
       3       2       1       1       3       2       1       1       3       2
       1       1       3       2       1       1       3       2       1       1
       3       2       1       1       3       2       1       1       3       2
       1       1       3       2       1       1       3       2       1       1
       3       2       1       1       3       2       1       1       3       2
       1       1       3       2       1       1       3       2       1       1
       3       2       1       1       3       2       1       1       3       2
       1       1       3       2       1       1       3       2       1       1
       3       2       1       1       3       2       1       1       3       2
       1       1       3       2       1       1       3       2       1       1
       3       2       1       1       3       2       1       1       3       2
       1       1       3       2       1       1       3       2       1       1
       3       2       1       1       3       2       1       1       3       2
       1       1       3       2       1       1       3       2       1       1
       3       2       1       1       3       2       1       1       3       2
       1       1       3       2       1       1       3       2       1       1
       3       2       1       1       3       2       1       1       3       2
       1       1       3       2       1       1       3       2       1       1
       3       2       1       1       3       2       1       1       3       2
       1       1       3       2       1       1       3       2       1       1
       3       2       1       1       3       2       1       1       3       2
       1       1       3       2       1       1       3       2       1       1
       3       2       1       1       3       2       1       1       3       2
       1       1       3       2       1       1       3       2       1       1
       3       2       1       1       3       2       1       1       3       2
       1       1       3       2       1       1       3       2       1       1
       3       2       1       1       3       2       1       1       3       2
       1       1       3       2       1       1       3       2       1       1
       3       2       1       1       3       2       1       1       3       2
       1       1       3       2       1       1       3       2       1       1
       3       2       1       1       3       2       1       1       3       2
       1       1       3       2       1       1       3       2       1       1
       3       2       1       1       3       2       1       1       3       2
       1       1       3       2       1       1       3       2       1       1
       3       2       1       1       3       2       1       1       3       2
       1       1       3       2       1       1       3       2       1       1
       3       2       1       1       3       2       1       1       3       2
       1       1       3       2       1       1       3       2       1       1
       3       2       1       1       3       2       1       1       3       2
       1       1       3       2       1       1       3       2       1       1
       3       2       1       1       3       2       1       1       3       2
       1       1       3       2       1       1       3       2       1       1
       3       2       1       1       3       2       1       1       3       2
       1       1       3       2       1       1       3       2       1       1
       3       2       1       1       3       2       1       1       3       2
       1       1       3       2       1       1       3       2       1       1
       3       2       1       1       3       2       1       1       3       2
       1       1       3       2       1       1       3       2       1       1
       3       2       1       1       3       2       1       1       3       2
       1       1       3       2       1       1       3       2       1       1
       3       2       1       1       3       2       1       1       3       2
       1       1       3       2       1       1       3       2       1       1
       3       2       1       1       3       2       1       1       3       2
       1       1       3       2       1       1       3       2       1       1
       3       2       1       1       3       2       1       1       3       2
       1       1       3       2       1       1       3       2       1       1
       3       2       1       1       3       2       1       1       3       2
       1       1       3       2       1       1       3       2       1       1
       3       2       1       1       3       2       1       1       3       2
       1       1       3       2       1       1       3       2       1       1
       3       2       1       1       3       2       1       1       3       2
       1       1       3       2       1       1       3       2       1       1
       3       2       1       1       3       2       1       1       3       2
       1       1       3       2       1       1       3       2       1       1
       3       2       1       1       3       2       1       1       3       2
       1       1       3       2       1       1       3       2       1       1
       3       2       1       1       3       2       1       1       3       2
       1       1       3       2       1       1       3       2       1       1
       3       2       1       1       3       2       1       1       3       2
       1       1       3       2       1       1       3       2       1       1
       3       2       1       1       3       2       1       1       3       2
       1       1       3       2       1       1       3       2       1       1
       3       2       1       1       3       2       1       1       3       2
       1       1       3       2       1       1       3       2       1       1
       3       2       1       1       3       2       1       1       3       2
       1       1       3       2       1       1       3       2       1       1
       3       2       1       1       3       2       1       1       3       2
       1       1       3       2       1       1       3       2       1       1
       3       2       1       1       3       2       1       1       3       2
       1       1       3       2       1       1       3       2       1       1
       3       2       1       1       3       2       1       1       3       2
       1       1       3       2       1       1       3       2       1       1
       3       2       1       1       3       2       1       1       3       2
       1       1       3       2       1       1       3       2       1       1
       3       2       1       1       3       2       1       1       3       2
       1       1       3       2       1       1       3       2       1       1
       3       2       1       1       3       2       1       1       3       2
       1       1       3       2       1       1       3       2       1       1
       3       2       1       1       3       2       1       1       3       2
       1       1       3       2       1       1       3       2       1       1
       3       2       1       1       3       2       1       1       3       2
       1       1       3       2       1       1       3       2       1       1
       3       2       1       1       3       2       1       1       3       2
       1       1       3       2       1       1       3       2       1       1
       3       2       1       1       3       2       1       1       3       2
       1       1       3       2       1       1       3       2       1       1
       3       2       1       1       3       2       1       1       3       2
       1       1       3       2       1       1       3       2       1       1
       3       2       1       1       3       2       1       1       3       2
       1       1       3       2       1       1       3       2       1       1
       3       2       1       1       3       2       1       1       3       2
       1       1       3       2       1       1       3       2       1       1
       3       2       1       1       3       2       1       1       3       2
       1       1       3       2       1       1       3       2       1       1
       3       2       1       1       3       2       1       1       3       2
       1       1       3       2       1       1       3       2       1       1
       3       2       1       1       3       2       1       1       3       2
       1       1       3       2       1       1       3       2       1       1
       3       2       1       1       3       2       1       1       3       2
       1       1       3       2       1       1       3       2       1       1
       3       2       1       1       3       2       1       1       3       2
       1       1       3       2       1       1       3       2       1       1
       3       2       1       1       3       2       1       1       3       2
       1       1       3       2       1       1       3       2       1       1
       3       2       1       1       3       2       1       1       3       2
       1       1       3       2       1       1       3       2       1       1
       3       2       1       1       3       2       1       1       3       2
       1       1       3       2       1       1       3       2       1       1
       3       2       1       1       3       2       1       1       3       2
       1       1       3       2       1       1       3       2       1       1
       3       2       1       1       3       2       1       1       3       2
       1       1       3       2       1       1       3       2       1       1
       3       2       1       1       3       2       1       1       3       2
       1       1       3       2       1       1       3       2       1       1
       3       2       1       1       3       2       1       1       3       2
       1       1       3       2       1       1       3       2       1       1
       3       2       1       1       3       2       1       1       3       2
       1       1       3       2       1       1       3       2       1       1
       3       2       1       1       3       2       1       1       3       2
       1       1       3       2       1       1       3       2       1       1
       3       2       1       1       3       2       1       1       3       2
       1       1       3       2       1       1       3       2       1       1
       3       2       1       1       3       2       1       1       3       2
       1       1       3       2       1       1       3       2       1       1
       3       2       1       1       3       2       1       1       3       2
       1       1       3       2       1       1       3       2       1       1
       3       2       1       1       3       2       1       1       3       2
       1       1       3       2       1       1       3       2       1       1
       3       2       1       1       3       2       1       1       3       2
       1       1       3       2       1       1       3       2       1       1
       3       2       1       1       3       2       1       1       3       2
       1       1       3       2       1       1       3       2       1       1
       3       2       1       1       3       2       1       1       3       2
       1       1       3       2       1       1       3       2       1       1
       3       2       1       1       3       2       1       1       3       2
       1       1       3       2       1       1       3       2       1       1
       3       2       1       1       3       2       1       1       3       2
       1       1       3       2       1       1       3       2       1       1
       3       2       1       1       3       2       1       1       3       2
       1       1       3       2       1       1       3       2       1       1
       3       2       1       1       3       2       1       1       3       2
       1       1       3       2       1       1       3       2       1       1
       3       2       1       1       3       2       1       1       3       2
       1       1       3       2       1       1       3       2       1       1
       3       2       1       1       3       2       1       1       3       2
       1       1       3       2       1       1       3       2       1       1
       3       2       1       1       3       2       1       1       3       2
       1       1       3       2       1       1       3       2       1       1
       3       2       1       1       3       2       1       1       3       2
       1       1       3       2       1       1       3       2       1       1
       3       2       1       1       3       2       1       1       3       2
       1       1       3       2       1       1       3       2       1       1
       3       2       1       1       3       2       1       1       3       2
       1       1       3       2       1       1       3       2       1       1
       3       2       1       1       3       2       1       1       3       2
       1       1       3       2       1       1       3       2       1       1
       3       2       1       1       3       2       1       1       3       2
       1       1       3       2       1       1       3       2       1       1
       3       2       1       1       3       2       1       1       3       2
       1       1       3       2       1       1       3       2       1       1
       3       2       1       1       3       2       1       1       3       2
       1       1       3       2       1       1       3       2       1       1
       3       2       1       1       3       2       1       1       3       2
       1       1       3       2       1       1       3       2       1       1
       3       2       1       1       3       2       1       1       3       2
       1       1       3       2       1       1       3       2       1       1
       3       2       1       1       3       2       1       1       3       2
       1       1       3       2       1       1       3       2       1       1
       3       2       1       1       3       2       1       1       3       2
       1       1       3       2       1       1       3       2       1       1
       3       2       1       1       3       2       1       1       3       2
       1       1       3       2       1       1       3       2       1       1
       3       2       1       1       3       2       1       1       3       2
       1       1       3       2       1       1       3       2       1       1
       3       2       1       1       3       2       1       1       3       2
       1       1       3       2       1       1       3       2       1       1
       3       2       1       1       3       2       1       1       3       2
       1       1       3       2       1       1       3       2       1       1
       3       2       1       1       3       2       1       1       3       2
       1       1       3       2       1       1       3       2       1       1
       3       2       1       1       3       2       1       1       3       2
       1       1       3       2       1       1       3       2       1       1
       3       2       1       1       3       2       1       1       3       2
       1       1       3       2       1       1       3       2       1       1
       3       2       1       1       3       2       1       1       3       2
       1       1       3       2       1       1       3       2       1       1
       3       2       1       1       3       2       1       1       3       2
       1       1       3       2       1       1       3       2       1       1
       3       2       1       1       3       2       1       1       3       2
       1       1       3       2       1       1       3       2       1       1
       3       2       1       1       3       2       1       1       3       2
       1       1       3       2       1       1       3       2       1       1
       3       2       1       1       3       2       1       1       3       2
       1       1       3       2       1       1       3       2       1       1
       3       2       1       1       3       2       1       1       3       2
       1       1       3       2       1       1       3       2       1       1
       3       2       1       1       3       2       1       1       3       2
       1       1       3       2       1       1       3       2       1       1
       3       2       1       1       3       2       1       1       3       2
       1       1       3       2       1       1       3       2       1       1
       3       2       1       1       3       2       1       1       3       2
       1       1       3       2       1       1       3       2       1       1
       3       2       1       1       3       2       1       1       3       2
       1       1       3       2       1       1       3       2       1       1
       3       2       1       1       3       2       1       1       3       2
       1       1       3       2       1       1       3       2       1       1
       3       2       1       1       3       2       1       1       3       2
       1       1       3       2       1       1       3       2       1       1
       3       2       1       1       3       2       1       1       3       2
       1       1       3       2       1       1       3       2       1       1
       3       2       1       1       3       2       1       1       3       2
       1       1       3       2       1       1       3       2       1       1
       3       2       1       1       3       2       1       1       3       2
       1       1       3       2       1       1       3       2       1       1
       3       2       1       1       3       2       1       1       3       2
       1       1       3       2       1       1       3       2       1       1
       3       2       1       1       3       2       1       1       3       2
       1       1       3       2       1       1       3       2       1       1
       3       2       1       1       3       2       1       1       3       2
       1       1       3       2       1       1       3       2       1       1
       3       2       1       1       3       2       1       1       3       2
       1       1       3       2       1       1       3       2       1       1
       3       2       1       1       3       2       1       1       3       2
       1       1       3       2       1       1       3       2       1       1
       3       2       1       1       3       2       1       1       3       2
       1       1       3       2       1       1       3       2       1       1
       3       2       1       1       3       2       1       1       3       2
       1       1       3       2       1       1       3       2       1       1
       3       2       1       1       3       2       1       1       3       2
       1       1
%FLAG NONBONDED_PARM_INDEX                                                      
%FORMAT(10I8)                                                                   
       1       2       4       7      11      16      22      29      37      46
      56      67       2       3       5       8      12      17      23      30
      38      47      57      68       4       5       6       9      13      18
      24      31      39      48      58      69       7       8       9      10
      14      19      25      32      40      49      59      70      11      12
      13      14      15      20      26      33      41      50      60      71
      16      17      18      19      20      21      27      34      42      51
      61      72      22      23      24      25      26      27      28      35
      43      52      62      73      29      30      31      32      33      34
      35      36      44      53      63      74      37      38      39      40
      41      42      43      44      45      54      64      75      46      47
      48      49      50      51      52      53      54      55      65      76
      56      57      58      59      60      61      62      63      64      65
      66      77      67      68      69      70      71      72      73      74
      75      76      77      78
%FLAG RESIDUE_LABEL                                                             
%FORMAT(20a4)                                                                   
ACE TYR ALA GLY PHE NME WAT WAT WAT WAT WAT WAT WAT WAT WAT WAT WAT WAT WAT WAT 
WAT WAT WAT WAT WAT WAT WAT WAT WAT WAT WAT WAT WAT WAT WAT WAT WAT WAT WAT WAT 
WAT WAT WAT WAT WAT WAT WAT WAT WAT WAT WAT WAT WAT WAT WAT WAT WAT WAT WAT WAT 
WAT WAT WAT WAT WAT WAT WAT WAT WAT WAT WAT WAT WAT WAT WAT WAT WAT WAT WAT WAT 
WAT WAT WAT WAT WAT WAT WAT WAT WAT WAT WAT WAT WAT WAT WAT WAT WAT WAT WAT WAT 
WAT WAT WAT WAT WAT WAT WAT WAT WAT WAT WAT WAT WAT WAT WAT WAT WAT WAT WAT WAT 
WAT WAT WAT WAT WAT WAT WAT WAT WAT WAT WAT WAT WAT WAT WAT WAT WAT WAT WAT WAT 
WAT WAT WAT WAT WAT WAT WAT WAT WAT WAT WAT WAT WAT WAT WAT WAT WAT WAT WAT WAT 
WAT WAT WAT WAT WAT WAT WAT WAT WAT WAT WAT WAT WAT WAT WAT WAT WAT WAT WAT WAT 
WAT WAT WAT WAT WAT WAT WAT WAT WAT WAT WAT WAT WAT WAT WAT WAT WAT WAT WAT WAT 
WAT WAT WAT WAT WAT WAT WAT WAT WAT WAT WAT WAT WAT WAT WAT WAT WAT WAT WAT WAT 
WAT WAT WAT WAT WAT WAT WAT WAT WAT WAT WAT WAT WAT WAT WAT WAT WAT WAT WAT WAT 
WAT WAT WAT WAT WAT WAT WAT WAT WAT WAT WAT WAT WAT WAT WAT WAT WAT WAT WAT WAT 
WAT WAT WAT WAT WAT WAT WAT WAT WAT WAT WAT WAT WAT WAT WAT WAT WAT WAT WAT WAT 
WAT WAT WAT WAT WAT WAT WAT WAT WAT WAT WAT WAT WAT WAT WAT WAT WAT WAT WAT WAT 
WAT WAT WAT WAT WAT WAT WAT WAT WAT WAT WAT WAT WAT WAT WAT WAT WAT WAT WAT WAT 
WAT WAT WAT WAT WAT WAT WAT WAT WAT WAT WAT WAT WAT WAT WAT WAT WAT WAT WAT WAT 
WAT WAT WAT WAT WAT WAT WAT WAT WAT WAT WAT WAT WAT WAT WAT WAT WAT WAT WAT WAT 
WAT WAT WAT WAT WAT WAT WAT WAT WAT WAT WAT WAT WAT WAT WAT WAT WAT WAT WAT WAT 
WAT WAT WAT WAT WAT WAT WAT WAT WAT WAT WAT WAT WAT WAT WAT WAT WAT WAT WAT WAT 
WAT WAT WAT WAT WAT WAT WAT WAT WAT WAT WAT WAT WAT WAT WAT WAT WAT WAT WAT WAT 
WAT WAT WAT WAT WAT WAT WAT WAT WAT WAT WAT WAT WAT WAT WAT WAT WAT WAT WAT WAT 
WAT WAT WAT WAT WAT WAT WAT WAT WAT WAT WAT WAT WAT WAT WAT WAT WAT WAT WAT WAT 
WAT WAT WAT WAT WAT WAT WAT WAT WAT WAT WAT WAT WAT WAT WAT WAT WAT WAT WAT WAT 
WAT WAT WAT WAT WAT WAT WAT WAT WAT WAT WAT WAT WAT WAT WAT WAT WAT WAT WAT WAT 
WAT WAT WAT WAT WAT WAT WAT WAT WAT WAT WAT WAT WAT WAT WAT WAT WAT WAT WAT WAT 
WAT WAT WAT WAT WAT WAT WAT WAT WAT WAT WAT WAT WAT WAT WAT WAT WAT WAT WAT WAT 
WAT WAT WAT WAT WAT WAT WAT WAT WAT WAT WAT WAT WAT WAT WAT WAT WAT WAT WAT WAT 
WAT WAT WAT WAT WAT WAT WAT WAT WAT WAT WAT WAT WAT WAT WAT WAT WAT WAT WAT WAT 
WAT WAT WAT WAT WAT WAT WAT WAT WAT WAT WAT WAT WAT WAT WAT WAT WAT WAT WAT WAT 
WAT WAT WAT WAT WAT WAT WAT WAT WAT WAT WAT WAT WAT WAT WAT WAT WAT WAT WAT WAT 
WAT WAT WAT WAT WAT WAT WAT WAT WAT WAT WAT WAT WAT WAT WAT WAT WAT WAT WAT WAT 
WAT WAT WAT WAT WAT WAT WAT WAT WAT WAT WAT WAT WAT WAT WAT WAT WAT WAT WAT WAT 
WAT WAT WAT WAT WAT WAT WAT WAT WAT WAT WAT WAT WAT WAT WAT WAT WAT WAT WAT WAT 
WAT WAT WAT WAT WAT WAT WAT WAT WAT WAT WAT WAT WAT WAT WAT WAT WAT WAT WAT WAT 
WAT WAT WAT WAT WAT WAT WAT WAT WAT WAT WAT WAT WAT WAT WAT WAT WAT WAT WAT WAT 
WAT WAT WAT WAT WAT WAT WAT WAT WAT WAT WAT WAT WAT WAT WAT WAT WAT WAT WAT WAT 
WAT WAT WAT WAT WAT WAT WAT WAT WAT WAT WAT WAT WAT WAT WAT WAT WAT WAT WAT WAT 
WAT WAT WAT WAT WAT WAT WAT WAT WAT WAT WAT WAT WAT WAT WAT WAT WAT WAT WAT WAT 
WAT WAT WAT WAT WAT WAT WAT WAT WAT WAT WAT WAT WAT WAT WAT WAT WAT WAT WAT WAT 
WAT WAT WAT WAT WAT WAT WAT WAT WAT WAT WAT WAT WAT WAT WAT WAT WAT WAT WAT WAT 
WAT WAT WAT WAT WAT WAT WAT WAT WAT WAT WAT WAT WAT WAT WAT WAT WAT WAT WAT WAT 
WAT WAT WAT WAT WAT WAT WAT WAT WAT WAT WAT WAT WAT WAT WAT WAT WAT WAT WAT WAT 
WAT WAT WAT WAT WAT WAT WAT WAT WAT WAT WAT WAT WAT WAT WAT WAT WAT WAT WAT WAT 
WAT WAT WAT WAT WAT WAT WAT WAT WAT WAT WAT WAT WAT WAT WAT WAT WAT WAT WAT WAT 
WAT WAT WAT WAT WAT WAT WAT WAT WAT WAT WAT WAT WAT WAT WAT WAT WAT WAT WAT WAT 
WAT WAT WAT WAT WAT WAT WAT WAT WAT WAT WAT WAT WAT WAT WAT WAT WAT WAT WAT WAT 
WAT WAT WAT WAT WAT WAT WAT WAT WAT WAT WAT WAT WAT WAT WAT WAT WAT WAT WAT WAT 
WAT WAT WAT WAT WAT WAT WAT WAT WAT WAT WAT WAT WAT WAT WAT WAT WAT WAT WAT WAT 
WAT WAT WAT WAT WAT WAT WAT WAT WAT WAT WAT WAT WAT WAT WAT WAT WAT WAT WAT WAT 
WAT WAT WAT WAT WAT WAT WAT WAT WAT WAT WAT WAT WAT WAT WAT WAT WAT WAT WAT WAT 
WAT WAT WAT WAT WAT WAT WAT WAT WAT WAT WAT WAT WAT WAT WAT WAT WAT WAT WAT WAT 
WAT WAT WAT WAT WAT WAT WAT WAT WAT WAT WAT WAT WAT WAT WAT WAT WAT WAT WAT WAT 
WAT WAT WAT WAT WAT WAT WAT WAT WAT WAT WAT WAT WAT WAT WAT WAT WAT WAT WAT WAT 
WAT WAT WAT WAT WAT WAT WAT WAT WAT WAT WAT WAT WAT WAT WAT WAT WAT WAT WAT WAT 
WAT WAT WAT WAT WAT WAT WAT WAT WAT WAT WAT WAT WAT WAT WAT WAT WAT WAT WAT WAT 
WAT WAT WAT WAT WAT WAT WAT WAT WAT WAT WAT WAT WAT WAT WAT WAT WAT WAT WAT WAT 
WAT WAT WAT WAT WAT WAT WAT WAT WAT WAT WAT WAT WAT WAT WAT WAT WAT WAT WAT WAT 
WAT WAT WAT WAT WAT WAT WAT WAT WAT WAT WAT WAT WAT WAT WAT WAT WAT WAT WAT WAT 
WAT WAT WAT WAT WAT WAT WAT WAT WAT WAT WAT WAT WAT WAT WAT WAT WAT WAT WAT WAT 
WAT WAT WAT WAT WAT WAT WAT WAT WAT WAT WAT WAT WAT WAT WAT WAT WAT WAT WAT WAT 
WAT WAT WAT WAT WAT WAT WAT WAT WAT WAT WAT WAT WAT WAT WAT WAT WAT WAT WAT WAT 
WAT WAT WAT WAT WAT WAT WAT WAT WAT WAT WAT WAT WAT WAT WAT WAT WAT WAT WAT WAT 
WAT WAT WAT WAT WAT WAT WAT WAT WAT WAT WAT WAT WAT WAT WAT WAT WAT WAT WAT WAT 
WAT WAT WAT WAT WAT WAT WAT WAT WAT WAT WAT WAT WAT WAT WAT WAT WAT WAT WAT WAT 
WAT WAT WAT WAT WAT WAT WAT WAT WAT WAT WAT WAT WAT WAT WAT WAT WAT WAT WAT WAT 
WAT WAT WAT WAT WAT WAT WAT WAT WAT WAT WAT WAT WAT WAT WAT WAT WAT WAT WAT WAT 
WAT WAT WAT WAT WAT WAT WAT WAT WAT WAT WAT WAT WAT WAT WAT WAT WAT WAT WAT WAT 
WAT WAT WAT WAT WAT WAT WAT WAT WAT WAT WAT WAT WAT WAT WAT WAT WAT WAT WAT WAT 
WAT WAT WAT WAT WAT WAT WAT WAT WAT WAT WAT WAT WAT WAT WAT WAT WAT WAT WAT WAT 
WAT WAT WAT WAT WAT WAT WAT WAT WAT WAT WAT WAT WAT WAT WAT WAT WAT WAT WAT WAT 
WAT WAT WAT WAT WAT WAT WAT WAT WAT WAT WAT WAT WAT WAT WAT WAT WAT WAT WAT WAT 
WAT WAT WAT WAT WAT WAT WAT WAT WAT WAT WAT WAT WAT WAT WAT WAT WAT WAT WAT WAT 
WAT WAT WAT WAT WAT WAT WAT WAT WAT WAT WAT WAT WAT WAT WAT WAT WAT WAT WAT WAT 
WAT WAT WAT WAT WAT WAT WAT WAT WAT WAT WAT WAT WAT WAT WAT WAT WAT WAT WAT WAT 
WAT WAT WAT WAT WAT WAT WAT WAT WAT WAT WAT WAT WAT WAT WAT WAT WAT WAT WAT WAT 
WAT WAT WAT WAT WAT WAT WAT WAT WAT WAT WAT WAT WAT WAT WAT WAT WAT WAT WAT WAT 
WAT WAT WAT WAT WAT WAT WAT WAT WAT WAT WAT WAT WAT WAT WAT WAT WAT WAT WAT WAT 
WAT WAT WAT WAT WAT WAT WAT WAT WAT WAT WAT WAT WAT WAT WAT WAT WAT WAT WAT WAT 
WAT WAT WAT WAT WAT WAT WAT WAT WAT WAT WAT WAT WAT WAT WAT WAT WAT WAT WAT WAT 
WAT WAT WAT WAT WAT WAT WAT WAT WAT WAT WAT WAT WAT WAT WAT WAT WAT WAT WAT WAT 
WAT WAT WAT WAT WAT WAT WAT WAT WAT WAT WAT WAT WAT WAT WAT WAT WAT WAT WAT WAT 
WAT WAT WAT WAT WAT WAT WAT WAT WAT WAT WAT WAT WAT WAT WAT WAT WAT WAT WAT WAT 
WAT WAT WAT WAT WAT WAT WAT WAT WAT WAT WAT WAT WAT WAT WAT WAT WAT WAT WAT WAT 
WAT WAT WAT WAT WAT WAT WAT WAT WAT WAT WAT WAT WAT WAT WAT WAT WAT WAT WAT WAT 
WAT WAT WAT WAT WAT WAT WAT WAT WAT WAT WAT WAT WAT WAT WAT WAT WAT WAT WAT WAT 
WAT WAT WAT WAT WAT WAT WAT WAT WAT WAT WAT WAT WAT WAT WAT WAT WAT WAT WAT WAT 
WAT WAT WAT WAT WAT WAT WAT WAT WAT WAT WAT WAT WAT WAT WAT WAT WAT WAT WAT WAT 
WAT WAT WAT WAT WAT WAT WAT WAT WAT WAT WAT WAT WAT WAT WAT WAT WAT WAT WAT WAT 
WAT WAT WAT WAT WAT WAT WAT WAT WAT WAT WAT WAT WAT WAT WAT WAT WAT WAT WAT WAT 
WAT WAT WAT WAT WAT WAT WAT WAT WAT WAT WAT WAT WAT WAT WAT WAT WAT WAT WAT WAT 
WAT WAT WAT WAT WAT WAT WAT WAT WAT WAT WAT WAT WAT WAT WAT WAT WAT WAT WAT WAT 
WAT WAT WAT WAT WAT WAT WAT WAT WAT WAT WAT WAT WAT WAT WAT WAT WAT WAT WAT WAT 
WAT WAT WAT WAT WAT WAT WAT WAT WAT WAT WAT WAT WAT WAT WAT WAT WAT WAT WAT WAT 
WAT WAT WAT WAT WAT WAT WAT WAT WAT WAT WAT WAT WAT WAT WAT WAT WAT WAT WAT WAT 
WAT WAT WAT WAT WAT WAT WAT WAT WAT WAT WAT WAT WAT WAT WAT WAT WAT WAT WAT WAT 
WAT WAT WAT WAT WAT WAT WAT WAT WAT WAT WAT WAT WAT WAT WAT WAT WAT WAT WAT WAT 
WAT WAT WAT WAT WAT WAT WAT WAT WAT WAT WAT WAT WAT WAT WAT WAT WAT WAT WAT WAT 
WAT WAT WAT WAT WAT WAT WAT WAT WAT WAT WAT WAT WAT WAT WAT WAT WAT WAT WAT WAT 
WAT WAT WAT WAT WAT WAT WAT WAT WAT WAT WAT WAT WAT WAT WAT WAT WAT WAT WAT WAT 
WAT WAT WAT WAT WAT WAT WAT WAT WAT WAT WAT WAT WAT WAT WAT WAT WAT WAT WAT WAT 
WAT WAT WAT WAT WAT WAT WAT WAT WAT WAT WAT WAT WAT WAT WAT WAT WAT WAT WAT WAT 
WAT WAT WAT WAT WAT WAT WAT WAT WAT WAT WAT WAT WAT WAT WAT WAT WAT WAT WAT WAT 
WAT WAT WAT WAT WAT WAT WAT WAT WAT WAT WAT WAT WAT WAT WAT WAT WAT WAT WAT WAT 
WAT WAT WAT WAT WAT WAT WAT WAT WAT WAT WAT WAT WAT WAT WAT WAT WAT WAT WAT WAT 
WAT WAT WAT WAT WAT WAT WAT WAT WAT WAT WAT WAT WAT WAT WAT WAT WAT WAT WAT WAT 
WAT WAT WAT WAT WAT WAT WAT WAT WAT WAT WAT WAT WAT WAT WAT WAT WAT WAT WAT WAT 
WAT WAT WAT WAT WAT WAT WAT WAT WAT WAT WAT WAT WAT WAT WAT WAT WAT WAT WAT WAT 
WAT WAT WAT WAT WAT WAT WAT WAT WAT WAT WAT WAT WAT WAT WAT WAT WAT WAT WAT WAT 
WAT WAT WAT WAT WAT WAT WAT WAT WAT WAT WAT WAT WAT WAT WAT WAT WAT WAT WAT WAT 
WAT WAT WAT WAT WAT WAT WAT WAT WAT WAT WAT WAT WAT WAT WAT WAT WAT WAT WAT WAT 
WAT WAT WAT WAT WAT WAT WAT WAT WAT 
%FLAG RESIDUE_POINTER                                                           
%FORMAT(10I8)                                                                   
       1       7      28      38      45      65      71      75      79      83
      87      91      95      99     103     107     111     115     119     123
     127     131     135     139     143     147     151     155     159     163
     167     171     175     179     183     187     191     195     199     203
     207     211     215     219     223     227     231     235     239     243
     247     251     255     259     263     267     271     275     279     283
     287     291     295     299     303     307     311     315     319     323
     327     331     335     339     343     347     351     355     359     363
     367     371     375     379     383     387     391     395     399     403
     407     411     415     419     423     427     431     435     439     443
     447     451     455     459     463     467     471     475     479     483
     487     491     495     499     503     507     511     515     519     523
     527     531     535     539     543     547     551     555     559     563
     567     571     575     579     583     587     591     595     599     603
     607     611     615     619     623     627     631     635     639     643
     647     651     655     659     663     667     671     675     679     683
     687     691     695     699     703     707     711     715     719     723
     727     731     735     739     743     747     751     755     759     763
     767     771     775     779     783     787     791     795     799     803
     807     811     815     819     823     827     831     835     839     843
     847     851     855     859     863     867     871     875     879     883
     887     891     895     899     903     907     911     915     919     923
     927     931     935     939     943     947     951     955     959     963
     967     971     975     979     983     987     991     995     999    1003
    1007    1011    1015    1019    1023    1027    1031    1035    1039    1043
    1047    1051    1055    1059    1063    1067    1071    1075    1079    1083
    1087    1091    1095    1099    1103    1107    1111    1115    1119    1123
    1127    1131    1135    1139    1143    1147    1151    1155    1159    1163
    1167    1171    1175    1179    1183    1187    1191    1195    1199    1203
    1207    1211    1215    1219    1223    1227    1231    1235    1239    1243
    1247    1251    1255    1259    1263    1267    1271    1275    1279    1283
    1287    1291    1295    1299    1303    1307    1311    1315    1319    1323
    1327    1331    1335    1339    1343    1347    1351    1355    1359    1363
    1367    1371    1375    1379    1383    1387    1391    1395    1399    1403
    1407    1411    1415    1419    1423    1427    1431    1435    1439    1443
    1447    1451    1455    1459    1463    1467    1471    1475    1479    1483
    1487    1491    1495    1499    1503    1507    1511    1515    1519    1523
    1527    1531    1535    1539    1543    1547    1551    1555    1559    1563
    1567    1571    1575    1579    1583    1587    1591    1595    1599    1603
    1607    1611    1615    1619    1623    1627    1631    1635    1639    1643
    1647    1651    1655    1659    1663    1667    1671    1675    1679    1683
    1687    1691    1695    1699    1703    1707    1711    1715    1719    1723
    1727    1731    1735    1739    1743    1747    1751    1755    1759    1763
    1767    1771    1775    1779    1783    1787    1791    1795    1799    1803
    1807    1811    1815    1819    1823    1827    1831    1835    1839    1843
    1847    1851    1855    1859    1863    1867    1871    1875    1879    1883
    1887    1891    1895    1899    1903    1907    1911    1915    1919    1923
    1927    1931    1935    1939    1943    1947    1951    1955    1959    1963
    1967    1971    1975    1979    1983    1987    1991    1995    1999    2003
    2007    2011    2015    2019    2023    2027    2031    2035    2039    2043
    2047    2051    2055    2059    2063    2067    2071    2075    2079    2083
    2087    2091    2095    2099    2103    2107    2111    2115    2119    2123
    2127    2131    2135    2139    2143    2147    2151    2155    2159    2163
    2167    2171    2175    2179    2183    2187    2191    2195    2199    2203
    2207    2211    2215    2219    2223    2227    2231    2235    2239    2243
    2247    2251    2255    2259    2263    2267    2271    2275    2279    2283
    2287    2291    2295    2299    2303    2307    2311    2315    2319    2323
    2327    2331    2335    2339    2343    2347    2351    2355    2359    2363
    2367    2371    2375    2379    2383    2387    2391    2395    2399    2403
    2407    2411    2415    2419    2423    2427    2431    2435    2439    2443
    2447    2451    2455    2459    2463    2467    2471    2475    2479    2483
    2487    2491    2495    2499    2503    2507    2511    2515    2519    2523
    2527    2531    2535    2539    2543    2547    2551    2555    2559    2563
    2567    2571    2575    2579    2583    2587    2591    2595    2599    2603
    2607    2611    2615    2619    2623    2627    2631    2635    2639    2643
    2647    2651    2655    2659    2663    2667    2671    2675    2679    2683
    2687    2691    2695    2699    2703    2707    2711    2715    2719    2723
    2727    2731    2735    2739    2743    2747    2751    2755    2759    2763
    2767    2771    2775    2779    2783    2787    2791    2795    2799    2803
    2807    2811    2815    2819    2823    2827    2831    2835    2839    2843
    2847    2851    2855    2859    2863    2867    2871    2875    2879    2883
    2887    2891    2895    2899    2903    2907    2911    2915    2919    2923
    2927    2931    2935    2939    2943    2947    2951    2955    2959    2963
    2967    2971    2975    2979    2983    2987    2991    2995    2999    3003
    3007    3011    3015    3019    3023    3027    3031    3035    3039    3043
    3047    3051    3055    3059    3063    3067    3071    3075    3079    3083
    3087    3091    3095    3099    3103    3107    3111    3115    3119    3123
    3127    3131    3135    3139    3143    3147    3151    3155    3159    3163
    3167    3171    3175    3179    3183    3187    3191    3195    3199    3203
    3207    3211    3215    3219    3223    3227    3231    3235    3239    3243
    3247    3251    3255    3259    3263    3267    3271    3275    3279    3283
    3287    3291    3295    3299    3303    3307    3311    3315    3319    3323
    3327    3331    3335    3339    3343    3347    3351    3355    3359    3363
    3367    3371    3375    3379    3383    3387    3391    3395    3399    3403
    3407    3411    3415    3419    3423    3427    3431    3435    3439    3443
    3447    3451    3455    3459    3463    3467    3471    3475    3479    3483
    3487    3491    3495    3499    3503    3507    3511    3515    3519    3523
    3527    3531    3535    3539    3543    3547    3551    3555    3559    3563
    3567    3571    3575    3579    3583    3587    3591    3595    3599    3603
    3607    3611    3615    3619    3623    3627    3631    3635    3639    3643
    3647    3651    3655    3659    3663    3667    3671    3675    3679    3683
    3687    3691    3695    3699    3703    3707    3711    3715    3719    3723
    3727    3731    3735    3739    3743    3747    3751    3755    3759    3763
    3767    3771    3775    3779    3783    3787    3791    3795    3799    3803
    3807    3811    3815    3819    3823    3827    3831    3835    3839    3843
    3847    3851    3855    3859    3863    3867    3871    3875    3879    3883
    3887    3891    3895    3899    3903    3907    3911    3915    3919    3923
    3927    3931    3935    3939    3943    3947    3951    3955    3959    3963
    3967    3971    3975    3979    3983    3987    3991    3995    3999    4003
    4007    4011    4015    4019    4023    4027    4031    4035    4039    4043
    4047    4051    4055    4059    4063    4067    4071    4075    4079    4083
    4087    4091    4095    4099    4103    4107    4111    4115    4119    4123
    4127    4131    4135    4139    4143    4147    4151    4155    4159    4163
    4167    4171    4175    4179    4183    4187    4191    4195    4199    4203
    4207    4211    4215    4219    4223    4227    4231    4235    4239    4243
    4247    4251    4255    4259    4263    4267    4271    4275    4279    4283
    4287    4291    4295    4299    4303    4307    4311    4315    4319    4323
    4327    4331    4335    4339    4343    4347    4351    4355    4359    4363
    4367    4371    4375    4379    4383    4387    4391    4395    4399    4403
    4407    4411    4415    4419    4423    4427    4431    4435    4439    4443
    4447    4451    4455    4459    4463    4467    4471    4475    4479    4483
    4487    4491    4495    4499    4503    4507    4511    4515    4519    4523
    4527    4531    4535    4539    4543    4547    4551    4555    4559    4563
    4567    4571    4575    4579    4583    4587    4591    4595    4599    4603
    4607    4611    4615    4619    4623    4627    4631    4635    4639    4643
    4647    4651    4655    4659    4663    4667    4671    4675    4679    4683
    4687    4691    4695    4699    4703    4707    4711    4715    4719    4723
    4727    4731    4735    4739    4743    4747    4751    4755    4759    4763
    4767    4771    4775    4779    4783    4787    4791    4795    4799    4803
    4807    4811    4815    4819    4823    4827    4831    4835    4839    4843
    4847    4851    4855    4859    4863    4867    4871    4875    4879    4883
    4887    4891    4895    4899    4903    4907    4911    4915    4919    4923
    4927    4931    4935    4939    4943    4947    4951    4955    4959    4963
    4967    4971    4975    4979    4983    4987    4991    4995    4999    5003
    5007    5011    5015    5019    5023    5027    5031    5035    5039    5043
    5047    5051    5055    5059    5063    5067    5071    5075    5079    5083
    5087    5091    5095    5099    5103    5107    5111    5115    5119    5123
    5127    5131    5135    5139    5143    5147    5151    5155    5159    5163
    5167    5171    5175    5179    5183    5187    5191    5195    5199    5203
    5207    5211    5215    5219    5223    5227    5231    5235    5239    5243
    5247    5251    5255    5259    5263    5267    5271    5275    5279    5283
    5287    5291    5295    5299    5303    5307    5311    5315    5319    5323
    5327    5331    5335    5339    5343    5347    5351    5355    5359    5363
    5367    5371    5375    5379    5383    5387    5391    5395    5399    5403
    5407    5411    5415    5419    5423    5427    5431    5435    5439    5443
    5447    5451    5455    5459    5463    5467    5471    5475    5479    5483
    5487    5491    5495    5499    5503    5507    5511    5515    5519    5523
    5527    5531    5535    5539    5543    5547    5551    5555    5559    5563
    5567    5571    5575    5579    5583    5587    5591    5595    5599    5603
    5607    5611    5615    5619    5623    5627    5631    5635    5639    5643
    5647    5651    5655    5659    5663    5667    5671    5675    5679    5683
    5687    5691    5695    5699    5703    5707    5711    5715    5719    5723
    5727    5731    5735    5739    5743    5747    5751    5755    5759    5763
    5767    5771    5775    5779    5783    5787    5791    5795    5799    5803
    5807    5811    5815    5819    5823    5827    5831    5835    5839    5843
    5847    5851    5855    5859    5863    5867    5871    5875    5879    5883
    5887    5891    5895    5899    5903    5907    5911    5915    5919    5923
    5927    5931    5935    5939    5943    5947    5951    5955    5959    5963
    5967    5971    5975    5979    5983    5987    5991    5995    5999    6003
    6007    6011    6015    6019    6023    6027    6031    6035    6039    6043
    6047    6051    6055    6059    6063    6067    6071    6075    6079    6083
    6087    6091    6095    6099    6103    6107    6111    6115    6119    6123
    6127    6131    6135    6139    6143    6147    6151    6155    6159    6163
    6167    6171    6175    6179    6183    6187    6191    6195    6199    6203
    6207    6211    6215    6219    6223    6227    6231    6235    6239    6243
    6247    6251    6255    6259    6263    6267    6271    6275    6279    6283
    6287    6291    6295    6299    6303    6307    6311    6315    6319    6323
    6327    6331    6335    6339    6343    6347    6351    6355    6359    6363
    6367    6371    6375    6379    6383    6387    6391    6395    6399    6403
    6407    6411    6415    6419    6423    6427    6431    6435    6439    6443
    6447    6451    6455    6459    6463    6467    6471    6475    6479    6483
    6487    6491    6495    6499    6503    6507    6511    6515    6519    6523
    6527    6531    6535    6539    6543    6547    6551    6555    6559    6563
    6567    6571    6575    6579    6583    6587    6591    6595    6599    6603
    6607    6611    6615    6619    6623    6627    6631    6635    6639    6643
    6647    6651    6655    6659    6663    6667    6671    6675    6679    6683
    6687    6691    6695    6699    6703    6707    6711    6715    6719    6723
    6727    6731    6735    6739    6743    6747    6751    6755    6759    6763
    6767    6771    6775    6779    6783    6787    6791    6795    6799    6803
    6807    6811    6815    6819    6823    6827    6831    6835    6839    6843
    6847    6851    6855    6859    6863    6867    6871    6875    6879    6883
    6887    6891    6895    6899    6903    6907    6911    6915    6919    6923
    6927    6931    6935    6939    6943    6947    6951    6955    6959    6963
    6967    6971    6975    6979    6983    6987    6991    6995    6999    7003
    7007    7011    7015    7019    7023    7027    7031    7035    7039    7043
    7047    7051    7055    7059    7063    7067    7071    7075    7079    7083
    7087    7091    7095    7099    7103    7107    7111    7115    7119    7123
    7127    7131    7135    7139    7143    7147    7151    7155    7159    7163
    7167    7171    7175    7179    7183    7187    7191    7195    7199    7203
    7207    7211    7215    7219    7223    7227    7231    7235    7239    7243
    7247    7251    7255    7259    7263    7267    7271    7275    7279    7283
    7287    7291    7295    7299    7303    7307    7311    7315    7319    7323
    7327    7331    7335    7339    7343    7347    7351    7355    7359    7363
    7367    7371    7375    7379    7383    7387    7391    7395    7399    7403
    7407    7411    7415    7419    7423    7427    7431    7435    7439    7443
    7447    7451    7455    7459    7463    7467    7471    7475    7479    7483
    7487    7491    7495    7499    7503    7507    7511    7515    7519    7523
    7527    7531    7535    7539    7543    7547    7551    7555    7559    7563
    7567    7571    7575    7579    7583    7587    7591    7595    7599    7603
    7607    7611    7615    7619    7623    7627    7631    7635    7639    7643
    7647    7651    7655    7659    7663    7667    7671    7675    7679    7683
    7687    7691    7695    7699    7703    7707    7711    7715    7719    7723
    7727    7731    7735    7739    7743    7747    7751    7755    7759    7763
    7767    7771    7775    7779    7783    7787    7791    7795    7799    7803
    7807    7811    7815    7819    7823    7827    7831    7835    7839    7843
    7847    7851    7855    7859    7863    7867    7871    7875    7879    7883
    7887    7891    7895    7899    7903    7907    7911    7915    7919    7923
    7927    7931    7935    7939    7943    7947    7951    7955    7959    7963
    7967    7971    7975    7979    7983    7987    7991    7995    7999    8003
    8007    8011    8015    8019    8023    8027    8031    8035    8039    8043
    8047    8051    8055    8059    8063    8067    8071    8075    8079    8083
    8087    8091    8095    8099    8103    8107    8111    8115    8119    8123
    8127    8131    8135    8139    8143    8147    8151    8155    8159    8163
    8167    8171    8175    8179    8183    8187    8191    8195    8199    8203
    8207    8211    8215    8219    8223    8227    8231    8235    8239    8243
    8247    8251    8255    8259    8263    8267    8271    8275    8279    8283
    8287    8291    8295    8299    8303    8307    8311    8315    8319    8323
    8327    8331    8335    8339    8343    8347    8351    8355    8359    8363
    8367    8371    8375    8379    8383    8387    8391    8395    8399    8403
    8407    8411    8415    8419    8423    8427    8431    8435    8439    8443
    8447    8451    8455    8459    8463    8467    8471    8475    8479    8483
    8487    8491    8495    8499    8503    8507    8511    8515    8519    8523
    8527    8531    8535    8539    8543    8547    8551    8555    8559    8563
    8567    8571    8575    8579    8583    8587    8591    8595    8599    8603
    8607    8611    8615    8619    8623    8627    8631    8635    8639    8643
    8647    8651    8655    8659    8663    8667    8671    8675    8679    8683
    8687    8691    8695    8699    8703    8707    8711    8715    8719    8723
    8727    8731    8735    8739    8743    8747    8751    8755    8759    8763
    8767    8771    8775    8779    8783    8787    8791    8795    8799    8803
    8807    8811    8815    8819    8823    8827    8831    8835    8839    8843
    8847    8851    8855    8859    8863    8867    8871    8875    8879    8883
    8887    8891    8895    8899    8903    8907    8911    8915    8919    8923
    8927    8931    8935    8939    8943    8947    8951    8955    8959
%FLAG BOND_FORCE_CONSTANT                                                       
%FORMAT(5E16.8)                                                                 
  5.70000000E+02  4.90000000E+02  3.40000000E+02  3.17000000E+02  3.67000000E+02
  4.69000000E+02  5.53000000E+02  4.50000000E+02  4.69000000E+02  3.17000000E+02
  3.40000000E+02  3.10000000E+02  3.17000000E+02  4.34000000E+02  3.37000000E+02
  3.40000000E+02  3.37000000E+02  5.53000000E+02  5.53000000E+02  5.53000000E+02
%FLAG BOND_EQUIL_VALUE                                                          
%FORMAT(5E16.8)                                                                 
  1.22900000E+00  1.33500000E+00  1.09000000E+00  1.52200000E+00  1.08000000E+00
  1.40000000E+00  9.60000000E-01  1.36400000E+00  1.40900000E+00  1.51000000E+00
  1.09000000E+00  1.52600000E+00  1.52200000E+00  1.01000000E+00  1.44900000E+00
  1.09000000E+00  1.44900000E+00  8.72433130E-01  1.37120510E+00  1.59398330E-01
%FLAG ANGLE_FORCE_CONSTANT                                                      
%FORMAT(5E16.8)                                                                 
  8.00000000E+01  5.00000000E+01  5.00000000E+01  5.00000000E+01  3.50000000E+01
  8.00000000E+01  7.00000000E+01  5.00000000E+01  7.00000000E+01  5.00000000E+01
  5.00000000E+01  6.30000000E+01  6.30000000E+01  6.30000000E+01  5.00000000E+01
  6.30000000E+01  7.00000000E+01  5.00000000E+01  5.00000000E+01  5.00000000E+01
  6.30000000E+01  8.00000000E+01  7.00000000E+01  5.00000000E+01  5.00000000E+01
  8.00000000E+01  6.30000000E+01  3.50000000E+01  5.00000000E+01  3.50000000E+01
  5.00000000E+01  5.00000000E+01
%FLAG ANGLE_EQUIL_VALUE                                                         
%FORMAT(5E16.8)                                                                 
  2.14501057E+00  2.09439600E+00  2.12755727E+00  1.91113635E+00  1.91113635E+00
  2.10137732E+00  2.03505478E+00  2.09439600E+00  2.09439600E+00  1.97222290E+00
  2.09439600E+00  2.09439600E+00  2.09439600E+00  2.09439600E+00  1.91113635E+00
  1.93906163E+00  2.09439600E+00  1.91113635E+00  1.91113635E+00  1.91113635E+00
  1.98967620E+00  2.10137732E+00  2.03505478E+00  2.06018753E+00  1.91113635E+00
  1.91462701E+00  1.92160833E+00  1.91113635E+00  2.12755727E+00  1.91113635E+00
  2.06018753E+00  1.91113635E+00
%FLAG DIHEDRAL_FORCE_CONSTANT                                                   
%FORMAT(5E16.8)                                                                 
  2.00000000E+00  2.50000000E+00  0.00000000E+00  0.00000000E+00  0.00000000E+00
  0.00000000E+00  8.00000000E-01  8.00000000E-02  3.62500000E+00  8.83000000E-01
  6.50000000E-02  5.50000000E-02  4.69000000E-01  1.92000000E-01  1.20000000E-02
  1.55555556E-01  0.00000000E+00  6.90000000E-02  4.80000000E-02  1.20000000E-02
  2.90000000E-01  7.00000000E-03  0.00000000E+00  0.00000000E+00  1.05000000E+01
  1.10000000E+00
%FLAG DIHEDRAL_PERIODICITY                                                      
%FORMAT(5E16.8)                                                                 
  1.00000000E+00  2.00000000E+00  2.00000000E+00  1.00000000E+00  3.00000000E+00
  4.00000000E+00  1.00000000E+00  3.00000000E+00  2.00000000E+00  2.00000000E+00
  4.00000000E+00  1.00000000E+00  2.00000000E+00  3.00000000E+00  4.00000000E+00
  3.00000000E+00  3.00000000E+00  2.00000000E+00  4.00000000E+00  1.00000000E+00
  2.00000000E+00  4.00000000E+00  1.00000000E+00  2.00000000E+00  2.00000000E+00
  2.00000000E+00
%FLAG DIHEDRAL_PHASE                                                            
%FORMAT(5E16.8)                                                                 
  0.00000000E+00  3.14159400E+00  0.00000000E+00  0.00000000E+00  0.00000000E+00
  0.00000000E+00  0.00000000E+00  3.14159400E+00  3.14159400E+00  3.14159400E+00
  0.00000000E+00  0.00000000E+00  3.14159400E+00  0.00000000E+00  3.14159400E+00
  0.00000000E+00  3.14159400E+00  3.14159400E+00  3.14159400E+00  3.14159400E+00
  3.14159400E+00  3.14159400E+00  3.14159400E+00  3.14159400E+00  3.14159400E+00
  3.14159400E+00
%FLAG SCEE_SCALE_FACTOR                                                         
%FORMAT(5E16.8)                                                                 
  1.20000000E+00  1.20000000E+00  1.20000000E+00  1.20000000E+00  1.20000000E+00
  1.20000000E+00  1.20000000E+00  1.20000000E+00  1.20000000E+00  1.20000000E+00
  1.20000000E+00  1.20000000E+00  1.20000000E+00  1.20000000E+00  1.20000000E+00
  1.20000000E+00  1.20000000E+00  1.20000000E+00  1.20000000E+00  1.20000000E+00
  1.20000000E+00  1.20000000E+00  1.20000000E+00  1.20000000E+00  0.00000000E+00
  0.00000000E+00
%FLAG SCNB_SCALE_FACTOR                                                         
%FORMAT(5E16.8)                                                                 
  2.00000000E+00  2.00000000E+00  2.00000000E+00  2.00000000E+00  2.00000000E+00
  2.00000000E+00  2.00000000E+00  2.00000000E+00  2.00000000E+00  2.00000000E+00
  2.00000000E+00  2.00000000E+00  2.00000000E+00  2.00000000E+00  2.00000000E+00
  2.00000000E+00  2.00000000E+00  2.00000000E+00  2.00000000E+00  2.00000000E+00
  2.00000000E+00  2.00000000E+00  2.00000000E+00  2.00000000E+00  0.00000000E+00
  0.00000000E+00
%FLAG SOLTY                                                                     
%FORMAT(5E16.8)                                                                 
  0.00000000E+00  0.00000000E+00  0.00000000E+00  0.00000000E+00  0.00000000E+00
  0.00000000E+00  0.00000000E+00  0.00000000E+00  0.00000000E+00  0.00000000E+00
  0.00000000E+00  0.00000000E+00  0.00000000E+00  0.00000000E+00  0.00000000E+00
%FLAG LENNARD_JONES_ACOEF                                                       
%FORMAT(5E16.8)                                                                 
  7.51607703E+03  9.71708117E+04  1.04308023E+06  8.61541883E+04  9.24822270E+05
  8.19971662E+05  5.44261042E+04  6.47841731E+05  5.74393458E+05  3.79876399E+05
  8.96776989E+04  9.95480466E+05  8.82619071E+05  6.06829342E+05  9.44293233E+05
  1.07193646E+02  2.56678134E+03  2.27577561E+03  1.02595236E+03  2.12601181E+03
  1.39982777E-01  4.98586848E+03  6.78771368E+04  6.01816484E+04  3.69471530E+04
  6.20665997E+04  5.94667300E+01  3.25969625E+03  6.55825601E+03  8.59947003E+04
  7.62451550E+04  4.77908183E+04  7.91627154E+04  8.90987508E+01  4.33325458E+03
  5.71629601E+03  6.82786631E+04  7.91544157E+05  7.01803794E+05  4.71003287E+05
  7.44975864E+05  1.40467023E+03  4.66922514E+04  6.00750218E+04  5.81803229E+05
  0.00000000E+00  0.00000000E+00  0.00000000E+00  0.00000000E+00  0.00000000E+00
  0.00000000E+00  0.00000000E+00  0.00000000E+00  0.00000000E+00  0.00000000E+00
  8.45678586E+04  9.57153878E+05  8.48637713E+05  5.77196189E+05  9.04754248E+05
  1.88214625E+03  5.82169798E+04  7.45424739E+04  7.10552826E+05  0.00000000E+00
  8.65113123E+05  0.00000000E+00  0.00000000E+00  0.00000000E+00  0.00000000E+00
  0.00000000E+00  0.00000000E+00  0.00000000E+00  0.00000000E+00  0.00000000E+00
  0.00000000E+00  0.00000000E+00  0.00000000E+00
%FLAG LENNARD_JONES_BCOEF                                                       
%FORMAT(5E16.8)                                                                 
  2.17257828E+01  1.26919150E+02  6.75612247E+02  1.12529845E+02  5.99015525E+02
  5.31102864E+02  1.11805549E+02  6.26720080E+02  5.55666448E+02  5.64885984E+02
  1.36131731E+02  7.36907417E+02  6.53361429E+02  6.77220874E+02  8.01323529E+02
  2.59456373E+00  2.06278363E+01  1.82891803E+01  1.53505284E+01  2.09604198E+01
  9.37598976E-02  1.76949863E+01  1.06076943E+02  9.40505980E+01  9.21192136E+01
  1.13252061E+02  1.93248820E+00  1.43076527E+01  2.00642027E+01  1.18043746E+02
  1.04660679E+02  1.03580945E+02  1.26451907E+02  2.33864085E+00  1.63092814E+01
  1.85196588E+01  1.25287818E+02  6.93079947E+02  6.14502845E+02  6.29300710E+02
  7.50714425E+02  1.79702257E+01  1.03606917E+02  1.16187983E+02  6.99746810E+02
  0.00000000E+00  0.00000000E+00  0.00000000E+00  0.00000000E+00  0.00000000E+00
  0.00000000E+00  0.00000000E+00  0.00000000E+00  0.00000000E+00  0.00000000E+00
  1.39830173E+02  7.64308217E+02  6.77655696E+02  6.98618155E+02  8.29661356E+02
  2.08605096E+01  1.16017383E+02  1.29792032E+02  7.75502024E+02  0.00000000E+00
  8.58130004E+02  0.00000000E+00  0.00000000E+00  0.00000000E+00  0.00000000E+00
  0.00000000E+00  0.00000000E+00  0.00000000E+00  0.00000000E+00  0.00000000E+00
  0.00000000E+00  0.00000000E+00  0.00000000E+00
%FLAG BONDS_INC_HYDROGEN                                                        
%FORMAT(10I8)                                                                   
       3       6       3       3       9       3       0       3       3      69
      72       5      63      66       5      57      60       7      48      51
       5      42      45       5      30      33       3      30      36       3
      24      27      11      18      21      14      93      96       3      93
      99       3      93     102       3      87      90      11      81      84
      14     117     120      11     117     123      11     111     114      14
     180     183       5     174     177       5     168     171       5     162
     165       5     156     159       5     144     147       3     144     150
       3     138     141      11     132     135      14     198     201      16
     198     204      16     198     207      16     192     195      14     213
     210      18     216     210      18     216     213      19     225     222
      18     228     222      18     228     225      19     237     234      18
     240     234      18     240     237      19     249     246      18     252
     246      18     252     249      19     261     258      18     264     258
      18     264     261      19     273     270      18     276     270      18
     276     273      19     285     282      18     288     282      18     288
     285      19     297     294      18     300     294      18     300     297
      19     309     306      18     312     306      18     312     309      19
     321     318      18     324     318      18     324     321      19     333
     330      18     336     330      18     336     333      19     345     342
      18     348     342      18     348     345      19     357     354      18
     360     354      18     360     357      19     369     366      18     372
     366      18     372     369      19     381     378      18     384     378
      18     384     381      19     393     390      18     396     390      18
     396     393      19     405     402      18     408     402      18     408
     405      19     417     414      18     420     414      18     420     417
      19     429     426      18     432     426      18     432     429      19
     441     438      18     444     438      18     444     441      19     453
     450      18     456     450      18     456     453      19     465     462
      18     468     462      18     468     465      19     477     474      18
     480     474      18     480     477      19     489     486      18     492
     486      18     492     489      19     501     498      18     504     498
      18     504     501      19     513     510      18     516     510      18
     516     513      19     525     522      18     528     522      18     528
     525      19     537     534      18     540     534      18     540     537
      19     549     546      18     552     546      18     552     549      19
     561     558      18     564     558      18     564     561      19     573
     570      18     576     570      18     576     573      19     585     582
      18     588     582      18     588     585      19     597     594      18
     600     594      18     600     597      19     609     606      18     612
     606      18     612     609      19     621     618      18     624     618
      18     624     621      19     633     630      18     636     630      18
     636     633      19     645     642      18     648     642      18     648
     645      19     657     654      18     660     654      18     660     657
      19     669     666      18     672     666      18     672     669      19
     681     678      18     684     678      18     684     681      19     693
     690      18     696     690      18     696     693      19     705     702
      18     708     702      18     708     705      19     717     714      18
     720     714      18     720     717      19     729     726      18     732
     726      18     732     729      19     741     738      18     744     738
      18     744     741      19     753     750      18     756     750      18
     756     753      19     765     762      18     768     762      18     768
     765      19     777     774      18     780     774      18     780     777
      19     789     786      18     792     786      18     792     789      19
     801     798      18     804     798      18     804     801      19     813
     810      18     816     810      18     816     813      19     825     822
      18     828     822      18     828     825      19     837     834      18
     840     834      18     840     837      19     849     846      18     852
     846      18     852     849      19     861     858      18     864     858
      18     864     861      19     873     870      18     876     870      18
     876     873      19     885     882      18     888     882      18     888
     885      19     897     894      18     900     894      18     900     897
      19     909     906      18     912     906      18     912     909      19
     921     918      18     924     918      18     924     921      19     933
     930      18     936     930      18     936     933      19     945     942
      18     948     942      18     948     945      19     957     954      18
     960     954      18     960     957      19     969     966      18     972
     966      18     972     969      19     981     978      18     984     978
      18     984     981      19     993     990      18     996     990      18
     996     993      19    1005    1002      18    1008    1002      18    1008
    1005      19    1017    1014      18    1020    1014      18    1020    1017
      19    1029    1026      18    1032    1026      18    1032    1029      19
    1041    1038      18    1044    1038      18    1044    1041      19    1053
    1050      18    1056    1050      18    1056    1053      19    1065    1062
      18    1068    1062      18    1068    1065      19    1077    1074      18
    1080    1074      18    1080    1077      19    1089    1086      18    1092
    1086      18    1092    1089      19    1101    1098      18    1104    1098
      18    1104    1101      19    1113    1110      18    1116    1110      18
    1116    1113      19    1125    1122      18    1128    1122      18    1128
    1125      19    1137    1134      18    1140    1134      18    1140    1137
      19    1149    1146      18    1152    1146      18    1152    1149      19
    1161    1158      18    1164    1158      18    1164    1161      19    1173
    1170      18    1176    1170      18    1176    1173      19    1185    1182
      18    1188    1182      18    1188    1185      19    1197    1194      18
    1200    1194      18    1200    1197      19    1209    1206      18    1212
    1206      18    1212    1209      19    1221    1218      18    1224    1218
      18    1224    1221      19    1233    1230      18    1236    1230      18
    1236    1233      19    1245    1242      18    1248    1242      18    1248
    1245      19    1257    1254      18    1260    1254      18    1260    1257
      19    1269    1266      18    1272    1266      18    1272    1269      19
    1281    1278      18    1284    1278      18    1284    1281      19    1293
    1290      18    1296    1290      18    1296    1293      19    1305    1302
      18    1308    1302      18    1308    1305      19    1317    1314      18
    1320    1314      18    1320    1317      19    1329    1326      18    1332
    1326      18    1332    1329      19    1341    1338      18    1344    1338
      18    1344    1341      19    1353    1350      18    1356    1350      18
    1356    1353      19    1365    1362      18    1368    1362      18    1368
    1365      19    1377    1374      18    1380    1374      18    1380    1377
      19    1389    1386      18    1392    1386      18    1392    1389      19
    1401    1398      18    1404    1398      18    1404    1401      19    1413
    1410      18    1416    1410      18    1416    1413      19    1425    1422
      18    1428    1422      18    1428    1425      19    1437    1434      18
    1440    1434      18    1440    1437      19    1449    1446      18    1452
    1446      18    1452    1449      19    1461    1458      18    1464    1458
      18    1464    1461      19    1473    1470      18    1476    1470      18
    1476    1473      19    1485    1482      18    1488    1482      18    1488
    1485      19    1497    1494      18    1500    1494      18    1500    1497
      19    1509    1506      18    1512    1506      18    1512    1509      19
    1521    1518      18    1524    1518      18    1524    1521      19    1533
    1530      18    1536    1530      18    1536    1533      19    1545    1542
      18    1548    1542      18    1548    1545      19    1557    1554      18
    1560    1554      18    1560    1557      19    1569    1566      18    1572
    1566      18    1572    1569      19    1581    1578      18    1584    1578
      18    1584    1581      19    1593    1590      18    1596    1590      18
    1596    1593      19    1605    1602      18    1608    1602      18    1608
    1605      19    1617    1614      18    1620    1614      18    1620    1617
      19    1629    1626      18    1632    1626      18    1632    1629      19
    1641    1638      18    1644    1638      18    1644    1641      19    1653
    1650      18    1656    1650      18    1656    1653      19    1665    1662
      18    1668    1662      18    1668    1665      19    1677    1674      18
    1680    1674      18    1680    1677      19    1689    1686      18    1692
    1686      18    1692    1689      19    1701    1698      18    1704    1698
      18    1704    1701      19    1713    1710      18    1716    1710      18
    1716    1713      19    1725    1722      18    1728    1722      18    1728
    1725      19    1737    1734      18    1740    1734      18    1740    1737
      19    1749    1746      18    1752    1746      18    1752    1749      19
    1761    1758      18    1764    1758      18    1764    1761      19    1773
    1770      18    1776    1770      18    1776    1773      19    1785    1782
      18    1788    1782      18    1788    1785      19    1797    1794      18
    1800    1794      18    1800    1797      19    1809    1806      18    1812
    1806      18    1812    1809      19    1821    1818      18    1824    1818
      18    1824    1821      19    1833    1830      18    1836    1830      18
    1836    1833      19    1845    1842      18    1848    1842      18    1848
    1845      19    1857    1854      18    1860    1854      18    1860    1857
      19    1869    1866      18    1872    1866      18    1872    1869      19
    1881    1878      18    1884    1878      18    1884    1881      19    1893
    1890      18    1896    1890      18    1896    1893      19    1905    1902
      18    1908    1902      18    1908    1905      19    1917    1914      18
    1920    1914      18    1920    1917      19    1929    1926      18    1932
    1926      18    1932    1929      19    1941    1938      18    1944    1938
      18    1944    1941      19    1953    1950      18    1956    1950      18
    1956    1953      19    1965    1962      18    1968    1962      18    1968
    1965      19    1977    1974      18    1980    1974      18    1980    1977
      19    1989    1986      18    1992    1986      18    1992    1989      19
    2001    1998      18    2004    1998      18    2004    2001      19    2013
    2010      18    2016    2010      18    2016    2013      19    2025    2022
      18    2028    2022      18    2028    2025      19    2037    2034      18
    2040    2034      18    2040    2037      19    2049    2046      18    2052
    2046      18    2052    2049      19    2061    2058      18    2064    2058
      18    2064    2061      19    2073    2070      18    2076    2070      18
    2076    2073      19    2085    2082      18    2088    2082      18    2088
    2085      19    2097    2094      18    2100    2094      18    2100    2097
      19    2109    2106      18    2112    2106      18    2112    2109      19
    2121    2118      18    2124    2118      18    2124    2121      19    2133
    2130      18    2136    2130      18    2136    2133      19    2145    2142
      18    2148    2142      18    2148    2145      19    2157    2154      18
    2160    2154      18    2160    2157      19    2169    2166      18    2172
    2166      18    2172    2169      19    2181    2178      18    2184    2178
      18    2184    2181      19    2193    2190      18    2196    2190      18
    2196    2193      19    2205    2202      18    2208    2202      18    2208
    2205      19    2217    2214      18    2220    2214      18    2220    2217
      19    2229    2226      18    2232    2226      18    2232    2229      19
    2241    2238      18    2244    2238      18    2244    2241      19    2253
    2250      18    2256    2250      18    2256    2253      19    2265    2262
      18    2268    2262      18    2268    2265      19    2277    2274      18
    2280    2274      18    2280    2277      19    2289    2286      18    2292
    2286      18    2292    2289      19    2301    2298      18    2304    2298
      18    2304    2301      19    2313    2310      18    2316    2310      18
    2316    2313      19    2325    2322      18    2328    2322      18    2328
    2325      19    2337    2334      18    2340    2334      18    2340    2337
      19    2349    2346      18    2352    2346      18    2352    2349      19
    2361    2358      18    2364    2358      18    2364    2361      19    2373
    2370      18    2376    2370      18    2376    2373      19    2385    2382
      18    2388    2382      18    2388    2385      19    2397    2394      18
    2400    2394      18    2400    2397      19    2409    2406      18    2412
    2406      18    2412    2409      19    2421    2418      18    2424    2418
      18    2424    2421      19    2433    2430      18    2436    2430      18
    2436    2433      19    2445    2442      18    2448    2442      18    2448
    2445      19    2457    2454      18    2460    2454      18    2460    2457
      19    2469    2466      18    2472    2466      18    2472    2469      19
    2481    2478      18    2484    2478      18    2484    2481      19    2493
    2490      18    2496    2490      18    2496    2493      19    2505    2502
      18    2508    2502      18    2508    2505      19    2517    2514      18
    2520    2514      18    2520    2517      19    2529    2526      18    2532
    2526      18    2532    2529      19    2541    2538      18    2544    2538
      18    2544    2541      19    2553    2550      18    2556    2550      18
    2556    2553      19    2565    2562      18    2568    2562      18    2568
    2565      19    2577    2574      18    2580    2574      18    2580    2577
      19    2589    2586      18    2592    2586      18    2592    2589      19
    2601    2598      18    2604    2598      18    2604    2601      19    2613
    2610      18    2616    2610      18    2616    2613      19    2625    2622
      18    2628    2622      18    2628    2625      19    2637    2634      18
    2640    2634      18    2640    2637      19    2649    2646      18    2652
    2646      18    2652    2649      19    2661    2658      18    2664    2658
      18    2664    2661      19    2673    2670      18    2676    2670      18
    2676    2673      19    2685    2682      18    2688    2682      18    2688
    2685      19    2697    2694      18    2700    2694      18    2700    2697
      19    2709    2706      18    2712    2706      18    2712    2709      19
    2721    2718      18    2724    2718      18    2724    2721      19    2733
    2730      18    2736    2730      18    2736    2733      19    2745    2742
      18    2748    2742      18    2748    2745      19    2757    2754      18
    2760    2754      18    2760    2757      19    2769    2766      18    2772
    2766      18    2772    2769      19    2781    2778      18    2784    2778
      18    2784    2781      19    2793    2790      18    2796    2790      18
    2796    2793      19    2805    2802      18    2808    2802      18    2808
    2805      19    2817    2814      18    2820    2814      18    2820    2817
      19    2829    2826      18    2832    2826      18    2832    2829      19
    2841    2838      18    2844    2838      18    2844    2841      19    2853
    2850      18    2856    2850      18    2856    2853      19    2865    2862
      18    2868    2862      18    2868    2865      19    2877    2874      18
    2880    2874      18    2880    2877      19    2889    2886      18    2892
    2886      18    2892    2889      19    2901    2898      18    2904    2898
      18    2904    2901      19    2913    2910      18    2916    2910      18
    2916    2913      19    2925    2922      18    2928    2922      18    2928
    2925      19    2937    2934      18    2940    2934      18    2940    2937
      19    2949    2946      18    2952    2946      18    2952    2949      19
    2961    2958      18    2964    2958      18    2964    2961      19    2973
    2970      18    2976    2970      18    2976    2973      19    2985    2982
      18    2988    2982      18    2988    2985      19    2997    2994      18
    3000    2994      18    3000    2997      19    3009    3006      18    3012
    3006      18    3012    3009      19    3021    3018      18    3024    3018
      18    3024    3021      19    3033    3030      18    3036    3030      18
    3036    3033      19    3045    3042      18    3048    3042      18    3048
    3045      19    3057    3054      18    3060    3054      18    3060    3057
      19    3069    3066      18    3072    3066      18    3072    3069      19
    3081    3078      18    3084    3078      18    3084    3081      19    3093
    3090      18    3096    3090      18    3096    3093      19    3105    3102
      18    3108    3102      18    3108    3105      19    3117    3114      18
    3120    3114      18    3120    3117      19    3129    3126      18    3132
    3126      18    3132    3129      19    3141    3138      18    3144    3138
      18    3144    3141      19    3153    3150      18    3156    3150      18
    3156    3153      19    3165    3162      18    3168    3162      18    3168
    3165      19    3177    3174      18    3180    3174      18    3180    3177
      19    3189    3186      18    3192    3186      18    3192    3189      19
    3201    3198      18    3204    3198      18    3204    3201      19    3213
    3210      18    3216    3210      18    3216    3213      19    3225    3222
      18    3228    3222      18    3228    3225      19    3237    3234      18
    3240    3234      18    3240    3237      19    3249    3246      18    3252
    3246      18    3252    3249      19    3261    3258      18    3264    3258
      18    3264    3261      19    3273    3270      18    3276    3270      18
    3276    3273      19    3285    3282      18    3288    3282      18    3288
    3285      19    3297    3294      18    3300    3294      18    3300    3297
      19    3309    3306      18    3312    3306      18    3312    3309      19
    3321    3318      18    3324    3318      18    3324    3321      19    3333
    3330      18    3336    3330      18    3336    3333      19    3345    3342
      18    3348    3342      18    3348    3345      19    3357    3354      18
    3360    3354      18    3360    3357      19    3369    3366      18    3372
    3366      18    3372    3369      19    3381    3378      18    3384    3378
      18    3384    3381      19    3393    3390      18    3396    3390      18
    3396    3393      19    3405    3402      18    3408    3402      18    3408
    3405      19    3417    3414      18    3420    3414      18    3420    3417
      19    3429    3426      18    3432    3426      18    3432    3429      19
    3441    3438      18    3444    3438      18    3444    3441      19    3453
    3450      18    3456    3450      18    3456    3453      19    3465    3462
      18    3468    3462      18    3468    3465      19    3477    3474      18
    3480    3474      18    3480    3477      19    3489    3486      18    3492
    3486      18    3492    3489      19    3501    3498      18    3504    3498
      18    3504    3501      19    3513    3510      18    3516    3510      18
    3516    3513      19    3525    3522      18    3528    3522      18    3528
    3525      19    3537    3534      18    3540    3534      18    3540    3537
      19    3549    3546      18    3552    3546      18    3552    3549      19
    3561    3558      18    3564    3558      18    3564    3561      19    3573
    3570      18    3576    3570      18    3576    3573      19    3585    3582
      18    3588    3582      18    3588    3585      19    3597    3594      18
    3600    3594      18    3600    3597      19    3609    3606      18    3612
    3606      18    3612    3609      19    3621    3618      18    3624    3618
      18    3624    3621      19    3633    3630      18    3636    3630      18
    3636    3633      19    3645    3642      18    3648    3642      18    3648
    3645      19    3657    3654      18    3660    3654      18    3660    3657
      19    3669    3666      18    3672    3666      18    3672    3669      19
    3681    3678      18    3684    3678      18    3684    3681      19    3693
    3690      18    3696    3690      18    3696    3693      19    3705    3702
      18    3708    3702      18    3708    3705      19    3717    3714      18
    3720    3714      18    3720    3717      19    3729    3726      18    3732
    3726      18    3732    3729      19    3741    3738      18    3744    3738
      18    3744    3741      19    3753    3750      18    3756    3750      18
    3756    3753      19    3765    3762      18    3768    3762      18    3768
    3765      19    3777    3774      18    3780    3774      18    3780    3777
      19    3789    3786      18    3792    3786      18    3792    3789      19
    3801    3798      18    3804    3798      18    3804    3801      19    3813
    3810      18    3816    3810      18    3816    3813      19    3825    3822
      18    3828    3822      18    3828    3825      19    3837    3834      18
    3840    3834      18    3840    3837      19    3849    3846      18    3852
    3846      18    3852    3849      19    3861    3858      18    3864    3858
      18    3864    3861      19    3873    3870      18    3876    3870      18
    3876    3873      19    3885    3882      18    3888    3882      18    3888
    3885      19    3897    3894      18    3900    3894      18    3900    3897
      19    3909    3906      18    3912    3906      18    3912    3909      19
    3921    3918      18    3924    3918      18    3924    3921      19    3933
    3930      18    3936    3930      18    3936    3933      19    3945    3942
      18    3948    3942      18    3948    3945      19    3957    3954      18
    3960    3954      18    3960    3957      19    3969    3966      18    3972
    3966      18    3972    3969      19    3981    3978      18    3984    3978
      18    3984    3981      19    3993    3990      18    3996    3990      18
    3996    3993      19    4005    4002      18    4008    4002      18    4008
    4005      19    4017    4014      18    4020    4014      18    4020    4017
      19    4029    4026      18    4032    4026      18    4032    4029      19
    4041    4038      18    4044    4038      18    4044    4041      19    4053
    4050      18    4056    4050      18    4056    4053      19    4065    4062
      18    4068    4062      18    4068    4065      19    4077    4074      18
    4080    4074      18    4080    4077      19    4089    4086      18    4092
    4086      18    4092    4089      19    4101    4098      18    4104    4098
      18    4104    4101      19    4113    4110      18    4116    4110      18
    4116    4113      19    4125    4122      18    4128    4122      18    4128
    4125      19    4137    4134      18    4140    4134      18    4140    4137
      19    4149    4146      18    4152    4146      18    4152    4149      19
    4161    4158      18    4164    4158      18    4164    4161      19    4173
    4170      18    4176    4170      18    4176    4173      19    4185    4182
      18    4188    4182      18    4188    4185      19    4197    4194      18
    4200    4194      18    4200    4197      19    4209    4206      18    4212
    4206      18    4212    4209      19    4221    4218      18    4224    4218
      18    4224    4221      19    4233    4230      18    4236    4230      18
    4236    4233      19    4245    4242      18    4248    4242      18    4248
    4245      19    4257    4254      18    4260    4254      18    4260    4257
      19    4269    4266      18    4272    4266      18    4272    4269      19
    4281    4278      18    4284    4278      18    4284    4281      19    4293
    4290      18    4296    4290      18    4296    4293      19    4305    4302
      18    4308    4302      18    4308    4305      19    4317    4314      18
    4320    4314      18    4320    4317      19    4329    4326      18    4332
    4326      18    4332    4329      19    4341    4338      18    4344    4338
      18    4344    4341      19    4353    4350      18    4356    4350      18
    4356    4353      19    4365    4362      18    4368    4362      18    4368
    4365      19    4377    4374      18    4380    4374      18    4380    4377
      19    4389    4386      18    4392    4386      18    4392    4389      19
    4401    4398      18    4404    4398      18    4404    4401      19    4413
    4410      18    4416    4410      18    4416    4413      19    4425    4422
      18    4428    4422      18    4428    4425      19    4437    4434      18
    4440    4434      18    4440    4437      19    4449    4446      18    4452
    4446      18    4452    4449      19    4461    4458      18    4464    4458
      18    4464    4461      19    4473    4470      18    4476    4470      18
    4476    4473      19    4485    4482      18    4488    4482      18    4488
    4485      19    4497    4494      18    4500    4494      18    4500    4497
      19    4509    4506      18    4512    4506      18    4512    4509      19
    4521    4518      18    4524    4518      18    4524    4521      19    4533
    4530      18    4536    4530      18    4536    4533      19    4545    4542
      18    4548    4542      18    4548    4545      19    4557    4554      18
    4560    4554      18    4560    4557      19    4569    4566      18    4572
    4566      18    4572    4569      19    4581    4578      18    4584    4578
      18    4584    4581      19    4593    4590      18    4596    4590      18
    4596    4593      19    4605    4602      18    4608    4602      18    4608
    4605      19    4617    4614      18    4620    4614      18    4620    4617
      19    4629    4626      18    4632    4626      18    4632    4629      19
    4641    4638      18    4644    4638      18    4644    4641      19    4653
    4650      18    4656    4650      18    4656    4653      19    4665    4662
      18    4668    4662      18    4668    4665      19    4677    4674      18
    4680    4674      18    4680    4677      19    4689    4686      18    4692
    4686      18    4692    4689      19    4701    4698      18    4704    4698
      18    4704    4701      19    4713    4710      18    4716    4710      18
    4716    4713      19    4725    4722      18    4728    4722      18    4728
    4725      19    4737    4734      18    4740    4734      18    4740    4737
      19    4749    4746      18    4752    4746      18    4752    4749      19
    4761    4758      18    4764    4758      18    4764    4761      19    4773
    4770      18    4776    4770      18    4776    4773      19    4785    4782
      18    4788    4782      18    4788    4785      19    4797    4794      18
    4800    4794      18    4800    4797      19    4809    4806      18    4812
    4806      18    4812    4809      19    4821    4818      18    4824    4818
      18    4824    4821      19    4833    4830      18    4836    4830      18
    4836    4833      19    4845    4842      18    4848    4842      18    4848
    4845      19    4857    4854      18    4860    4854      18    4860    4857
      19    4869    4866      18    4872    4866      18    4872    4869      19
    4881    4878      18    4884    4878      18    4884    4881      19    4893
    4890      18    4896    4890      18    4896    4893      19    4905    4902
      18    4908    4902      18    4908    4905      19    4917    4914      18
    4920    4914      18    4920    4917      19    4929    4926      18    4932
    4926      18    4932    4929      19    4941    4938      18    4944    4938
      18    4944    4941      19    4953    4950      18    4956    4950      18
    4956    4953      19    4965    4962      18    4968    4962      18    4968
    4965      19    4977    4974      18    4980    4974      18    4980    4977
      19    4989    4986      18    4992    4986      18    4992    4989      19
    5001    4998      18    5004    4998      18    5004    5001      19    5013
    5010      18    5016    5010      18    5016    5013      19    5025    5022
      18    5028    5022      18    5028    5025      19    5037    5034      18
    5040    5034      18    5040    5037      19    5049    5046      18    5052
    5046      18    5052    5049      19    5061    5058      18    5064    5058
      18    5064    5061      19    5073    5070      18    5076    5070      18
    5076    5073      19    5085    5082      18    5088    5082      18    5088
    5085      19    5097    5094      18    5100    5094      18    5100    5097
      19    5109    5106      18    5112    5106      18    5112    5109      19
    5121    5118      18    5124    5118      18    5124    5121      19    5133
    5130      18    5136    5130      18    5136    5133      19    5145    5142
      18    5148    5142      18    5148    5145      19    5157    5154      18
    5160    5154      18    5160    5157      19    5169    5166      18    5172
    5166      18    5172    5169      19    5181    5178      18    5184    5178
      18    5184    5181      19    5193    5190      18    5196    5190      18
    5196    5193      19    5205    5202      18    5208    5202      18    5208
    5205      19    5217    5214      18    5220    5214      18    5220    5217
      19    5229    5226      18    5232    5226      18    5232    5229      19
    5241    5238      18    5244    5238      18    5244    5241      19    5253
    5250      18    5256    5250      18    5256    5253      19    5265    5262
      18    5268    5262      18    5268    5265      19    5277    5274      18
    5280    5274      18    5280    5277      19    5289    5286      18    5292
    5286      18    5292    5289      19    5301    5298      18    5304    5298
      18    5304    5301      19    5313    5310      18    5316    5310      18
    5316    5313      19    5325    5322      18    5328    5322      18    5328
    5325      19    5337    5334      18    5340    5334      18    5340    5337
      19    5349    5346      18    5352    5346      18    5352    5349      19
    5361    5358      18    5364    5358      18    5364    5361      19    5373
    5370      18    5376    5370      18    5376    5373      19    5385    5382
      18    5388    5382      18    5388    5385      19    5397    5394      18
    5400    5394      18    5400    5397      19    5409    5406      18    5412
    5406      18    5412    5409      19    5421    5418      18    5424    5418
      18    5424    5421      19    5433    5430      18    5436    5430      18
    5436    5433      19    5445    5442      18    5448    5442      18    5448
    5445      19    5457    5454      18    5460    5454      18    5460    5457
      19    5469    5466      18    5472    5466      18    5472    5469      19
    5481    5478      18    5484    5478      18    5484    5481      19    5493
    5490      18    5496    5490      18    5496    5493      19    5505    5502
      18    5508    5502      18    5508    5505      19    5517    5514      18
    5520    5514      18    5520    5517      19    5529    5526      18    5532
    5526      18    5532    5529      19    5541    5538      18    5544    5538
      18    5544    5541      19    5553    5550      18    5556    5550      18
    5556    5553      19    5565    5562      18    5568    5562      18    5568
    5565      19    5577    5574      18    5580    5574      18    5580    5577
      19    5589    5586      18    5592    5586      18    5592    5589      19
    5601    5598      18    5604    5598      18    5604    5601      19    5613
    5610      18    5616    5610      18    5616    5613      19    5625    5622
      18    5628    5622      18    5628    5625      19    5637    5634      18
    5640    5634      18    5640    5637      19    5649    5646      18    5652
    5646      18    5652    5649      19    5661    5658      18    5664    5658
      18    5664    5661      19    5673    5670      18    5676    5670      18
    5676    5673      19    5685    5682      18    5688    5682      18    5688
    5685      19    5697    5694      18    5700    5694      18    5700    5697
      19    5709    5706      18    5712    5706      18    5712    5709      19
    5721    5718      18    5724    5718      18    5724    5721      19    5733
    5730      18    5736    5730      18    5736    5733      19    5745    5742
      18    5748    5742      18    5748    5745      19    5757    5754      18
    5760    5754      18    5760    5757      19    5769    5766      18    5772
    5766      18    5772    5769      19    5781    5778      18    5784    5778
      18    5784    5781      19    5793    5790      18    5796    5790      18
    5796    5793      19    5805    5802      18    5808    5802      18    5808
    5805      19    5817    5814      18    5820    5814      18    5820    5817
      19    5829    5826      18    5832    5826      18    5832    5829      19
    5841    5838      18    5844    5838      18    5844    5841      19    5853
    5850      18    5856    5850      18    5856    5853      19    5865    5862
      18    5868    5862      18    5868    5865      19    5877    5874      18
    5880    5874      18    5880    5877      19    5889    5886      18    5892
    5886      18    5892    5889      19    5901    5898      18    5904    5898
      18    5904    5901      19    5913    5910      18    5916    5910      18
    5916    5913      19    5925    5922      18    5928    5922      18    5928
    5925      19    5937    5934      18    5940    5934      18    5940    5937
      19    5949    5946      18    5952    5946      18    5952    5949      19
    5961    5958      18    5964    5958      18    5964    5961      19    5973
    5970      18    5976    5970      18    5976    5973      19    5985    5982
      18    5988    5982      18    5988    5985      19    5997    5994      18
    6000    5994      18    6000    5997      19    6009    6006      18    6012
    6006      18    6012    6009      19    6021    6018      18    6024    6018
      18    6024    6021      19    6033    6030      18    6036    6030      18
    6036    6033      19    6045    6042      18    6048    6042      18    6048
    6045      19    6057    6054      18    6060    6054      18    6060    6057
      19    6069    6066      18    6072    6066      18    6072    6069      19
    6081    6078      18    6084    6078      18    6084    6081      19    6093
    6090      18    6096    6090      18    6096    6093      19    6105    6102
      18    6108    6102      18    6108    6105      19    6117    6114      18
    6120    6114      18    6120    6117      19    6129    6126      18    6132
    6126      18    6132    6129      19    6141    6138      18    6144    6138
      18    6144    6141      19    6153    6150      18    6156    6150      18
    6156    6153      19    6165    6162      18    6168    6162      18    6168
    6165      19    6177    6174      18    6180    6174      18    6180    6177
      19    6189    6186      18    6192    6186      18    6192    6189      19
    6201    6198      18    6204    6198      18    6204    6201      19    6213
    6210      18    6216    6210      18    6216    6213      19    6225    6222
      18    6228    6222      18    6228    6225      19    6237    6234      18
    6240    6234      18    6240    6237      19    6249    6246      18    6252
    6246      18    6252    6249      19    6261    6258      18    6264    6258
      18    6264    6261      19    6273    6270      18    6276    6270      18
    6276    6273      19    6285    6282      18    6288    6282      18    6288
    6285      19    6297    6294      18    6300    6294      18    6300    6297
      19    6309    6306      18    6312    6306      18    6312    6309      19
    6321    6318      18    6324    6318      18    6324    6321      19    6333
    6330      18    6336    6330      18    6336    6333      19    6345    6342
      18    6348    6342      18    6348    6345      19    6357    6354      18
    6360    6354      18    6360    6357      19    6369    6366      18    6372
    6366      18    6372    6369      19    6381    6378      18    6384    6378
      18    6384    6381      19    6393    6390      18    6396    6390      18
    6396    6393      19    6405    6402      18    6408    6402      18    6408
    6405      19    6417    6414      18    6420    6414      18    6420    6417
      19    6429    6426      18    6432    6426      18    6432    6429      19
    6441    6438      18    6444    6438      18    6444    6441      19    6453
    6450      18    6456    6450      18    6456    6453      19    6465    6462
      18    6468    6462      18    6468    6465      19    6477    6474      18
    6480    6474      18    6480    6477      19    6489    6486      18    6492
    6486      18    6492    6489      19    6501    6498      18    6504    6498
      18    6504    6501      19    6513    6510      18    6516    6510      18
    6516    6513      19    6525    6522      18    6528    6522      18    6528
    6525      19    6537    6534      18    6540    6534      18    6540    6537
      19    6549    6546      18    6552    6546      18    6552    6549      19
    6561    6558      18    6564    6558      18    6564    6561      19    6573
    6570      18    6576    6570      18    6576    6573      19    6585    6582
      18    6588    6582      18    6588    6585      19    6597    6594      18
    6600    6594      18    6600    6597      19    6609    6606      18    6612
    6606      18    6612    6609      19    6621    6618      18    6624    6618
      18    6624    6621      19    6633    6630      18    6636    6630      18
    6636    6633      19    6645    6642      18    6648    6642      18    6648
    6645      19    6657    6654      18    6660    6654      18    6660    6657
      19    6669    6666      18    6672    6666      18    6672    6669      19
    6681    6678      18    6684    6678      18    6684    6681      19    6693
    6690      18    6696    6690      18    6696    6693      19    6705    6702
      18    6708    6702      18    6708    6705      19    6717    6714      18
    6720    6714      18    6720    6717      19    6729    6726      18    6732
    6726      18    6732    6729      19    6741    6738      18    6744    6738
      18    6744    6741      19    6753    6750      18    6756    6750      18
    6756    6753      19    6765    6762      18    6768    6762      18    6768
    6765      19    6777    6774      18    6780    6774      18    6780    6777
      19    6789    6786      18    6792    6786      18    6792    6789      19
    6801    6798      18    6804    6798      18    6804    6801      19    6813
    6810      18    6816    6810      18    6816    6813      19    6825    6822
      18    6828    6822      18    6828    6825      19    6837    6834      18
    6840    6834      18    6840    6837      19    6849    6846      18    6852
    6846      18    6852    6849      19    6861    6858      18    6864    6858
      18    6864    6861      19    6873    6870      18    6876    6870      18
    6876    6873      19    6885    6882      18    6888    6882      18    6888
    6885      19    6897    6894      18    6900    6894      18    6900    6897
      19    6909    6906      18    6912    6906      18    6912    6909      19
    6921    6918      18    6924    6918      18    6924    6921      19    6933
    6930      18    6936    6930      18    6936    6933      19    6945    6942
      18    6948    6942      18    6948    6945      19    6957    6954      18
    6960    6954      18    6960    6957      19    6969    6966      18    6972
    6966      18    6972    6969      19    6981    6978      18    6984    6978
      18    6984    6981      19    6993    6990      18    6996    6990      18
    6996    6993      19    7005    7002      18    7008    7002      18    7008
    7005      19    7017    7014      18    7020    7014      18    7020    7017
      19    7029    7026      18    7032    7026      18    7032    7029      19
    7041    7038      18    7044    7038      18    7044    7041      19    7053
    7050      18    7056    7050      18    7056    7053      19    7065    7062
      18    7068    7062      18    7068    7065      19    7077    7074      18
    7080    7074      18    7080    7077      19    7089    7086      18    7092
    7086      18    7092    7089      19    7101    7098      18    7104    7098
      18    7104    7101      19    7113    7110      18    7116    7110      18
    7116    7113      19    7125    7122      18    7128    7122      18    7128
    7125      19    7137    7134      18    7140    7134      18    7140    7137
      19    7149    7146      18    7152    7146      18    7152    7149      19
    7161    7158      18    7164    7158      18    7164    7161      19    7173
    7170      18    7176    7170      18    7176    7173      19    7185    7182
      18    7188    7182      18    7188    7185      19    7197    7194      18
    7200    7194      18    7200    7197      19    7209    7206      18    7212
    7206      18    7212    7209      19    7221    7218      18    7224    7218
      18    7224    7221      19    7233    7230      18    7236    7230      18
    7236    7233      19    7245    7242      18    7248    7242      18    7248
    7245      19    7257    7254      18    7260    7254      18    7260    7257
      19    7269    7266      18    7272    7266      18    7272    7269      19
    7281    7278      18    7284    7278      18    7284    7281      19    7293
    7290      18    7296    7290      18    7296    7293      19    7305    7302
      18    7308    7302      18    7308    7305      19    7317    7314      18
    7320    7314      18    7320    7317      19    7329    7326      18    7332
    7326      18    7332    7329      19    7341    7338      18    7344    7338
      18    7344    7341      19    7353    7350      18    7356    7350      18
    7356    7353      19    7365    7362      18    7368    7362      18    7368
    7365      19    7377    7374      18    7380    7374      18    7380    7377
      19    7389    7386      18    7392    7386      18    7392    7389      19
    7401    7398      18    7404    7398      18    7404    7401      19    7413
    7410      18    7416    7410      18    7416    7413      19    7425    7422
      18    7428    7422      18    7428    7425      19    7437    7434      18
    7440    7434      18    7440    7437      19    7449    7446      18    7452
    7446      18    7452    7449      19    7461    7458      18    7464    7458
      18    7464    7461      19    7473    7470      18    7476    7470      18
    7476    7473      19    7485    7482      18    7488    7482      18    7488
    7485      19    7497    7494      18    7500    7494      18    7500    7497
      19    7509    7506      18    7512    7506      18    7512    7509      19
    7521    7518      18    7524    7518      18    7524    7521      19    7533
    7530      18    7536    7530      18    7536    7533      19    7545    7542
      18    7548    7542      18    7548    7545      19    7557    7554      18
    7560    7554      18    7560    7557      19    7569    7566      18    7572
    7566      18    7572    7569      19    7581    7578      18    7584    7578
      18    7584    7581      19    7593    7590      18    7596    7590      18
    7596    7593      19    7605    7602      18    7608    7602      18    7608
    7605      19    7617    7614      18    7620    7614      18    7620    7617
      19    7629    7626      18    7632    7626      18    7632    7629      19
    7641    7638      18    7644    7638      18    7644    7641      19    7653
    7650      18    7656    7650      18    7656    7653      19    7665    7662
      18    7668    7662      18    7668    7665      19    7677    7674      18
    7680    7674      18    7680    7677      19    7689    7686      18    7692
    7686      18    7692    7689      19    7701    7698      18    7704    7698
      18    7704    7701      19    7713    7710      18    7716    7710      18
    7716    7713      19    7725    7722      18    7728    7722      18    7728
    7725      19    7737    7734      18    7740    7734      18    7740    7737
      19    7749    7746      18    7752    7746      18    7752    7749      19
    7761    7758      18    7764    7758      18    7764    7761      19    7773
    7770      18    7776    7770      18    7776    7773      19    7785    7782
      18    7788    7782      18    7788    7785      19    7797    7794      18
    7800    7794      18    7800    7797      19    7809    7806      18    7812
    7806      18    7812    7809      19    7821    7818      18    7824    7818
      18    7824    7821      19    7833    7830      18    7836    7830      18
    7836    7833      19    7845    7842      18    7848    7842      18    7848
    7845      19    7857    7854      18    7860    7854      18    7860    7857
      19    7869    7866      18    7872    7866      18    7872    7869      19
    7881    7878      18    7884    7878      18    7884    7881      19    7893
    7890      18    7896    7890      18    7896    7893      19    7905    7902
      18    7908    7902      18    7908    7905      19    7917    7914      18
    7920    7914      18    7920    7917      19    7929    7926      18    7932
    7926      18    7932    7929      19    7941    7938      18    7944    7938
      18    7944    7941      19    7953    7950      18    7956    7950      18
    7956    7953      19    7965    7962      18    7968    7962      18    7968
    7965      19    7977    7974      18    7980    7974      18    7980    7977
      19    7989    7986      18    7992    7986      18    7992    7989      19
    8001    7998      18    8004    7998      18    8004    8001      19    8013
    8010      18    8016    8010      18    8016    8013      19    8025    8022
      18    8028    8022      18    8028    8025      19    8037    8034      18
    8040    8034      18    8040    8037      19    8049    8046      18    8052
    8046      18    8052    8049      19    8061    8058      18    8064    8058
      18    8064    8061      19    8073    8070      18    8076    8070      18
    8076    8073      19    8085    8082      18    8088    8082      18    8088
    8085      19    8097    8094      18    8100    8094      18    8100    8097
      19    8109    8106      18    8112    8106      18    8112    8109      19
    8121    8118      18    8124    8118      18    8124    8121      19    8133
    8130      18    8136    8130      18    8136    8133      19    8145    8142
      18    8148    8142      18    8148    8145      19    8157    8154      18
    8160    8154      18    8160    8157      19    8169    8166      18    8172
    8166      18    8172    8169      19    8181    8178      18    8184    8178
      18    8184    8181      19    8193    8190      18    8196    8190      18
    8196    8193      19    8205    8202      18    8208    8202      18    8208
    8205      19    8217    8214      18    8220    8214      18    8220    8217
      19    8229    8226      18    8232    8226      18    8232    8229      19
    8241    8238      18    8244    8238      18    8244    8241      19    8253
    8250      18    8256    8250      18    8256    8253      19    8265    8262
      18    8268    8262      18    8268    8265      19    8277    8274      18
    8280    8274      18    8280    8277      19    8289    8286      18    8292
    8286      18    8292    8289      19    8301    8298      18    8304    8298
      18    8304    8301      19    8313    8310      18    8316    8310      18
    8316    8313      19    8325    8322      18    8328    8322      18    8328
    8325      19    8337    8334      18    8340    8334      18    8340    8337
      19    8349    8346      18    8352    8346      18    8352    8349      19
    8361    8358      18    8364    8358      18    8364    8361      19    8373
    8370      18    8376    8370      18    8376    8373      19    8385    8382
      18    8388    8382      18    8388    8385      19    8397    8394      18
    8400    8394      18    8400    8397      19    8409    8406      18    8412
    8406      18    8412    8409      19    8421    8418      18    8424    8418
      18    8424    8421      19    8433    8430      18    8436    8430      18
    8436    8433      19    8445    8442      18    8448    8442      18    8448
    8445      19    8457    8454      18    8460    8454      18    8460    8457
      19    8469    8466      18    8472    8466      18    8472    8469      19
    8481    8478      18    8484    8478      18    8484    8481      19    8493
    8490      18    8496    8490      18    8496    8493      19    8505    8502
      18    8508    8502      18    8508    8505      19    8517    8514      18
    8520    8514      18    8520    8517      19    8529    8526      18    8532
    8526      18    8532    8529      19    8541    8538      18    8544    8538
      18    8544    8541      19    8553    8550      18    8556    8550      18
    8556    8553      19    8565    8562      18    8568    8562      18    8568
    8565      19    8577    8574      18    8580    8574      18    8580    8577
      19    8589    8586      18    8592    8586      18    8592    8589      19
    8601    8598      18    8604    8598      18    8604    8601      19    8613
    8610      18    8616    8610      18    8616    8613      19    8625    8622
      18    8628    8622      18    8628    8625      19    8637    8634      18
    8640    8634      18    8640    8637      19    8649    8646      18    8652
    8646      18    8652    8649      19    8661    8658      18    8664    8658
      18    8664    8661      19    8673    8670      18    8676    8670      18
    8676    8673      19    8685    8682      18    8688    8682      18    8688
    8685      19    8697    8694      18    8700    8694      18    8700    8697
      19    8709    8706      18    8712    8706      18    8712    8709      19
    8721    8718      18    8724    8718      18    8724    8721      19    8733
    8730      18    8736    8730      18    8736    8733      19    8745    8742
      18    8748    8742      18    8748    8745      19    8757    8754      18
    8760    8754      18    8760    8757      19    8769    8766      18    8772
    8766      18    8772    8769      19    8781    8778      18    8784    8778
      18    8784    8781      19    8793    8790      18    8796    8790      18
    8796    8793      19    8805    8802      18    8808    8802      18    8808
    8805      19    8817    8814      18    8820    8814      18    8820    8817
      19    8829    8826      18    8832    8826      18    8832    8829      19
    8841    8838      18    8844    8838      18    8844    8841      19    8853
    8850      18    8856    8850      18    8856    8853      19    8865    8862
      18    8868    8862      18    8868    8865      19    8877    8874      18
    8880    8874      18    8880    8877      19    8889    8886      18    8892
    8886      18    8892    8889      19    8901    8898      18    8904    8898
      18    8904    8901      19    8913    8910      18    8916    8910      18
    8916    8913      19    8925    8922      18    8928    8922      18    8928
    8925      19    8937    8934      18    8940    8934      18    8940    8937
      19    8949    8946      18    8952    8946      18    8952    8949      19
    8961    8958      18    8964    8958      18    8964    8961      19    8973
    8970      18    8976    8970      18    8976    8973      19    8985    8982
      18    8988    8982      18    8988    8985      19    8997    8994      18
    9000    8994      18    9000    8997      19    9009    9006      18    9012
    9006      18    9012    9009      19    9021    9018      18    9024    9018
      18    9024    9021      19    9033    9030      18    9036    9030      18
    9036    9033      19    9045    9042      18    9048    9042      18    9048
    9045      19    9057    9054      18    9060    9054      18    9060    9057
      19    9069    9066      18    9072    9066      18    9072    9069      19
    9081    9078      18    9084    9078      18    9084    9081      19    9093
    9090      18    9096    9090      18    9096    9093      19    9105    9102
      18    9108    9102      18    9108    9105      19    9117    9114      18
    9120    9114      18    9120    9117      19    9129    9126      18    9132
    9126      18    9132    9129      19    9141    9138      18    9144    9138
      18    9144    9141      19    9153    9150      18    9156    9150      18
    9156    9153      19    9165    9162      18    9168    9162      18    9168
    9165      19    9177    9174      18    9180    9174      18    9180    9177
      19    9189    9186      18    9192    9186      18    9192    9189      19
    9201    9198      18    9204    9198      18    9204    9201      19    9213
    9210      18    9216    9210      18    9216    9213      19    9225    9222
      18    9228    9222      18    9228    9225      19    9237    9234      18
    9240    9234      18    9240    9237      19    9249    9246      18    9252
    9246      18    9252    9249      19    9261    9258      18    9264    9258
      18    9264    9261      19    9273    9270      18    9276    9270      18
    9276    9273      19    9285    9282      18    9288    9282      18    9288
    9285      19    9297    9294      18    9300    9294      18    9300    9297
      19    9309    9306      18    9312    9306      18    9312    9309      19
    9321    9318      18    9324    9318      18    9324    9321      19    9333
    9330      18    9336    9330      18    9336    9333      19    9345    9342
      18    9348    9342      18    9348    9345      19    9357    9354      18
    9360    9354      18    9360    9357      19    9369    9366      18    9372
    9366      18    9372    9369      19    9381    9378      18    9384    9378
      18    9384    9381      19    9393    9390      18    9396    9390      18
    9396    9393      19    9405    9402      18    9408    9402      18    9408
    9405      19    9417    9414      18    9420    9414      18    9420    9417
      19    9429    9426      18    9432    9426      18    9432    9429      19
    9441    9438      18    9444    9438      18    9444    9441      19    9453
    9450      18    9456    9450      18    9456    9453      19    9465    9462
      18    9468    9462      18    9468    9465      19    9477    9474      18
    9480    9474      18    9480    9477      19    9489    9486      18    9492
    9486      18    9492    9489      19    9501    9498      18    9504    9498
      18    9504    9501      19    9513    9510      18    9516    9510      18
    9516    9513      19    9525    9522      18    9528    9522      18    9528
    9525      19    9537    9534      18    9540    9534      18    9540    9537
      19    9549    9546      18    9552    9546      18    9552    9549      19
    9561    9558      18    9564    9558      18    9564    9561      19    9573
    9570      18    9576    9570      18    9576    9573      19    9585    9582
      18    9588    9582      18    9588    9585      19    9597    9594      18
    9600    9594      18    9600    9597      19    9609    9606      18    9612
    9606      18    9612    9609      19    9621    9618      18    9624    9618
      18    9624    9621      19    9633    9630      18    9636    9630      18
    9636    9633      19    9645    9642      18    9648    9642      18    9648
    9645      19    9657    9654      18    9660    9654      18    9660    9657
      19    9669    9666      18    9672    9666      18    9672    9669      19
    9681    9678      18    9684    9678      18    9684    9681      19    9693
    9690      18    9696    9690      18    9696    9693      19    9705    9702
      18    9708    9702      18    9708    9705      19    9717    9714      18
    9720    9714      18    9720    9717      19    9729    9726      18    9732
    9726      18    9732    9729      19    9741    9738      18    9744    9738
      18    9744    9741      19    9753    9750      18    9756    9750      18
    9756    9753      19    9765    9762      18    9768    9762      18    9768
    9765      19    9777    9774      18    9780    9774      18    9780    9777
      19    9789    9786      18    9792    9786      18    9792    9789      19
    9801    9798      18    9804    9798      18    9804    9801      19    9813
    9810      18    9816    9810      18    9816    9813      19    9825    9822
      18    9828    9822      18    9828    9825      19    9837    9834      18
    9840    9834      18    9840    9837      19    9849    9846      18    9852
    9846      18    9852    9849      19    9861    9858      18    9864    9858
      18    9864    9861      19    9873    9870      18    9876    9870      18
    9876    9873      19    9885    9882      18    9888    9882      18    9888
    9885      19    9897    9894      18    9900    9894      18    9900    9897
      19    9909    9906      18    9912    9906      18    9912    9909      19
    9921    9918      18    9924    9918      18    9924    9921      19    9933
    9930      18    9936    9930      18    9936    9933      19    9945    9942
      18    9948    9942      18    9948    9945      19    9957    9954      18
    9960    9954      18    9960    9957      19    9969    9966      18    9972
    9966      18    9972    9969      19    9981    9978      18    9984    9978
      18    9984    9981      19    9993    9990      18    9996    9990      18
    9996    9993      19   10005   10002      18   10008   10002      18   10008
   10005      19   10017   10014      18   10020   10014      18   10020   10017
      19   10029   10026      18   10032   10026      18   10032   10029      19
   10041   10038      18   10044   10038      18   10044   10041      19   10053
   10050      18   10056   10050      18   10056   10053      19   10065   10062
      18   10068   10062      18   10068   10065      19   10077   10074      18
   10080   10074      18   10080   10077      19   10089   10086      18   10092
   10086      18   10092   10089      19   10101   10098      18   10104   10098
      18   10104   10101      19   10113   10110      18   10116   10110      18
   10116   10113      19   10125   10122      18   10128   10122      18   10128
   10125      19   10137   10134      18   10140   10134      18   10140   10137
      19   10149   10146      18   10152   10146      18   10152   10149      19
   10161   10158      18   10164   10158      18   10164   10161      19   10173
   10170      18   10176   10170      18   10176   10173      19   10185   10182
      18   10188   10182      18   10188   10185      19   10197   10194      18
   10200   10194      18   10200   10197      19   10209   10206      18   10212
   10206      18   10212   10209      19   10221   10218      18   10224   10218
      18   10224   10221      19   10233   10230      18   10236   10230      18
   10236   10233      19   10245   10242      18   10248   10242      18   10248
   10245      19   10257   10254      18   10260   10254      18   10260   10257
      19   10269   10266      18   10272   10266      18   10272   10269      19
   10281   10278      18   10284   10278      18   10284   10281      19   10293
   10290      18   10296   10290      18   10296   10293      19   10305   10302
      18   10308   10302      18   10308   10305      19   10317   10314      18
   10320   10314      18   10320   10317      19   10329   10326      18   10332
   10326      18   10332   10329      19   10341   10338      18   10344   10338
      18   10344   10341      19   10353   10350      18   10356   10350      18
   10356   10353      19   10365   10362      18   10368   10362      18   10368
   10365      19   10377   10374      18   10380   10374      18   10380   10377
      19   10389   10386      18   10392   10386      18   10392   10389      19
   10401   10398      18   10404   10398      18   10404   10401      19   10413
   10410      18   10416   10410      18   10416   10413      19   10425   10422
      18   10428   10422      18   10428   10425      19   10437   10434      18
   10440   10434      18   10440   10437      19   10449   10446      18   10452
   10446      18   10452   10449      19   10461   10458      18   10464   10458
      18   10464   10461      19   10473   10470      18   10476   10470      18
   10476   10473      19   10485   10482      18   10488   10482      18   10488
   10485      19   10497   10494      18   10500   10494      18   10500   10497
      19   10509   10506      18   10512   10506      18   10512   10509      19
   10521   10518      18   10524   10518      18   10524   10521      19   10533
   10530      18   10536   10530      18   10536   10533      19   10545   10542
      18   10548   10542      18   10548   10545      19   10557   10554      18
   10560   10554      18   10560   10557      19   10569   10566      18   10572
   10566      18   10572   10569      19   10581   10578      18   10584   10578
      18   10584   10581      19   10593   10590      18   10596   10590      18
   10596   10593      19   10605   10602      18   10608   10602      18   10608
   10605      19   10617   10614      18   10620   10614      18   10620   10617
      19   10629   10626      18   10632   10626      18   10632   10629      19
   10641   10638      18   10644   10638      18   10644   10641      19   10653
   10650      18   10656   10650      18   10656   10653      19   10665   10662
      18   10668   10662      18   10668   10665      19   10677   10674      18
   10680   10674      18   10680   10677      19   10689   10686      18   10692
   10686      18   10692   10689      19   10701   10698      18   10704   10698
      18   10704   10701      19   10713   10710      18   10716   10710      18
   10716   10713      19   10725   10722      18   10728   10722      18   10728
   10725      19   10737   10734      18   10740   10734      18   10740   10737
      19   10749   10746      18   10752   10746      18   10752   10749      19
   10761   10758      18   10764   10758      18   10764   10761      19   10773
   10770      18   10776   10770      18   10776   10773      19   10785   10782
      18   10788   10782      18   10788   10785      19   10797   10794      18
   10800   10794      18   10800   10797      19   10809   10806      18   10812
   10806      18   10812   10809      19   10821   10818      18   10824   10818
      18   10824   10821      19   10833   10830      18   10836   10830      18
   10836   10833      19   10845   10842      18   10848   10842      18   10848
   10845      19   10857   10854      18   10860   10854      18   10860   10857
      19   10869   10866      18   10872   10866      18   10872   10869      19
   10881   10878      18   10884   10878      18   10884   10881      19   10893
   10890      18   10896   10890      18   10896   10893      19   10905   10902
      18   10908   10902      18   10908   10905      19   10917   10914      18
   10920   10914      18   10920   10917      19   10929   10926      18   10932
   10926      18   10932   10929      19   10941   10938      18   10944   10938
      18   10944   10941      19   10953   10950      18   10956   10950      18
   10956   10953      19   10965   10962      18   10968   10962      18   10968
   10965      19   10977   10974      18   10980   10974      18   10980   10977
      19   10989   10986      18   10992   10986      18   10992   10989      19
   11001   10998      18   11004   10998      18   11004   11001      19   11013
   11010      18   11016   11010      18   11016   11013      19   11025   11022
      18   11028   11022      18   11028   11025      19   11037   11034      18
   11040   11034      18   11040   11037      19   11049   11046      18   11052
   11046      18   11052   11049      19   11061   11058      18   11064   11058
      18   11064   11061      19   11073   11070      18   11076   11070      18
   11076   11073      19   11085   11082      18   11088   11082      18   11088
   11085      19   11097   11094      18   11100   11094      18   11100   11097
      19   11109   11106      18   11112   11106      18   11112   11109      19
   11121   11118      18   11124   11118      18   11124   11121      19   11133
   11130      18   11136   11130      18   11136   11133      19   11145   11142
      18   11148   11142      18   11148   11145      19   11157   11154      18
   11160   11154      18   11160   11157      19   11169   11166      18   11172
   11166      18   11172   11169      19   11181   11178      18   11184   11178
      18   11184   11181      19   11193   11190      18   11196   11190      18
   11196   11193      19   11205   11202      18   11208   11202      18   11208
   11205      19   11217   11214      18   11220   11214      18   11220   11217
      19   11229   11226      18   11232   11226      18   11232   11229      19
   11241   11238      18   11244   11238      18   11244   11241      19   11253
   11250      18   11256   11250      18   11256   11253      19   11265   11262
      18   11268   11262      18   11268   11265      19   11277   11274      18
   11280   11274      18   11280   11277      19   11289   11286      18   11292
   11286      18   11292   11289      19   11301   11298      18   11304   11298
      18   11304   11301      19   11313   11310      18   11316   11310      18
   11316   11313      19   11325   11322      18   11328   11322      18   11328
   11325      19   11337   11334      18   11340   11334      18   11340   11337
      19   11349   11346      18   11352   11346      18   11352   11349      19
   11361   11358      18   11364   11358      18   11364   11361      19   11373
   11370      18   11376   11370      18   11376   11373      19   11385   11382
      18   11388   11382      18   11388   11385      19   11397   11394      18
   11400   11394      18   11400   11397      19   11409   11406      18   11412
   11406      18   11412   11409      19   11421   11418      18   11424   11418
      18   11424   11421      19   11433   11430      18   11436   11430      18
   11436   11433      19   11445   11442      18   11448   11442      18   11448
   11445      19   11457   11454      18   11460   11454      18   11460   11457
      19   11469   11466      18   11472   11466      18   11472   11469      19
   11481   11478      18   11484   11478      18   11484   11481      19   11493
   11490      18   11496   11490      18   11496   11493      19   11505   11502
      18   11508   11502      18   11508   11505      19   11517   11514      18
   11520   11514      18   11520   11517      19   11529   11526      18   11532
   11526      18   11532   11529      19   11541   11538      18   11544   11538
      18   11544   11541      19   11553   11550      18   11556   11550      18
   11556   11553      19   11565   11562      18   11568   11562      18   11568
   11565      19   11577   11574      18   11580   11574      18   11580   11577
      19   11589   11586      18   11592   11586      18   11592   11589      19
   11601   11598      18   11604   11598      18   11604   11601      19   11613
   11610      18   11616   11610      18   11616   11613      19   11625   11622
      18   11628   11622      18   11628   11625      19   11637   11634      18
   11640   11634      18   11640   11637      19   11649   11646      18   11652
   11646      18   11652   11649      19   11661   11658      18   11664   11658
      18   11664   11661      19   11673   11670      18   11676   11670      18
   11676   11673      19   11685   11682      18   11688   11682      18   11688
   11685      19   11697   11694      18   11700   11694      18   11700   11697
      19   11709   11706      18   11712   11706      18   11712   11709      19
   11721   11718      18   11724   11718      18   11724   11721      19   11733
   11730      18   11736   11730      18   11736   11733      19   11745   11742
      18   11748   11742      18   11748   11745      19   11757   11754      18
   11760   11754      18   11760   11757      19   11769   11766      18   11772
   11766      18   11772   11769      19   11781   11778      18   11784   11778
      18   11784   11781      19   11793   11790      18   11796   11790      18
   11796   11793      19   11805   11802      18   11808   11802      18   11808
   11805      19   11817   11814      18   11820   11814      18   11820   11817
      19   11829   11826      18   11832   11826      18   11832   11829      19
   11841   11838      18   11844   11838      18   11844   11841      19   11853
   11850      18   11856   11850      18   11856   11853      19   11865   11862
      18   11868   11862      18   11868   11865      19   11877   11874      18
   11880   11874      18   11880   11877      19   11889   11886      18   11892
   11886      18   11892   11889      19   11901   11898      18   11904   11898
      18   11904   11901      19   11913   11910      18   11916   11910      18
   11916   11913      19   11925   11922      18   11928   11922      18   11928
   11925      19   11937   11934      18   11940   11934      18   11940   11937
      19   11949   11946      18   11952   11946      18   11952   11949      19
   11961   11958      18   11964   11958      18   11964   11961      19   11973
   11970      18   11976   11970      18   11976   11973      19   11985   11982
      18   11988   11982      18   11988   11985      19   11997   11994      18
   12000   11994      18   12000   11997      19   12009   12006      18   12012
   12006      18   12012   12009      19   12021   12018      18   12024   12018
      18   12024   12021      19   12033   12030      18   12036   12030      18
   12036   12033      19   12045   12042      18   12048   12042      18   12048
   12045      19   12057   12054      18   12060   12054      18   12060   12057
      19   12069   12066      18   12072   12066      18   12072   12069      19
   12081   12078      18   12084   12078      18   12084   12081      19   12093
   12090      18   12096   12090      18   12096   12093      19   12105   12102
      18   12108   12102      18   12108   12105      19   12117   12114      18
   12120   12114      18   12120   12117      19   12129   12126      18   12132
   12126      18   12132   12129      19   12141   12138      18   12144   12138
      18   12144   12141      19   12153   12150      18   12156   12150      18
   12156   12153      19   12165   12162      18   12168   12162      18   12168
   12165      19   12177   12174      18   12180   12174      18   12180   12177
      19   12189   12186      18   12192   12186      18   12192   12189      19
   12201   12198      18   12204   12198      18   12204   12201      19   12213
   12210      18   12216   12210      18   12216   12213      19   12225   12222
      18   12228   12222      18   12228   12225      19   12237   12234      18
   12240   12234      18   12240   12237      19   12249   12246      18   12252
   12246      18   12252   12249      19   12261   12258      18   12264   12258
      18   12264   12261      19   12273   12270      18   12276   12270      18
   12276   12273      19   12285   12282      18   12288   12282      18   12288
   12285      19   12297   12294      18   12300   12294      18   12300   12297
      19   12309   12306      18   12312   12306      18   12312   12309      19
   12321   12318      18   12324   12318      18   12324   12321      19   12333
   12330      18   12336   12330      18   12336   12333      19   12345   12342
      18   12348   12342      18   12348   12345      19   12357   12354      18
   12360   12354      18   12360   12357      19   12369   12366      18   12372
   12366      18   12372   12369      19   12381   12378      18   12384   12378
      18   12384   12381      19   12393   12390      18   12396   12390      18
   12396   12393      19   12405   12402      18   12408   12402      18   12408
   12405      19   12417   12414      18   12420   12414      18   12420   12417
      19   12429   12426      18   12432   12426      18   12432   12429      19
   12441   12438      18   12444   12438      18   12444   12441      19   12453
   12450      18   12456   12450      18   12456   12453      19   12465   12462
      18   12468   12462      18   12468   12465      19   12477   12474      18
   12480   12474      18   12480   12477      19   12489   12486      18   12492
   12486      18   12492   12489      19   12501   12498      18   12504   12498
      18   12504   12501      19   12513   12510      18   12516   12510      18
   12516   12513      19   12525   12522      18   12528   12522      18   12528
   12525      19   12537   12534      18   12540   12534      18   12540   12537
      19   12549   12546      18   12552   12546      18   12552   12549      19
   12561   12558      18   12564   12558      18   12564   12561      19   12573
   12570      18   12576   12570      18   12576   12573      19   12585   12582
      18   12588   12582      18   12588   12585      19   12597   12594      18
   12600   12594      18   12600   12597      19   12609   12606      18   12612
   12606      18   12612   12609      19   12621   12618      18   12624   12618
      18   12624   12621      19   12633   12630      18   12636   12630      18
   12636   12633      19   12645   12642      18   12648   12642      18   12648
   12645      19   12657   12654      18   12660   12654      18   12660   12657
      19   12669   12666      18   12672   12666      18   12672   12669      19
   12681   12678      18   12684   12678      18   12684   12681      19   12693
   12690      18   12696   12690      18   12696   12693      19   12705   12702
      18   12708   12702      18   12708   12705      19   12717   12714      18
   12720   12714      18   12720   12717      19   12729   12726      18   12732
   12726      18   12732   12729      19   12741   12738      18   12744   12738
      18   12744   12741      19   12753   12750      18   12756   12750      18
   12756   12753      19   12765   12762      18   12768   12762      18   12768
   12765      19   12777   12774      18   12780   12774      18   12780   12777
      19   12789   12786      18   12792   12786      18   12792   12789      19
   12801   12798      18   12804   12798      18   12804   12801      19   12813
   12810      18   12816   12810      18   12816   12813      19   12825   12822
      18   12828   12822      18   12828   12825      19   12837   12834      18
   12840   12834      18   12840   12837      19   12849   12846      18   12852
   12846      18   12852   12849      19   12861   12858      18   12864   12858
      18   12864   12861      19   12873   12870      18   12876   12870      18
   12876   12873      19   12885   12882      18   12888   12882      18   12888
   12885      19   12897   12894      18   12900   12894      18   12900   12897
      19   12909   12906      18   12912   12906      18   12912   12909      19
   12921   12918      18   12924   12918      18   12924   12921      19   12933
   12930      18   12936   12930      18   12936   12933      19   12945   12942
      18   12948   12942      18   12948   12945      19   12957   12954      18
   12960   12954      18   12960   12957      19   12969   12966      18   12972
   12966      18   12972   12969      19   12981   12978      18   12984   12978
      18   12984   12981      19   12993   12990      18   12996   12990      18
   12996   12993      19   13005   13002      18   13008   13002      18   13008
   13005      19   13017   13014      18   13020   13014      18   13020   13017
      19   13029   13026      18   13032   13026      18   13032   13029      19
   13041   13038      18   13044   13038      18   13044   13041      19   13053
   13050      18   13056   13050      18   13056   13053      19   13065   13062
      18   13068   13062      18   13068   13065      19   13077   13074      18
   13080   13074      18   13080   13077      19   13089   13086      18   13092
   13086      18   13092   13089      19   13101   13098      18   13104   13098
      18   13104   13101      19   13113   13110      18   13116   13110      18
   13116   13113      19   13125   13122      18   13128   13122      18   13128
   13125      19   13137   13134      18   13140   13134      18   13140   13137
      19   13149   13146      18   13152   13146      18   13152   13149      19
   13161   13158      18   13164   13158      18   13164   13161      19   13173
   13170      18   13176   13170      18   13176   13173      19   13185   13182
      18   13188   13182      18   13188   13185      19   13197   13194      18
   13200   13194      18   13200   13197      19   13209   13206      18   13212
   13206      18   13212   13209      19   13221   13218      18   13224   13218
      18   13224   13221      19   13233   13230      18   13236   13230      18
   13236   13233      19   13245   13242      18   13248   13242      18   13248
   13245      19   13257   13254      18   13260   13254      18   13260   13257
      19   13269   13266      18   13272   13266      18   13272   13269      19
   13281   13278      18   13284   13278      18   13284   13281      19   13293
   13290      18   13296   13290      18   13296   13293      19   13305   13302
      18   13308   13302      18   13308   13305      19   13317   13314      18
   13320   13314      18   13320   13317      19   13329   13326      18   13332
   13326      18   13332   13329      19   13341   13338      18   13344   13338
      18   13344   13341      19   13353   13350      18   13356   13350      18
   13356   13353      19   13365   13362      18   13368   13362      18   13368
   13365      19   13377   13374      18   13380   13374      18   13380   13377
      19   13389   13386      18   13392   13386      18   13392   13389      19
   13401   13398      18   13404   13398      18   13404   13401      19   13413
   13410      18   13416   13410      18   13416   13413      19   13425   13422
      18   13428   13422      18   13428   13425      19   13437   13434      18
   13440   13434      18   13440   13437      19   13449   13446      18   13452
   13446      18   13452   13449      19   13461   13458      18   13464   13458
      18   13464   13461      19   13473   13470      18   13476   13470      18
   13476   13473      19   13485   13482      18   13488   13482      18   13488
   13485      19   13497   13494      18   13500   13494      18   13500   13497
      19   13509   13506      18   13512   13506      18   13512   13509      19
   13521   13518      18   13524   13518      18   13524   13521      19   13533
   13530      18   13536   13530      18   13536   13533      19   13545   13542
      18   13548   13542      18   13548   13545      19   13557   13554      18
   13560   13554      18   13560   13557      19   13569   13566      18   13572
   13566      18   13572   13569      19   13581   13578      18   13584   13578
      18   13584   13581      19   13593   13590      18   13596   13590      18
   13596   13593      19   13605   13602      18   13608   13602      18   13608
   13605      19   13617   13614      18   13620   13614      18   13620   13617
      19   13629   13626      18   13632   13626      18   13632   13629      19
   13641   13638      18   13644   13638      18   13644   13641      19   13653
   13650      18   13656   13650      18   13656   13653      19   13665   13662
      18   13668   13662      18   13668   13665      19   13677   13674      18
   13680   13674      18   13680   13677      19   13689   13686      18   13692
   13686      18   13692   13689      19   13701   13698      18   13704   13698
      18   13704   13701      19   13713   13710      18   13716   13710      18
   13716   13713      19   13725   13722      18   13728   13722      18   13728
   13725      19   13737   13734      18   13740   13734      18   13740   13737
      19   13749   13746      18   13752   13746      18   13752   13749      19
   13761   13758      18   13764   13758      18   13764   13761      19   13773
   13770      18   13776   13770      18   13776   13773      19   13785   13782
      18   13788   13782      18   13788   13785      19   13797   13794      18
   13800   13794      18   13800   13797      19   13809   13806      18   13812
   13806      18   13812   13809      19   13821   13818      18   13824   13818
      18   13824   13821      19   13833   13830      18   13836   13830      18
   13836   13833      19   13845   13842      18   13848   13842      18   13848
   13845      19   13857   13854      18   13860   13854      18   13860   13857
      19   13869   13866      18   13872   13866      18   13872   13869      19
   13881   13878      18   13884   13878      18   13884   13881      19   13893
   13890      18   13896   13890      18   13896   13893      19   13905   13902
      18   13908   13902      18   13908   13905      19   13917   13914      18
   13920   13914      18   13920   13917      19   13929   13926      18   13932
   13926      18   13932   13929      19   13941   13938      18   13944   13938
      18   13944   13941      19   13953   13950      18   13956   13950      18
   13956   13953      19   13965   13962      18   13968   13962      18   13968
   13965      19   13977   13974      18   13980   13974      18   13980   13977
      19   13989   13986      18   13992   13986      18   13992   13989      19
   14001   13998      18   14004   13998      18   14004   14001      19   14013
   14010      18   14016   14010      18   14016   14013      19   14025   14022
      18   14028   14022      18   14028   14025      19   14037   14034      18
   14040   14034      18   14040   14037      19   14049   14046      18   14052
   14046      18   14052   14049      19   14061   14058      18   14064   14058
      18   14064   14061      19   14073   14070      18   14076   14070      18
   14076   14073      19   14085   14082      18   14088   14082      18   14088
   14085      19   14097   14094      18   14100   14094      18   14100   14097
      19   14109   14106      18   14112   14106      18   14112   14109      19
   14121   14118      18   14124   14118      18   14124   14121      19   14133
   14130      18   14136   14130      18   14136   14133      19   14145   14142
      18   14148   14142      18   14148   14145      19   14157   14154      18
   14160   14154      18   14160   14157      19   14169   14166      18   14172
   14166      18   14172   14169      19   14181   14178      18   14184   14178
      18   14184   14181      19   14193   14190      18   14196   14190      18
   14196   14193      19   14205   14202      18   14208   14202      18   14208
   14205      19   14217   14214      18   14220   14214      18   14220   14217
      19   14229   14226      18   14232   14226      18   14232   14229      19
   14241   14238      18   14244   14238      18   14244   14241      19   14253
   14250      18   14256   14250      18   14256   14253      19   14265   14262
      18   14268   14262      18   14268   14265      19   14277   14274      18
   14280   14274      18   14280   14277      19   14289   14286      18   14292
   14286      18   14292   14289      19   14301   14298      18   14304   14298
      18   14304   14301      19   14313   14310      18   14316   14310      18
   14316   14313      19   14325   14322      18   14328   14322      18   14328
   14325      19   14337   14334      18   14340   14334      18   14340   14337
      19   14349   14346      18   14352   14346      18   14352   14349      19
   14361   14358      18   14364   14358      18   14364   14361      19   14373
   14370      18   14376   14370      18   14376   14373      19   14385   14382
      18   14388   14382      18   14388   14385      19   14397   14394      18
   14400   14394      18   14400   14397      19   14409   14406      18   14412
   14406      18   14412   14409      19   14421   14418      18   14424   14418
      18   14424   14421      19   14433   14430      18   14436   14430      18
   14436   14433      19   14445   14442      18   14448   14442      18   14448
   14445      19   14457   14454      18   14460   14454      18   14460   14457
      19   14469   14466      18   14472   14466      18   14472   14469      19
   14481   14478      18   14484   14478      18   14484   14481      19   14493
   14490      18   14496   14490      18   14496   14493      19   14505   14502
      18   14508   14502      18   14508   14505      19   14517   14514      18
   14520   14514      18   14520   14517      19   14529   14526      18   14532
   14526      18   14532   14529      19   14541   14538      18   14544   14538
      18   14544   14541      19   14553   14550      18   14556   14550      18
   14556   14553      19   14565   14562      18   14568   14562      18   14568
   14565      19   14577   14574      18   14580   14574      18   14580   14577
      19   14589   14586      18   14592   14586      18   14592   14589      19
   14601   14598      18   14604   14598      18   14604   14601      19   14613
   14610      18   14616   14610      18   14616   14613      19   14625   14622
      18   14628   14622      18   14628   14625      19   14637   14634      18
   14640   14634      18   14640   14637      19   14649   14646      18   14652
   14646      18   14652   14649      19   14661   14658      18   14664   14658
      18   14664   14661      19   14673   14670      18   14676   14670      18
   14676   14673      19   14685   14682      18   14688   14682      18   14688
   14685      19   14697   14694      18   14700   14694      18   14700   14697
      19   14709   14706      18   14712   14706      18   14712   14709      19
   14721   14718      18   14724   14718      18   14724   14721      19   14733
   14730      18   14736   14730      18   14736   14733      19   14745   14742
      18   14748   14742      18   14748   14745      19   14757   14754      18
   14760   14754      18   14760   14757      19   14769   14766      18   14772
   14766      18   14772   14769      19   14781   14778      18   14784   14778
      18   14784   14781      19   14793   14790      18   14796   14790      18
   14796   14793      19   14805   14802      18   14808   14802      18   14808
   14805      19   14817   14814      18   14820   14814      18   14820   14817
      19   14829   14826      18   14832   14826      18   14832   14829      19
   14841   14838      18   14844   14838      18   14844   14841      19   14853
   14850      18   14856   14850      18   14856   14853      19   14865   14862
      18   14868   14862      18   14868   14865      19   14877   14874      18
   14880   14874      18   14880   14877      19   14889   14886      18   14892
   14886      18   14892   14889      19   14901   14898      18   14904   14898
      18   14904   14901      19   14913   14910      18   14916   14910      18
   14916   14913      19   14925   14922      18   14928   14922      18   14928
   14925      19   14937   14934      18   14940   14934      18   14940   14937
      19   14949   14946      18   14952   14946      18   14952   14949      19
   14961   14958      18   14964   14958      18   14964   14961      19   14973
   14970      18   14976   14970      18   14976   14973      19   14985   14982
      18   14988   14982      18   14988   14985      19   14997   14994      18
   15000   14994      18   15000   14997      19   15009   15006      18   15012
   15006      18   15012   15009      19   15021   15018      18   15024   15018
      18   15024   15021      19   15033   15030      18   15036   15030      18
   15036   15033      19   15045   15042      18   15048   15042      18   15048
   15045      19   15057   15054      18   15060   15054      18   15060   15057
      19   15069   15066      18   15072   15066      18   15072   15069      19
   15081   15078      18   15084   15078      18   15084   15081      19   15093
   15090      18   15096   15090      18   15096   15093      19   15105   15102
      18   15108   15102      18   15108   15105      19   15117   15114      18
   15120   15114      18   15120   15117      19   15129   15126      18   15132
   15126      18   15132   15129      19   15141   15138      18   15144   15138
      18   15144   15141      19   15153   15150      18   15156   15150      18
   15156   15153      19   15165   15162      18   15168   15162      18   15168
   15165      19   15177   15174      18   15180   15174      18   15180   15177
      19   15189   15186      18   15192   15186      18   15192   15189      19
   15201   15198      18   15204   15198      18   15204   15201      19   15213
   15210      18   15216   15210      18   15216   15213      19   15225   15222
      18   15228   15222      18   15228   15225      19   15237   15234      18
   15240   15234      18   15240   15237      19   15249   15246      18   15252
   15246      18   15252   15249      19   15261   15258      18   15264   15258
      18   15264   15261      19   15273   15270      18   15276   15270      18
   15276   15273      19   15285   15282      18   15288   15282      18   15288
   15285      19   15297   15294      18   15300   15294      18   15300   15297
      19   15309   15306      18   15312   15306      18   15312   15309      19
   15321   15318      18   15324   15318      18   15324   15321      19   15333
   15330      18   15336   15330      18   15336   15333      19   15345   15342
      18   15348   15342      18   15348   15345      19   15357   15354      18
   15360   15354      18   15360   15357      19   15369   15366      18   15372
   15366      18   15372   15369      19   15381   15378      18   15384   15378
      18   15384   15381      19   15393   15390      18   15396   15390      18
   15396   15393      19   15405   15402      18   15408   15402      18   15408
   15405      19   15417   15414      18   15420   15414      18   15420   15417
      19   15429   15426      18   15432   15426      18   15432   15429      19
   15441   15438      18   15444   15438      18   15444   15441      19   15453
   15450      18   15456   15450      18   15456   15453      19   15465   15462
      18   15468   15462      18   15468   15465      19   15477   15474      18
   15480   15474      18   15480   15477      19   15489   15486      18   15492
   15486      18   15492   15489      19   15501   15498      18   15504   15498
      18   15504   15501      19   15513   15510      18   15516   15510      18
   15516   15513      19   15525   15522      18   15528   15522      18   15528
   15525      19   15537   15534      18   15540   15534      18   15540   15537
      19   15549   15546      18   15552   15546      18   15552   15549      19
   15561   15558      18   15564   15558      18   15564   15561      19   15573
   15570      18   15576   15570      18   15576   15573      19   15585   15582
      18   15588   15582      18   15588   15585      19   15597   15594      18
   15600   15594      18   15600   15597      19   15609   15606      18   15612
   15606      18   15612   15609      19   15621   15618      18   15624   15618
      18   15624   15621      19   15633   15630      18   15636   15630      18
   15636   15633      19   15645   15642      18   15648   15642      18   15648
   15645      19   15657   15654      18   15660   15654      18   15660   15657
      19   15669   15666      18   15672   15666      18   15672   15669      19
   15681   15678      18   15684   15678      18   15684   15681      19   15693
   15690      18   15696   15690      18   15696   15693      19   15705   15702
      18   15708   15702      18   15708   15705      19   15717   15714      18
   15720   15714      18   15720   15717      19   15729   15726      18   15732
   15726      18   15732   15729      19   15741   15738      18   15744   15738
      18   15744   15741      19   15753   15750      18   15756   15750      18
   15756   15753      19   15765   15762      18   15768   15762      18   15768
   15765      19   15777   15774      18   15780   15774      18   15780   15777
      19   15789   15786      18   15792   15786      18   15792   15789      19
   15801   15798      18   15804   15798      18   15804   15801      19   15813
   15810      18   15816   15810      18   15816   15813      19   15825   15822
      18   15828   15822      18   15828   15825      19   15837   15834      18
   15840   15834      18   15840   15837      19   15849   15846      18   15852
   15846      18   15852   15849      19   15861   15858      18   15864   15858
      18   15864   15861      19   15873   15870      18   15876   15870      18
   15876   15873      19   15885   15882      18   15888   15882      18   15888
   15885      19   15897   15894      18   15900   15894      18   15900   15897
      19   15909   15906      18   15912   15906      18   15912   15909      19
   15921   15918      18   15924   15918      18   15924   15921      19   15933
   15930      18   15936   15930      18   15936   15933      19   15945   15942
      18   15948   15942      18   15948   15945      19   15957   15954      18
   15960   15954      18   15960   15957      19   15969   15966      18   15972
   15966      18   15972   15969      19   15981   15978      18   15984   15978
      18   15984   15981      19   15993   15990      18   15996   15990      18
   15996   15993      19   16005   16002      18   16008   16002      18   16008
   16005      19   16017   16014      18   16020   16014      18   16020   16017
      19   16029   16026      18   16032   16026      18   16032   16029      19
   16041   16038      18   16044   16038      18   16044   16041      19   16053
   16050      18   16056   16050      18   16056   16053      19   16065   16062
      18   16068   16062      18   16068   16065      19   16077   16074      18
   16080   16074      18   16080   16077      19   16089   16086      18   16092
   16086      18   16092   16089      19   16101   16098      18   16104   16098
      18   16104   16101      19   16113   16110      18   16116   16110      18
   16116   16113      19   16125   16122      18   16128   16122      18   16128
   16125      19   16137   16134      18   16140   16134      18   16140   16137
      19   16149   16146      18   16152   16146      18   16152   16149      19
   16161   16158      18   16164   16158      18   16164   16161      19   16173
   16170      18   16176   16170      18   16176   16173      19   16185   16182
      18   16188   16182      18   16188   16185      19   16197   16194      18
   16200   16194      18   16200   16197      19   16209   16206      18   16212
   16206      18   16212   16209      19   16221   16218      18   16224   16218
      18   16224   16221      19   16233   16230      18   16236   16230      18
   16236   16233      19   16245   16242      18   16248   16242      18   16248
   16245      19   16257   16254      18   16260   16254      18   16260   16257
      19   16269   16266      18   16272   16266      18   16272   16269      19
   16281   16278      18   16284   16278      18   16284   16281      19   16293
   16290      18   16296   16290      18   16296   16293      19   16305   16302
      18   16308   16302      18   16308   16305      19   16317   16314      18
   16320   16314      18   16320   16317      19   16329   16326      18   16332
   16326      18   16332   16329      19   16341   16338      18   16344   16338
      18   16344   16341      19   16353   16350      18   16356   16350      18
   16356   16353      19   16365   16362      18   16368   16362      18   16368
   16365      19   16377   16374      18   16380   16374      18   16380   16377
      19   16389   16386      18   16392   16386      18   16392   16389      19
   16401   16398      18   16404   16398      18   16404   16401      19   16413
   16410      18   16416   16410      18   16416   16413      19   16425   16422
      18   16428   16422      18   16428   16425      19   16437   16434      18
   16440   16434      18   16440   16437      19   16449   16446      18   16452
   16446      18   16452   16449      19   16461   16458      18   16464   16458
      18   16464   16461      19   16473   16470      18   16476   16470      18
   16476   16473      19   16485   16482      18   16488   16482      18   16488
   16485      19   16497   16494      18   16500   16494      18   16500   16497
      19   16509   16506      18   16512   16506      18   16512   16509      19
   16521   16518      18   16524   16518      18   16524   16521      19   16533
   16530      18   16536   16530      18   16536   16533      19   16545   16542
      18   16548   16542      18   16548   16545      19   16557   16554      18
   16560   16554      18   16560   16557      19   16569   16566      18   16572
   16566      18   16572   16569      19   16581   16578      18   16584   16578
      18   16584   16581      19   16593   16590      18   16596   16590      18
   16596   16593      19   16605   16602      18   16608   16602      18   16608
   16605      19   16617   16614      18   16620   16614      18   16620   16617
      19   16629   16626      18   16632   16626      18   16632   16629      19
   16641   16638      18   16644   16638      18   16644   16641      19   16653
   16650      18   16656   16650      18   16656   16653      19   16665   16662
      18   16668   16662      18   16668   16665      19   16677   16674      18
   16680   16674      18   16680   16677      19   16689   16686      18   16692
   16686      18   16692   16689      19   16701   16698      18   16704   16698
      18   16704   16701      19   16713   16710      18   16716   16710      18
   16716   16713      19   16725   16722      18   16728   16722      18   16728
   16725      19   16737   16734      18   16740   16734      18   16740   16737
      19   16749   16746      18   16752   16746      18   16752   16749      19
   16761   16758      18   16764   16758      18   16764   16761      19   16773
   16770      18   16776   16770      18   16776   16773      19   16785   16782
      18   16788   16782      18   16788   16785      19   16797   16794      18
   16800   16794      18   16800   16797      19   16809   16806      18   16812
   16806      18   16812   16809      19   16821   16818      18   16824   16818
      18   16824   16821      19   16833   16830      18   16836   16830      18
   16836   16833      19   16845   16842      18   16848   16842      18   16848
   16845      19   16857   16854      18   16860   16854      18   16860   16857
      19   16869   16866      18   16872   16866      18   16872   16869      19
   16881   16878      18   16884   16878      18   16884   16881      19   16893
   16890      18   16896   16890      18   16896   16893      19   16905   16902
      18   16908   16902      18   16908   16905      19   16917   16914      18
   16920   16914      18   16920   16917      19   16929   16926      18   16932
   16926      18   16932   16929      19   16941   16938      18   16944   16938
      18   16944   16941      19   16953   16950      18   16956   16950      18
   16956   16953      19   16965   16962      18   16968   16962      18   16968
   16965      19   16977   16974      18   16980   16974      18   16980   16977
      19   16989   16986      18   16992   16986      18   16992   16989      19
   17001   16998      18   17004   16998      18   17004   17001      19   17013
   17010      18   17016   17010      18   17016   17013      19   17025   17022
      18   17028   17022      18   17028   17025      19   17037   17034      18
   17040   17034      18   17040   17037      19   17049   17046      18   17052
   17046      18   17052   17049      19   17061   17058      18   17064   17058
      18   17064   17061      19   17073   17070      18   17076   17070      18
   17076   17073      19   17085   17082      18   17088   17082      18   17088
   17085      19   17097   17094      18   17100   17094      18   17100   17097
      19   17109   17106      18   17112   17106      18   17112   17109      19
   17121   17118      18   17124   17118      18   17124   17121      19   17133
   17130      18   17136   17130      18   17136   17133      19   17145   17142
      18   17148   17142      18   17148   17145      19   17157   17154      18
   17160   17154      18   17160   17157      19   17169   17166      18   17172
   17166      18   17172   17169      19   17181   17178      18   17184   17178
      18   17184   17181      19   17193   17190      18   17196   17190      18
   17196   17193      19   17205   17202      18   17208   17202      18   17208
   17205      19   17217   17214      18   17220   17214      18   17220   17217
      19   17229   17226      18   17232   17226      18   17232   17229      19
   17241   17238      18   17244   17238      18   17244   17241      19   17253
   17250      18   17256   17250      18   17256   17253      19   17265   17262
      18   17268   17262      18   17268   17265      19   17277   17274      18
   17280   17274      18   17280   17277      19   17289   17286      18   17292
   17286      18   17292   17289      19   17301   17298      18   17304   17298
      18   17304   17301      19   17313   17310      18   17316   17310      18
   17316   17313      19   17325   17322      18   17328   17322      18   17328
   17325      19   17337   17334      18   17340   17334      18   17340   17337
      19   17349   17346      18   17352   17346      18   17352   17349      19
   17361   17358      18   17364   17358      18   17364   17361      19   17373
   17370      18   17376   17370      18   17376   17373      19   17385   17382
      18   17388   17382      18   17388   17385      19   17397   17394      18
   17400   17394      18   17400   17397      19   17409   17406      18   17412
   17406      18   17412   17409      19   17421   17418      18   17424   17418
      18   17424   17421      19   17433   17430      18   17436   17430      18
   17436   17433      19   17445   17442      18   17448   17442      18   17448
   17445      19   17457   17454      18   17460   17454      18   17460   17457
      19   17469   17466      18   17472   17466      18   17472   17469      19
   17481   17478      18   17484   17478      18   17484   17481      19   17493
   17490      18   17496   17490      18   17496   17493      19   17505   17502
      18   17508   17502      18   17508   17505      19   17517   17514      18
   17520   17514      18   17520   17517      19   17529   17526      18   17532
   17526      18   17532   17529      19   17541   17538      18   17544   17538
      18   17544   17541      19   17553   17550      18   17556   17550      18
   17556   17553      19   17565   17562      18   17568   17562      18   17568
   17565      19   17577   17574      18   17580   17574      18   17580   17577
      19   17589   17586      18   17592   17586      18   17592   17589      19
   17601   17598      18   17604   17598      18   17604   17601      19   17613
   17610      18   17616   17610      18   17616   17613      19   17625   17622
      18   17628   17622      18   17628   17625      19   17637   17634      18
   17640   17634      18   17640   17637      19   17649   17646      18   17652
   17646      18   17652   17649      19   17661   17658      18   17664   17658
      18   17664   17661      19   17673   17670      18   17676   17670      18
   17676   17673      19   17685   17682      18   17688   17682      18   17688
   17685      19   17697   17694      18   17700   17694      18   17700   17697
      19   17709   17706      18   17712   17706      18   17712   17709      19
   17721   17718      18   17724   17718      18   17724   17721      19   17733
   17730      18   17736   17730      18   17736   17733      19   17745   17742
      18   17748   17742      18   17748   17745      19   17757   17754      18
   17760   17754      18   17760   17757      19   17769   17766      18   17772
   17766      18   17772   17769      19   17781   17778      18   17784   17778
      18   17784   17781      19   17793   17790      18   17796   17790      18
   17796   17793      19   17805   17802      18   17808   17802      18   17808
   17805      19   17817   17814      18   17820   17814      18   17820   17817
      19   17829   17826      18   17832   17826      18   17832   17829      19
   17841   17838      18   17844   17838      18   17844   17841      19   17853
   17850      18   17856   17850      18   17856   17853      19   17865   17862
      18   17868   17862      18   17868   17865      19   17877   17874      18
   17880   17874      18   17880   17877      19   17889   17886      18   17892
   17886      18   17892   17889      19   17901   17898      18   17904   17898
      18   17904   17901      19   17913   17910      18   17916   17910      18
   17916   17913      19   17925   17922      18   17928   17922      18   17928
   17925      19   17937   17934      18   17940   17934      18   17940   17937
      19   17949   17946      18   17952   17946      18   17952   17949      19
   17961   17958      18   17964   17958      18   17964   17961      19   17973
   17970      18   17976   17970      18   17976   17973      19   17985   17982
      18   17988   17982      18   17988   17985      19   17997   17994      18
   18000   17994      18   18000   17997      19   18009   18006      18   18012
   18006      18   18012   18009      19   18021   18018      18   18024   18018
      18   18024   18021      19   18033   18030      18   18036   18030      18
   18036   18033      19   18045   18042      18   18048   18042      18   18048
   18045      19   18057   18054      18   18060   18054      18   18060   18057
      19   18069   18066      18   18072   18066      18   18072   18069      19
   18081   18078      18   18084   18078      18   18084   18081      19   18093
   18090      18   18096   18090      18   18096   18093      19   18105   18102
      18   18108   18102      18   18108   18105      19   18117   18114      18
   18120   18114      18   18120   18117      19   18129   18126      18   18132
   18126      18   18132   18129      19   18141   18138      18   18144   18138
      18   18144   18141      19   18153   18150      18   18156   18150      18
   18156   18153      19   18165   18162      18   18168   18162      18   18168
   18165      19   18177   18174      18   18180   18174      18   18180   18177
      19   18189   18186      18   18192   18186      18   18192   18189      19
   18201   18198      18   18204   18198      18   18204   18201      19   18213
   18210      18   18216   18210      18   18216   18213      19   18225   18222
      18   18228   18222      18   18228   18225      19   18237   18234      18
   18240   18234      18   18240   18237      19   18249   18246      18   18252
   18246      18   18252   18249      19   18261   18258      18   18264   18258
      18   18264   18261      19   18273   18270      18   18276   18270      18
   18276   18273      19   18285   18282      18   18288   18282      18   18288
   18285      19   18297   18294      18   18300   18294      18   18300   18297
      19   18309   18306      18   18312   18306      18   18312   18309      19
   18321   18318      18   18324   18318      18   18324   18321      19   18333
   18330      18   18336   18330      18   18336   18333      19   18345   18342
      18   18348   18342      18   18348   18345      19   18357   18354      18
   18360   18354      18   18360   18357      19   18369   18366      18   18372
   18366      18   18372   18369      19   18381   18378      18   18384   18378
      18   18384   18381      19   18393   18390      18   18396   18390      18
   18396   18393      19   18405   18402      18   18408   18402      18   18408
   18405      19   18417   18414      18   18420   18414      18   18420   18417
      19   18429   18426      18   18432   18426      18   18432   18429      19
   18441   18438      18   18444   18438      18   18444   18441      19   18453
   18450      18   18456   18450      18   18456   18453      19   18465   18462
      18   18468   18462      18   18468   18465      19   18477   18474      18
   18480   18474      18   18480   18477      19   18489   18486      18   18492
   18486      18   18492   18489      19   18501   18498      18   18504   18498
      18   18504   18501      19   18513   18510      18   18516   18510      18
   18516   18513      19   18525   18522      18   18528   18522      18   18528
   18525      19   18537   18534      18   18540   18534      18   18540   18537
      19   18549   18546      18   18552   18546      18   18552   18549      19
   18561   18558      18   18564   18558      18   18564   18561      19   18573
   18570      18   18576   18570      18   18576   18573      19   18585   18582
      18   18588   18582      18   18588   18585      19   18597   18594      18
   18600   18594      18   18600   18597      19   18609   18606      18   18612
   18606      18   18612   18609      19   18621   18618      18   18624   18618
      18   18624   18621      19   18633   18630      18   18636   18630      18
   18636   18633      19   18645   18642      18   18648   18642      18   18648
   18645      19   18657   18654      18   18660   18654      18   18660   18657
      19   18669   18666      18   18672   18666      18   18672   18669      19
   18681   18678      18   18684   18678      18   18684   18681      19   18693
   18690      18   18696   18690      18   18696   18693      19   18705   18702
      18   18708   18702      18   18708   18705      19   18717   18714      18
   18720   18714      18   18720   18717      19   18729   18726      18   18732
   18726      18   18732   18729      19   18741   18738      18   18744   18738
      18   18744   18741      19   18753   18750      18   18756   18750      18
   18756   18753      19   18765   18762      18   18768   18762      18   18768
   18765      19   18777   18774      18   18780   18774      18   18780   18777
      19   18789   18786      18   18792   18786      18   18792   18789      19
   18801   18798      18   18804   18798      18   18804   18801      19   18813
   18810      18   18816   18810      18   18816   18813      19   18825   18822
      18   18828   18822      18   18828   18825      19   18837   18834      18
   18840   18834      18   18840   18837      19   18849   18846      18   18852
   18846      18   18852   18849      19   18861   18858      18   18864   18858
      18   18864   18861      19   18873   18870      18   18876   18870      18
   18876   18873      19   18885   18882      18   18888   18882      18   18888
   18885      19   18897   18894      18   18900   18894      18   18900   18897
      19   18909   18906      18   18912   18906      18   18912   18909      19
   18921   18918      18   18924   18918      18   18924   18921      19   18933
   18930      18   18936   18930      18   18936   18933      19   18945   18942
      18   18948   18942      18   18948   18945      19   18957   18954      18
   18960   18954      18   18960   18957      19   18969   18966      18   18972
   18966      18   18972   18969      19   18981   18978      18   18984   18978
      18   18984   18981      19   18993   18990      18   18996   18990      18
   18996   18993      19   19005   19002      18   19008   19002      18   19008
   19005      19   19017   19014      18   19020   19014      18   19020   19017
      19   19029   19026      18   19032   19026      18   19032   19029      19
   19041   19038      18   19044   19038      18   19044   19041      19   19053
   19050      18   19056   19050      18   19056   19053      19   19065   19062
      18   19068   19062      18   19068   19065      19   19077   19074      18
   19080   19074      18   19080   19077      19   19089   19086      18   19092
   19086      18   19092   19089      19   19101   19098      18   19104   19098
      18   19104   19101      19   19113   19110      18   19116   19110      18
   19116   19113      19   19125   19122      18   19128   19122      18   19128
   19125      19   19137   19134      18   19140   19134      18   19140   19137
      19   19149   19146      18   19152   19146      18   19152   19149      19
   19161   19158      18   19164   19158      18   19164   19161      19   19173
   19170      18   19176   19170      18   19176   19173      19   19185   19182
      18   19188   19182      18   19188   19185      19   19197   19194      18
   19200   19194      18   19200   19197      19   19209   19206      18   19212
   19206      18   19212   19209      19   19221   19218      18   19224   19218
      18   19224   19221      19   19233   19230      18   19236   19230      18
   19236   19233      19   19245   19242      18   19248   19242      18   19248
   19245      19   19257   19254      18   19260   19254      18   19260   19257
      19   19269   19266      18   19272   19266      18   19272   19269      19
   19281   19278      18   19284   19278      18   19284   19281      19   19293
   19290      18   19296   19290      18   19296   19293      19   19305   19302
      18   19308   19302      18   19308   19305      19   19317   19314      18
   19320   19314      18   19320   19317      19   19329   19326      18   19332
   19326      18   19332   19329      19   19341   19338      18   19344   19338
      18   19344   19341      19   19353   19350      18   19356   19350      18
   19356   19353      19   19365   19362      18   19368   19362      18   19368
   19365      19   19377   19374      18   19380   19374      18   19380   19377
      19   19389   19386      18   19392   19386      18   19392   19389      19
   19401   19398      18   19404   19398      18   19404   19401      19   19413
   19410      18   19416   19410      18   19416   19413      19   19425   19422
      18   19428   19422      18   19428   19425      19   19437   19434      18
   19440   19434      18   19440   19437      19   19449   19446      18   19452
   19446      18   19452   19449      19   19461   19458      18   19464   19458
      18   19464   19461      19   19473   19470      18   19476   19470      18
   19476   19473      19   19485   19482      18   19488   19482      18   19488
   19485      19   19497   19494      18   19500   19494      18   19500   19497
      19   19509   19506      18   19512   19506      18   19512   19509      19
   19521   19518      18   19524   19518      18   19524   19521      19   19533
   19530      18   19536   19530      18   19536   19533      19   19545   19542
      18   19548   19542      18   19548   19545      19   19557   19554      18
   19560   19554      18   19560   19557      19   19569   19566      18   19572
   19566      18   19572   19569      19   19581   19578      18   19584   19578
      18   19584   19581      19   19593   19590      18   19596   19590      18
   19596   19593      19   19605   19602      18   19608   19602      18   19608
   19605      19   19617   19614      18   19620   19614      18   19620   19617
      19   19629   19626      18   19632   19626      18   19632   19629      19
   19641   19638      18   19644   19638      18   19644   19641      19   19653
   19650      18   19656   19650      18   19656   19653      19   19665   19662
      18   19668   19662      18   19668   19665      19   19677   19674      18
   19680   19674      18   19680   19677      19   19689   19686      18   19692
   19686      18   19692   19689      19   19701   19698      18   19704   19698
      18   19704   19701      19   19713   19710      18   19716   19710      18
   19716   19713      19   19725   19722      18   19728   19722      18   19728
   19725      19   19737   19734      18   19740   19734      18   19740   19737
      19   19749   19746      18   19752   19746      18   19752   19749      19
   19761   19758      18   19764   19758      18   19764   19761      19   19773
   19770      18   19776   19770      18   19776   19773      19   19785   19782
      18   19788   19782      18   19788   19785      19   19797   19794      18
   19800   19794      18   19800   19797      19   19809   19806      18   19812
   19806      18   19812   19809      19   19821   19818      18   19824   19818
      18   19824   19821      19   19833   19830      18   19836   19830      18
   19836   19833      19   19845   19842      18   19848   19842      18   19848
   19845      19   19857   19854      18   19860   19854      18   19860   19857
      19   19869   19866      18   19872   19866      18   19872   19869      19
   19881   19878      18   19884   19878      18   19884   19881      19   19893
   19890      18   19896   19890      18   19896   19893      19   19905   19902
      18   19908   19902      18   19908   19905      19   19917   19914      18
   19920   19914      18   19920   19917      19   19929   19926      18   19932
   19926      18   19932   19929      19   19941   19938      18   19944   19938
      18   19944   19941      19   19953   19950      18   19956   19950      18
   19956   19953      19   19965   19962      18   19968   19962      18   19968
   19965      19   19977   19974      18   19980   19974      18   19980   19977
      19   19989   19986      18   19992   19986      18   19992   19989      19
   20001   19998      18   20004   19998      18   20004   20001      19   20013
   20010      18   20016   20010      18   20016   20013      19   20025   20022
      18   20028   20022      18   20028   20025      19   20037   20034      18
   20040   20034      18   20040   20037      19   20049   20046      18   20052
   20046      18   20052   20049      19   20061   20058      18   20064   20058
      18   20064   20061      19   20073   20070      18   20076   20070      18
   20076   20073      19   20085   20082      18   20088   20082      18   20088
   20085      19   20097   20094      18   20100   20094      18   20100   20097
      19   20109   20106      18   20112   20106      18   20112   20109      19
   20121   20118      18   20124   20118      18   20124   20121      19   20133
   20130      18   20136   20130      18   20136   20133      19   20145   20142
      18   20148   20142      18   20148   20145      19   20157   20154      18
   20160   20154      18   20160   20157      19   20169   20166      18   20172
   20166      18   20172   20169      19   20181   20178      18   20184   20178
      18   20184   20181      19   20193   20190      18   20196   20190      18
   20196   20193      19   20205   20202      18   20208   20202      18   20208
   20205      19   20217   20214      18   20220   20214      18   20220   20217
      19   20229   20226      18   20232   20226      18   20232   20229      19
   20241   20238      18   20244   20238      18   20244   20241      19   20253
   20250      18   20256   20250      18   20256   20253      19   20265   20262
      18   20268   20262      18   20268   20265      19   20277   20274      18
   20280   20274      18   20280   20277      19   20289   20286      18   20292
   20286      18   20292   20289      19   20301   20298      18   20304   20298
      18   20304   20301      19   20313   20310      18   20316   20310      18
   20316   20313      19   20325   20322      18   20328   20322      18   20328
   20325      19   20337   20334      18   20340   20334      18   20340   20337
      19   20349   20346      18   20352   20346      18   20352   20349      19
   20361   20358      18   20364   20358      18   20364   20361      19   20373
   20370      18   20376   20370      18   20376   20373      19   20385   20382
      18   20388   20382      18   20388   20385      19   20397   20394      18
   20400   20394      18   20400   20397      19   20409   20406      18   20412
   20406      18   20412   20409      19   20421   20418      18   20424   20418
      18   20424   20421      19   20433   20430      18   20436   20430      18
   20436   20433      19   20445   20442      18   20448   20442      18   20448
   20445      19   20457   20454      18   20460   20454      18   20460   20457
      19   20469   20466      18   20472   20466      18   20472   20469      19
   20481   20478      18   20484   20478      18   20484   20481      19   20493
   20490      18   20496   20490      18   20496   20493      19   20505   20502
      18   20508   20502      18   20508   20505      19   20517   20514      18
   20520   20514      18   20520   20517      19   20529   20526      18   20532
   20526      18   20532   20529      19   20541   20538      18   20544   20538
      18   20544   20541      19   20553   20550      18   20556   20550      18
   20556   20553      19   20565   20562      18   20568   20562      18   20568
   20565      19   20577   20574      18   20580   20574      18   20580   20577
      19   20589   20586      18   20592   20586      18   20592   20589      19
   20601   20598      18   20604   20598      18   20604   20601      19   20613
   20610      18   20616   20610      18   20616   20613      19   20625   20622
      18   20628   20622      18   20628   20625      19   20637   20634      18
   20640   20634      18   20640   20637      19   20649   20646      18   20652
   20646      18   20652   20649      19   20661   20658      18   20664   20658
      18   20664   20661      19   20673   20670      18   20676   20670      18
   20676   20673      19   20685   20682      18   20688   20682      18   20688
   20685      19   20697   20694      18   20700   20694      18   20700   20697
      19   20709   20706      18   20712   20706      18   20712   20709      19
   20721   20718      18   20724   20718      18   20724   20721      19   20733
   20730      18   20736   20730      18   20736   20733      19   20745   20742
      18   20748   20742      18   20748   20745      19   20757   20754      18
   20760   20754      18   20760   20757      19   20769   20766      18   20772
   20766      18   20772   20769      19   20781   20778      18   20784   20778
      18   20784   20781      19   20793   20790      18   20796   20790      18
   20796   20793      19   20805   20802      18   20808   20802      18   20808
   20805      19   20817   20814      18   20820   20814      18   20820   20817
      19   20829   20826      18   20832   20826      18   20832   20829      19
   20841   20838      18   20844   20838      18   20844   20841      19   20853
   20850      18   20856   20850      18   20856   20853      19   20865   20862
      18   20868   20862      18   20868   20865      19   20877   20874      18
   20880   20874      18   20880   20877      19   20889   20886      18   20892
   20886      18   20892   20889      19   20901   20898      18   20904   20898
      18   20904   20901      19   20913   20910      18   20916   20910      18
   20916   20913      19   20925   20922      18   20928   20922      18   20928
   20925      19   20937   20934      18   20940   20934      18   20940   20937
      19   20949   20946      18   20952   20946      18   20952   20949      19
   20961   20958      18   20964   20958      18   20964   20961      19   20973
   20970      18   20976   20970      18   20976   20973      19   20985   20982
      18   20988   20982      18   20988   20985      19   20997   20994      18
   21000   20994      18   21000   20997      19   21009   21006      18   21012
   21006      18   21012   21009      19   21021   21018      18   21024   21018
      18   21024   21021      19   21033   21030      18   21036   21030      18
   21036   21033      19   21045   21042      18   21048   21042      18   21048
   21045      19   21057   21054      18   21060   21054      18   21060   21057
      19   21069   21066      18   21072   21066      18   21072   21069      19
   21081   21078      18   21084   21078      18   21084   21081      19   21093
   21090      18   21096   21090      18   21096   21093      19   21105   21102
      18   21108   21102      18   21108   21105      19   21117   21114      18
   21120   21114      18   21120   21117      19   21129   21126      18   21132
   21126      18   21132   21129      19   21141   21138      18   21144   21138
      18   21144   21141      19   21153   21150      18   21156   21150      18
   21156   21153      19   21165   21162      18   21168   21162      18   21168
   21165      19   21177   21174      18   21180   21174      18   21180   21177
      19   21189   21186      18   21192   21186      18   21192   21189      19
   21201   21198      18   21204   21198      18   21204   21201      19   21213
   21210      18   21216   21210      18   21216   21213      19   21225   21222
      18   21228   21222      18   21228   21225      19   21237   21234      18
   21240   21234      18   21240   21237      19   21249   21246      18   21252
   21246      18   21252   21249      19   21261   21258      18   21264   21258
      18   21264   21261      19   21273   21270      18   21276   21270      18
   21276   21273      19   21285   21282      18   21288   21282      18   21288
   21285      19   21297   21294      18   21300   21294      18   21300   21297
      19   21309   21306      18   21312   21306      18   21312   21309      19
   21321   21318      18   21324   21318      18   21324   21321      19   21333
   21330      18   21336   21330      18   21336   21333      19   21345   21342
      18   21348   21342      18   21348   21345      19   21357   21354      18
   21360   21354      18   21360   21357      19   21369   21366      18   21372
   21366      18   21372   21369      19   21381   21378      18   21384   21378
      18   21384   21381      19   21393   21390      18   21396   21390      18
   21396   21393      19   21405   21402      18   21408   21402      18   21408
   21405      19   21417   21414      18   21420   21414      18   21420   21417
      19   21429   21426      18   21432   21426      18   21432   21429      19
   21441   21438      18   21444   21438      18   21444   21441      19   21453
   21450      18   21456   21450      18   21456   21453      19   21465   21462
      18   21468   21462      18   21468   21465      19   21477   21474      18
   21480   21474      18   21480   21477      19   21489   21486      18   21492
   21486      18   21492   21489      19   21501   21498      18   21504   21498
      18   21504   21501      19   21513   21510      18   21516   21510      18
   21516   21513      19   21525   21522      18   21528   21522      18   21528
   21525      19   21537   21534      18   21540   21534      18   21540   21537
      19   21549   21546      18   21552   21546      18   21552   21549      19
   21561   21558      18   21564   21558      18   21564   21561      19   21573
   21570      18   21576   21570      18   21576   21573      19   21585   21582
      18   21588   21582      18   21588   21585      19   21597   21594      18
   21600   21594      18   21600   21597      19   21609   21606      18   21612
   21606      18   21612   21609      19   21621   21618      18   21624   21618
      18   21624   21621      19   21633   21630      18   21636   21630      18
   21636   21633      19   21645   21642      18   21648   21642      18   21648
   21645      19   21657   21654      18   21660   21654      18   21660   21657
      19   21669   21666      18   21672   21666      18   21672   21669      19
   21681   21678      18   21684   21678      18   21684   21681      19   21693
   21690      18   21696   21690      18   21696   21693      19   21705   21702
      18   21708   21702      18   21708   21705      19   21717   21714      18
   21720   21714      18   21720   21717      19   21729   21726      18   21732
   21726      18   21732   21729      19   21741   21738      18   21744   21738
      18   21744   21741      19   21753   21750      18   21756   21750      18
   21756   21753      19   21765   21762      18   21768   21762      18   21768
   21765      19   21777   21774      18   21780   21774      18   21780   21777
      19   21789   21786      18   21792   21786      18   21792   21789      19
   21801   21798      18   21804   21798      18   21804   21801      19   21813
   21810      18   21816   21810      18   21816   21813      19   21825   21822
      18   21828   21822      18   21828   21825      19   21837   21834      18
   21840   21834      18   21840   21837      19   21849   21846      18   21852
   21846      18   21852   21849      19   21861   21858      18   21864   21858
      18   21864   21861      19   21873   21870      18   21876   21870      18
   21876   21873      19   21885   21882      18   21888   21882      18   21888
   21885      19   21897   21894      18   21900   21894      18   21900   21897
      19   21909   21906      18   21912   21906      18   21912   21909      19
   21921   21918      18   21924   21918      18   21924   21921      19   21933
   21930      18   21936   21930      18   21936   21933      19   21945   21942
      18   21948   21942      18   21948   21945      19   21957   21954      18
   21960   21954      18   21960   21957      19   21969   21966      18   21972
   21966      18   21972   21969      19   21981   21978      18   21984   21978
      18   21984   21981      19   21993   21990      18   21996   21990      18
   21996   21993      19   22005   22002      18   22008   22002      18   22008
   22005      19   22017   22014      18   22020   22014      18   22020   22017
      19   22029   22026      18   22032   22026      18   22032   22029      19
   22041   22038      18   22044   22038      18   22044   22041      19   22053
   22050      18   22056   22050      18   22056   22053      19   22065   22062
      18   22068   22062      18   22068   22065      19   22077   22074      18
   22080   22074      18   22080   22077      19   22089   22086      18   22092
   22086      18   22092   22089      19   22101   22098      18   22104   22098
      18   22104   22101      19   22113   22110      18   22116   22110      18
   22116   22113      19   22125   22122      18   22128   22122      18   22128
   22125      19   22137   22134      18   22140   22134      18   22140   22137
      19   22149   22146      18   22152   22146      18   22152   22149      19
   22161   22158      18   22164   22158      18   22164   22161      19   22173
   22170      18   22176   22170      18   22176   22173      19   22185   22182
      18   22188   22182      18   22188   22185      19   22197   22194      18
   22200   22194      18   22200   22197      19   22209   22206      18   22212
   22206      18   22212   22209      19   22221   22218      18   22224   22218
      18   22224   22221      19   22233   22230      18   22236   22230      18
   22236   22233      19   22245   22242      18   22248   22242      18   22248
   22245      19   22257   22254      18   22260   22254      18   22260   22257
      19   22269   22266      18   22272   22266      18   22272   22269      19
   22281   22278      18   22284   22278      18   22284   22281      19   22293
   22290      18   22296   22290      18   22296   22293      19   22305   22302
      18   22308   22302      18   22308   22305      19   22317   22314      18
   22320   22314      18   22320   22317      19   22329   22326      18   22332
   22326      18   22332   22329      19   22341   22338      18   22344   22338
      18   22344   22341      19   22353   22350      18   22356   22350      18
   22356   22353      19   22365   22362      18   22368   22362      18   22368
   22365      19   22377   22374      18   22380   22374      18   22380   22377
      19   22389   22386      18   22392   22386      18   22392   22389      19
   22401   22398      18   22404   22398      18   22404   22401      19   22413
   22410      18   22416   22410      18   22416   22413      19   22425   22422
      18   22428   22422      18   22428   22425      19   22437   22434      18
   22440   22434      18   22440   22437      19   22449   22446      18   22452
   22446      18   22452   22449      19   22461   22458      18   22464   22458
      18   22464   22461      19   22473   22470      18   22476   22470      18
   22476   22473      19   22485   22482      18   22488   22482      18   22488
   22485      19   22497   22494      18   22500   22494      18   22500   22497
      19   22509   22506      18   22512   22506      18   22512   22509      19
   22521   22518      18   22524   22518      18   22524   22521      19   22533
   22530      18   22536   22530      18   22536   22533      19   22545   22542
      18   22548   22542      18   22548   22545      19   22557   22554      18
   22560   22554      18   22560   22557      19   22569   22566      18   22572
   22566      18   22572   22569      19   22581   22578      18   22584   22578
      18   22584   22581      19   22593   22590      18   22596   22590      18
   22596   22593      19   22605   22602      18   22608   22602      18   22608
   22605      19   22617   22614      18   22620   22614      18   22620   22617
      19   22629   22626      18   22632   22626      18   22632   22629      19
   22641   22638      18   22644   22638      18   22644   22641      19   22653
   22650      18   22656   22650      18   22656   22653      19   22665   22662
      18   22668   22662      18   22668   22665      19   22677   22674      18
   22680   22674      18   22680   22677      19   22689   22686      18   22692
   22686      18   22692   22689      19   22701   22698      18   22704   22698
      18   22704   22701      19   22713   22710      18   22716   22710      18
   22716   22713      19   22725   22722      18   22728   22722      18   22728
   22725      19   22737   22734      18   22740   22734      18   22740   22737
      19   22749   22746      18   22752   22746      18   22752   22749      19
   22761   22758      18   22764   22758      18   22764   22761      19   22773
   22770      18   22776   22770      18   22776   22773      19   22785   22782
      18   22788   22782      18   22788   22785      19   22797   22794      18
   22800   22794      18   22800   22797      19   22809   22806      18   22812
   22806      18   22812   22809      19   22821   22818      18   22824   22818
      18   22824   22821      19   22833   22830      18   22836   22830      18
   22836   22833      19   22845   22842      18   22848   22842      18   22848
   22845      19   22857   22854      18   22860   22854      18   22860   22857
      19   22869   22866      18   22872   22866      18   22872   22869      19
   22881   22878      18   22884   22878      18   22884   22881      19   22893
   22890      18   22896   22890      18   22896   22893      19   22905   22902
      18   22908   22902      18   22908   22905      19   22917   22914      18
   22920   22914      18   22920   22917      19   22929   22926      18   22932
   22926      18   22932   22929      19   22941   22938      18   22944   22938
      18   22944   22941      19   22953   22950      18   22956   22950      18
   22956   22953      19   22965   22962      18   22968   22962      18   22968
   22965      19   22977   22974      18   22980   22974      18   22980   22977
      19   22989   22986      18   22992   22986      18   22992   22989      19
   23001   22998      18   23004   22998      18   23004   23001      19   23013
   23010      18   23016   23010      18   23016   23013      19   23025   23022
      18   23028   23022      18   23028   23025      19   23037   23034      18
   23040   23034      18   23040   23037      19   23049   23046      18   23052
   23046      18   23052   23049      19   23061   23058      18   23064   23058
      18   23064   23061      19   23073   23070      18   23076   23070      18
   23076   23073      19   23085   23082      18   23088   23082      18   23088
   23085      19   23097   23094      18   23100   23094      18   23100   23097
      19   23109   23106      18   23112   23106      18   23112   23109      19
   23121   23118      18   23124   23118      18   23124   23121      19   23133
   23130      18   23136   23130      18   23136   23133      19   23145   23142
      18   23148   23142      18   23148   23145      19   23157   23154      18
   23160   23154      18   23160   23157      19   23169   23166      18   23172
   23166      18   23172   23169      19   23181   23178      18   23184   23178
      18   23184   23181      19   23193   23190      18   23196   23190      18
   23196   23193      19   23205   23202      18   23208   23202      18   23208
   23205      19   23217   23214      18   23220   23214      18   23220   23217
      19   23229   23226      18   23232   23226      18   23232   23229      19
   23241   23238      18   23244   23238      18   23244   23241      19   23253
   23250      18   23256   23250      18   23256   23253      19   23265   23262
      18   23268   23262      18   23268   23265      19   23277   23274      18
   23280   23274      18   23280   23277      19   23289   23286      18   23292
   23286      18   23292   23289      19   23301   23298      18   23304   23298
      18   23304   23301      19   23313   23310      18   23316   23310      18
   23316   23313      19   23325   23322      18   23328   23322      18   23328
   23325      19   23337   23334      18   23340   23334      18   23340   23337
      19   23349   23346      18   23352   23346      18   23352   23349      19
   23361   23358      18   23364   23358      18   23364   23361      19   23373
   23370      18   23376   23370      18   23376   23373      19   23385   23382
      18   23388   23382      18   23388   23385      19   23397   23394      18
   23400   23394      18   23400   23397      19   23409   23406      18   23412
   23406      18   23412   23409      19   23421   23418      18   23424   23418
      18   23424   23421      19   23433   23430      18   23436   23430      18
   23436   23433      19   23445   23442      18   23448   23442      18   23448
   23445      19   23457   23454      18   23460   23454      18   23460   23457
      19   23469   23466      18   23472   23466      18   23472   23469      19
   23481   23478      18   23484   23478      18   23484   23481      19   23493
   23490      18   23496   23490      18   23496   23493      19   23505   23502
      18   23508   23502      18   23508   23505      19   23517   23514      18
   23520   23514      18   23520   23517      19   23529   23526      18   23532
   23526      18   23532   23529      19   23541   23538      18   23544   23538
      18   23544   23541      19   23553   23550      18   23556   23550      18
   23556   23553      19   23565   23562      18   23568   23562      18   23568
   23565      19   23577   23574      18   23580   23574      18   23580   23577
      19   23589   23586      18   23592   23586      18   23592   23589      19
   23601   23598      18   23604   23598      18   23604   23601      19   23613
   23610      18   23616   23610      18   23616   23613      19   23625   23622
      18   23628   23622      18   23628   23625      19   23637   23634      18
   23640   23634      18   23640   23637      19   23649   23646      18   23652
   23646      18   23652   23649      19   23661   23658      18   23664   23658
      18   23664   23661      19   23673   23670      18   23676   23670      18
   23676   23673      19   23685   23682      18   23688   23682      18   23688
   23685      19   23697   23694      18   23700   23694      18   23700   23697
      19   23709   23706      18   23712   23706      18   23712   23709      19
   23721   23718      18   23724   23718      18   23724   23721      19   23733
   23730      18   23736   23730      18   23736   23733      19   23745   23742
      18   23748   23742      18   23748   23745      19   23757   23754      18
   23760   23754      18   23760   23757      19   23769   23766      18   23772
   23766      18   23772   23769      19   23781   23778      18   23784   23778
      18   23784   23781      19   23793   23790      18   23796   23790      18
   23796   23793      19   23805   23802      18   23808   23802      18   23808
   23805      19   23817   23814      18   23820   23814      18   23820   23817
      19   23829   23826      18   23832   23826      18   23832   23829      19
   23841   23838      18   23844   23838      18   23844   23841      19   23853
   23850      18   23856   23850      18   23856   23853      19   23865   23862
      18   23868   23862      18   23868   23865      19   23877   23874      18
   23880   23874      18   23880   23877      19   23889   23886      18   23892
   23886      18   23892   23889      19   23901   23898      18   23904   23898
      18   23904   23901      19   23913   23910      18   23916   23910      18
   23916   23913      19   23925   23922      18   23928   23922      18   23928
   23925      19   23937   23934      18   23940   23934      18   23940   23937
      19   23949   23946      18   23952   23946      18   23952   23949      19
   23961   23958      18   23964   23958      18   23964   23961      19   23973
   23970      18   23976   23970      18   23976   23973      19   23985   23982
      18   23988   23982      18   23988   23985      19   23997   23994      18
   24000   23994      18   24000   23997      19   24009   24006      18   24012
   24006      18   24012   24009      19   24021   24018      18   24024   24018
      18   24024   24021      19   24033   24030      18   24036   24030      18
   24036   24033      19   24045   24042      18   24048   24042      18   24048
   24045      19   24057   24054      18   24060   24054      18   24060   24057
      19   24069   24066      18   24072   24066      18   24072   24069      19
   24081   24078      18   24084   24078      18   24084   24081      19   24093
   24090      18   24096   24090      18   24096   24093      19   24105   24102
      18   24108   24102      18   24108   24105      19   24117   24114      18
   24120   24114      18   24120   24117      19   24129   24126      18   24132
   24126      18   24132   24129      19   24141   24138      18   24144   24138
      18   24144   24141      19   24153   24150      18   24156   24150      18
   24156   24153      19   24165   24162      18   24168   24162      18   24168
   24165      19   24177   24174      18   24180   24174      18   24180   24177
      19   24189   24186      18   24192   24186      18   24192   24189      19
   24201   24198      18   24204   24198      18   24204   24201      19   24213
   24210      18   24216   24210      18   24216   24213      19   24225   24222
      18   24228   24222      18   24228   24225      19   24237   24234      18
   24240   24234      18   24240   24237      19   24249   24246      18   24252
   24246      18   24252   24249      19   24261   24258      18   24264   24258
      18   24264   24261      19   24273   24270      18   24276   24270      18
   24276   24273      19   24285   24282      18   24288   24282      18   24288
   24285      19   24297   24294      18   24300   24294      18   24300   24297
      19   24309   24306      18   24312   24306      18   24312   24309      19
   24321   24318      18   24324   24318      18   24324   24321      19   24333
   24330      18   24336   24330      18   24336   24333      19   24345   24342
      18   24348   24342      18   24348   24345      19   24357   24354      18
   24360   24354      18   24360   24357      19   24369   24366      18   24372
   24366      18   24372   24369      19   24381   24378      18   24384   24378
      18   24384   24381      19   24393   24390      18   24396   24390      18
   24396   24393      19   24405   24402      18   24408   24402      18   24408
   24405      19   24417   24414      18   24420   24414      18   24420   24417
      19   24429   24426      18   24432   24426      18   24432   24429      19
   24441   24438      18   24444   24438      18   24444   24441      19   24453
   24450      18   24456   24450      18   24456   24453      19   24465   24462
      18   24468   24462      18   24468   24465      19   24477   24474      18
   24480   24474      18   24480   24477      19   24489   24486      18   24492
   24486      18   24492   24489      19   24501   24498      18   24504   24498
      18   24504   24501      19   24513   24510      18   24516   24510      18
   24516   24513      19   24525   24522      18   24528   24522      18   24528
   24525      19   24537   24534      18   24540   24534      18   24540   24537
      19   24549   24546      18   24552   24546      18   24552   24549      19
   24561   24558      18   24564   24558      18   24564   24561      19   24573
   24570      18   24576   24570      18   24576   24573      19   24585   24582
      18   24588   24582      18   24588   24585      19   24597   24594      18
   24600   24594      18   24600   24597      19   24609   24606      18   24612
   24606      18   24612   24609      19   24621   24618      18   24624   24618
      18   24624   24621      19   24633   24630      18   24636   24630      18
   24636   24633      19   24645   24642      18   24648   24642      18   24648
   24645      19   24657   24654      18   24660   24654      18   24660   24657
      19   24669   24666      18   24672   24666      18   24672   24669      19
   24681   24678      18   24684   24678      18   24684   24681      19   24693
   24690      18   24696   24690      18   24696   24693      19   24705   24702
      18   24708   24702      18   24708   24705      19   24717   24714      18
   24720   24714      18   24720   24717      19   24729   24726      18   24732
   24726      18   24732   24729      19   24741   24738      18   24744   24738
      18   24744   24741      19   24753   24750      18   24756   24750      18
   24756   24753      19   24765   24762      18   24768   24762      18   24768
   24765      19   24777   24774      18   24780   24774      18   24780   24777
      19   24789   24786      18   24792   24786      18   24792   24789      19
   24801   24798      18   24804   24798      18   24804   24801      19   24813
   24810      18   24816   24810      18   24816   24813      19   24825   24822
      18   24828   24822      18   24828   24825      19   24837   24834      18
   24840   24834      18   24840   24837      19   24849   24846      18   24852
   24846      18   24852   24849      19   24861   24858      18   24864   24858
      18   24864   24861      19   24873   24870      18   24876   24870      18
   24876   24873      19   24885   24882      18   24888   24882      18   24888
   24885      19   24897   24894      18   24900   24894      18   24900   24897
      19   24909   24906      18   24912   24906      18   24912   24909      19
   24921   24918      18   24924   24918      18   24924   24921      19   24933
   24930      18   24936   24930      18   24936   24933      19   24945   24942
      18   24948   24942      18   24948   24945      19   24957   24954      18
   24960   24954      18   24960   24957      19   24969   24966      18   24972
   24966      18   24972   24969      19   24981   24978      18   24984   24978
      18   24984   24981      19   24993   24990      18   24996   24990      18
   24996   24993      19   25005   25002      18   25008   25002      18   25008
   25005      19   25017   25014      18   25020   25014      18   25020   25017
      19   25029   25026      18   25032   25026      18   25032   25029      19
   25041   25038      18   25044   25038      18   25044   25041      19   25053
   25050      18   25056   25050      18   25056   25053      19   25065   25062
      18   25068   25062      18   25068   25065      19   25077   25074      18
   25080   25074      18   25080   25077      19   25089   25086      18   25092
   25086      18   25092   25089      19   25101   25098      18   25104   25098
      18   25104   25101      19   25113   25110      18   25116   25110      18
   25116   25113      19   25125   25122      18   25128   25122      18   25128
   25125      19   25137   25134      18   25140   25134      18   25140   25137
      19   25149   25146      18   25152   25146      18   25152   25149      19
   25161   25158      18   25164   25158      18   25164   25161      19   25173
   25170      18   25176   25170      18   25176   25173      19   25185   25182
      18   25188   25182      18   25188   25185      19   25197   25194      18
   25200   25194      18   25200   25197      19   25209   25206      18   25212
   25206      18   25212   25209      19   25221   25218      18   25224   25218
      18   25224   25221      19   25233   25230      18   25236   25230      18
   25236   25233      19   25245   25242      18   25248   25242      18   25248
   25245      19   25257   25254      18   25260   25254      18   25260   25257
      19   25269   25266      18   25272   25266      18   25272   25269      19
   25281   25278      18   25284   25278      18   25284   25281      19   25293
   25290      18   25296   25290      18   25296   25293      19   25305   25302
      18   25308   25302      18   25308   25305      19   25317   25314      18
   25320   25314      18   25320   25317      19   25329   25326      18   25332
   25326      18   25332   25329      19   25341   25338      18   25344   25338
      18   25344   25341      19   25353   25350      18   25356   25350      18
   25356   25353      19   25365   25362      18   25368   25362      18   25368
   25365      19   25377   25374      18   25380   25374      18   25380   25377
      19   25389   25386      18   25392   25386      18   25392   25389      19
   25401   25398      18   25404   25398      18   25404   25401      19   25413
   25410      18   25416   25410      18   25416   25413      19   25425   25422
      18   25428   25422      18   25428   25425      19   25437   25434      18
   25440   25434      18   25440   25437      19   25449   25446      18   25452
   25446      18   25452   25449      19   25461   25458      18   25464   25458
      18   25464   25461      19   25473   25470      18   25476   25470      18
   25476   25473      19   25485   25482      18   25488   25482      18   25488
   25485      19   25497   25494      18   25500   25494      18   25500   25497
      19   25509   25506      18   25512   25506      18   25512   25509      19
   25521   25518      18   25524   25518      18   25524   25521      19   25533
   25530      18   25536   25530      18   25536   25533      19   25545   25542
      18   25548   25542      18   25548   25545      19   25557   25554      18
   25560   25554      18   25560   25557      19   25569   25566      18   25572
   25566      18   25572   25569      19   25581   25578      18   25584   25578
      18   25584   25581      19   25593   25590      18   25596   25590      18
   25596   25593      19   25605   25602      18   25608   25602      18   25608
   25605      19   25617   25614      18   25620   25614      18   25620   25617
      19   25629   25626      18   25632   25626      18   25632   25629      19
   25641   25638      18   25644   25638      18   25644   25641      19   25653
   25650      18   25656   25650      18   25656   25653      19   25665   25662
      18   25668   25662      18   25668   25665      19   25677   25674      18
   25680   25674      18   25680   25677      19   25689   25686      18   25692
   25686      18   25692   25689      19   25701   25698      18   25704   25698
      18   25704   25701      19   25713   25710      18   25716   25710      18
   25716   25713      19   25725   25722      18   25728   25722      18   25728
   25725      19   25737   25734      18   25740   25734      18   25740   25737
      19   25749   25746      18   25752   25746      18   25752   25749      19
   25761   25758      18   25764   25758      18   25764   25761      19   25773
   25770      18   25776   25770      18   25776   25773      19   25785   25782
      18   25788   25782      18   25788   25785      19   25797   25794      18
   25800   25794      18   25800   25797      19   25809   25806      18   25812
   25806      18   25812   25809      19   25821   25818      18   25824   25818
      18   25824   25821      19   25833   25830      18   25836   25830      18
   25836   25833      19   25845   25842      18   25848   25842      18   25848
   25845      19   25857   25854      18   25860   25854      18   25860   25857
      19   25869   25866      18   25872   25866      18   25872   25869      19
   25881   25878      18   25884   25878      18   25884   25881      19   25893
   25890      18   25896   25890      18   25896   25893      19   25905   25902
      18   25908   25902      18   25908   25905      19   25917   25914      18
   25920   25914      18   25920   25917      19   25929   25926      18   25932
   25926      18   25932   25929      19   25941   25938      18   25944   25938
      18   25944   25941      19   25953   25950      18   25956   25950      18
   25956   25953      19   25965   25962      18   25968   25962      18   25968
   25965      19   25977   25974      18   25980   25974      18   25980   25977
      19   25989   25986      18   25992   25986      18   25992   25989      19
   26001   25998      18   26004   25998      18   26004   26001      19   26013
   26010      18   26016   26010      18   26016   26013      19   26025   26022
      18   26028   26022      18   26028   26025      19   26037   26034      18
   26040   26034      18   26040   26037      19   26049   26046      18   26052
   26046      18   26052   26049      19   26061   26058      18   26064   26058
      18   26064   26061      19   26073   26070      18   26076   26070      18
   26076   26073      19   26085   26082      18   26088   26082      18   26088
   26085      19   26097   26094      18   26100   26094      18   26100   26097
      19   26109   26106      18   26112   26106      18   26112   26109      19
   26121   26118      18   26124   26118      18   26124   26121      19   26133
   26130      18   26136   26130      18   26136   26133      19   26145   26142
      18   26148   26142      18   26148   26145      19   26157   26154      18
   26160   26154      18   26160   26157      19   26169   26166      18   26172
   26166      18   26172   26169      19   26181   26178      18   26184   26178
      18   26184   26181      19   26193   26190      18   26196   26190      18
   26196   26193      19   26205   26202      18   26208   26202      18   26208
   26205      19   26217   26214      18   26220   26214      18   26220   26217
      19   26229   26226      18   26232   26226      18   26232   26229      19
   26241   26238      18   26244   26238      18   26244   26241      19   26253
   26250      18   26256   26250      18   26256   26253      19   26265   26262
      18   26268   26262      18   26268   26265      19   26277   26274      18
   26280   26274      18   26280   26277      19   26289   26286      18   26292
   26286      18   26292   26289      19   26301   26298      18   26304   26298
      18   26304   26301      19   26313   26310      18   26316   26310      18
   26316   26313      19   26325   26322      18   26328   26322      18   26328
   26325      19   26337   26334      18   26340   26334      18   26340   26337
      19   26349   26346      18   26352   26346      18   26352   26349      19
   26361   26358      18   26364   26358      18   26364   26361      19   26373
   26370      18   26376   26370      18   26376   26373      19   26385   26382
      18   26388   26382      18   26388   26385      19   26397   26394      18
   26400   26394      18   26400   26397      19   26409   26406      18   26412
   26406      18   26412   26409      19   26421   26418      18   26424   26418
      18   26424   26421      19   26433   26430      18   26436   26430      18
   26436   26433      19   26445   26442      18   26448   26442      18   26448
   26445      19   26457   26454      18   26460   26454      18   26460   26457
      19   26469   26466      18   26472   26466      18   26472   26469      19
   26481   26478      18   26484   26478      18   26484   26481      19   26493
   26490      18   26496   26490      18   26496   26493      19   26505   26502
      18   26508   26502      18   26508   26505      19   26517   26514      18
   26520   26514      18   26520   26517      19   26529   26526      18   26532
   26526      18   26532   26529      19   26541   26538      18   26544   26538
      18   26544   26541      19   26553   26550      18   26556   26550      18
   26556   26553      19   26565   26562      18   26568   26562      18   26568
   26565      19   26577   26574      18   26580   26574      18   26580   26577
      19   26589   26586      18   26592   26586      18   26592   26589      19
   26601   26598      18   26604   26598      18   26604   26601      19   26613
   26610      18   26616   26610      18   26616   26613      19   26625   26622
      18   26628   26622      18   26628   26625      19   26637   26634      18
   26640   26634      18   26640   26637      19   26649   26646      18   26652
   26646      18   26652   26649      19   26661   26658      18   26664   26658
      18   26664   26661      19   26673   26670      18   26676   26670      18
   26676   26673      19   26685   26682      18   26688   26682      18   26688
   26685      19   26697   26694      18   26700   26694      18   26700   26697
      19   26709   26706      18   26712   26706      18   26712   26709      19
   26721   26718      18   26724   26718      18   26724   26721      19   26733
   26730      18   26736   26730      18   26736   26733      19   26745   26742
      18   26748   26742      18   26748   26745      19   26757   26754      18
   26760   26754      18   26760   26757      19   26769   26766      18   26772
   26766      18   26772   26769      19   26781   26778      18   26784   26778
      18   26784   26781      19   26793   26790      18   26796   26790      18
   26796   26793      19   26805   26802      18   26808   26802      18   26808
   26805      19   26817   26814      18   26820   26814      18   26820   26817
      19   26829   26826      18   26832   26826      18   26832   26829      19
   26841   26838      18   26844   26838      18   26844   26841      19   26853
   26850      18   26856   26850      18   26856   26853      19   26865   26862
      18   26868   26862      18   26868   26865      19   26877   26874      18
   26880   26874      18   26880   26877      19
%FLAG BONDS_WITHOUT_HYDROGEN                                                    
%FORMAT(10I8)                                                                   
      12      15       1      12      18       2       3      12       4      75
      78       1      75      81       2      63      69       6      54      57
       8      54      63       9      48      54       9      42      48       6
      39      42       6      39      69       6      30      39      10      24
      30      12      24      75      13      18      24      15     105     108
       1     105     111       2      87      93      12      87     105      13
      81      87      15     126     129       1     126     132       2     117
     126      13     111     117      15     186     189       1     186     192
       2     174     180       6     168     174       6     162     168       6
     156     162       6     153     156       6     153     180       6     144
     153      10     138     144      12     138     186      13     132     138
      15     192     198      17     219     210      20     231     222      20
     243     234      20     255     246      20     267     258      20     279
     270      20     291     282      20     303     294      20     315     306
      20     327     318      20     339     330      20     351     342      20
     363     354      20     375     366      20     387     378      20     399
     390      20     411     402      20     423     414      20     435     426
      20     447     438      20     459     450      20     471     462      20
     483     474      20     495     486      20     507     498      20     519
     510      20     531     522      20     543     534      20     555     546
      20     567     558      20     579     570      20     591     582      20
     603     594      20     615     606      20     627     618      20     639
     630      20     651     642      20     663     654      20     675     666
      20     687     678      20     699     690      20     711     702      20
     723     714      20     735     726      20     747     738      20     759
     750      20     771     762      20     783     774      20     795     786
      20     807     798      20     819     810      20     831     822      20
     843     834      20     855     846      20     867     858      20     879
     870      20     891     882      20     903     894      20     915     906
      20     927     918      20     939     930      20     951     942      20
     963     954      20     975     966      20     987     978      20     999
     990      20    1011    1002      20    1023    1014      20    1035    1026
      20    1047    1038      20    1059    1050      20    1071    1062      20
    1083    1074      20    1095    1086      20    1107    1098      20    1119
    1110      20    1131    1122      20    1143    1134      20    1155    1146
      20    1167    1158      20    1179    1170      20    1191    1182      20
    1203    1194      20    1215    1206      20    1227    1218      20    1239
    1230      20    1251    1242      20    1263    1254      20    1275    1266
      20    1287    1278      20    1299    1290      20    1311    1302      20
    1323    1314      20    1335    1326      20    1347    1338      20    1359
    1350      20    1371    1362      20    1383    1374      20    1395    1386
      20    1407    1398      20    1419    1410      20    1431    1422      20
    1443    1434      20    1455    1446      20    1467    1458      20    1479
    1470      20    1491    1482      20    1503    1494      20    1515    1506
      20    1527    1518      20    1539    1530      20    1551    1542      20
    1563    1554      20    1575    1566      20    1587    1578      20    1599
    1590      20    1611    1602      20    1623    1614      20    1635    1626
      20    1647    1638      20    1659    1650      20    1671    1662      20
    1683    1674      20    1695    1686      20    1707    1698      20    1719
    1710      20    1731    1722      20    1743    1734      20    1755    1746
      20    1767    1758      20    1779    1770      20    1791    1782      20
    1803    1794      20    1815    1806      20    1827    1818      20    1839
    1830      20    1851    1842      20    1863    1854      20    1875    1866
      20    1887    1878      20    1899    1890      20    1911    1902      20
    1923    1914      20    1935    1926      20    1947    1938      20    1959
    1950      20    1971    1962      20    1983    1974      20    1995    1986
      20    2007    1998      20    2019    2010      20    2031    2022      20
    2043    2034      20    2055    2046      20    2067    2058      20    2079
    2070      20    2091    2082      20    2103    2094      20    2115    2106
      20    2127    2118      20    2139    2130      20    2151    2142      20
    2163    2154      20    2175    2166      20    2187    2178      20    2199
    2190      20    2211    2202      20    2223    2214      20    2235    2226
      20    2247    2238      20    2259    2250      20    2271    2262      20
    2283    2274      20    2295    2286      20    2307    2298      20    2319
    2310      20    2331    2322      20    2343    2334      20    2355    2346
      20    2367    2358      20    2379    2370      20    2391    2382      20
    2403    2394      20    2415    2406      20    2427    2418      20    2439
    2430      20    2451    2442      20    2463    2454      20    2475    2466
      20    2487    2478      20    2499    2490      20    2511    2502      20
    2523    2514      20    2535    2526      20    2547    2538      20    2559
    2550      20    2571    2562      20    2583    2574      20    2595    2586
      20    2607    2598      20    2619    2610      20    2631    2622      20
    2643    2634      20    2655    2646      20    2667    2658      20    2679
    2670      20    2691    2682      20    2703    2694      20    2715    2706
      20    2727    2718      20    2739    2730      20    2751    2742      20
    2763    2754      20    2775    2766      20    2787    2778      20    2799
    2790      20    2811    2802      20    2823    2814      20    2835    2826
      20    2847    2838      20    2859    2850      20    2871    2862      20
    2883    2874      20    2895    2886      20    2907    2898      20    2919
    2910      20    2931    2922      20    2943    2934      20    2955    2946
      20    2967    2958      20    2979    2970      20    2991    2982      20
    3003    2994      20    3015    3006      20    3027    3018      20    3039
    3030      20    3051    3042      20    3063    3054      20    3075    3066
      20    3087    3078      20    3099    3090      20    3111    3102      20
    3123    3114      20    3135    3126      20    3147    3138      20    3159
    3150      20    3171    3162      20    3183    3174      20    3195    3186
      20    3207    3198      20    3219    3210      20    3231    3222      20
    3243    3234      20    3255    3246      20    3267    3258      20    3279
    3270      20    3291    3282      20    3303    3294      20    3315    3306
      20    3327    3318      20    3339    3330      20    3351    3342      20
    3363    3354      20    3375    3366      20    3387    3378      20    3399
    3390      20    3411    3402      20    3423    3414      20    3435    3426
      20    3447    3438      20    3459    3450      20    3471    3462      20
    3483    3474      20    3495    3486      20    3507    3498      20    3519
    3510      20    3531    3522      20    3543    3534      20    3555    3546
      20    3567    3558      20    3579    3570      20    3591    3582      20
    3603    3594      20    3615    3606      20    3627    3618      20    3639
    3630      20    3651    3642      20    3663    3654      20    3675    3666
      20    3687    3678      20    3699    3690      20    3711    3702      20
    3723    3714      20    3735    3726      20    3747    3738      20    3759
    3750      20    3771    3762      20    3783    3774      20    3795    3786
      20    3807    3798      20    3819    3810      20    3831    3822      20
    3843    3834      20    3855    3846      20    3867    3858      20    3879
    3870      20    3891    3882      20    3903    3894      20    3915    3906
      20    3927    3918      20    3939    3930      20    3951    3942      20
    3963    3954      20    3975    3966      20    3987    3978      20    3999
    3990      20    4011    4002      20    4023    4014      20    4035    4026
      20    4047    4038      20    4059    4050      20    4071    4062      20
    4083    4074      20    4095    4086      20    4107    4098      20    4119
    4110      20    4131    4122      20    4143    4134      20    4155    4146
      20    4167    4158      20    4179    4170      20    4191    4182      20
    4203    4194      20    4215    4206      20    4227    4218      20    4239
    4230      20    4251    4242      20    4263    4254      20    4275    4266
      20    4287    4278      20    4299    4290      20    4311    4302      20
    4323    4314      20    4335    4326      20    4347    4338      20    4359
    4350      20    4371    4362      20    4383    4374      20    4395    4386
      20    4407    4398      20    4419    4410      20    4431    4422      20
    4443    4434      20    4455    4446      20    4467    4458      20    4479
    4470      20    4491    4482      20    4503    4494      20    4515    4506
      20    4527    4518      20    4539    4530      20    4551    4542      20
    4563    4554      20    4575    4566      20    4587    4578      20    4599
    4590      20    4611    4602      20    4623    4614      20    4635    4626
      20    4647    4638      20    4659    4650      20    4671    4662      20
    4683    4674      20    4695    4686      20    4707    4698      20    4719
    4710      20    4731    4722      20    4743    4734      20    4755    4746
      20    4767    4758      20    4779    4770      20    4791    4782      20
    4803    4794      20    4815    4806      20    4827    4818      20    4839
    4830      20    4851    4842      20    4863    4854      20    4875    4866
      20    4887    4878      20    4899    4890      20    4911    4902      20
    4923    4914      20    4935    4926      20    4947    4938      20    4959
    4950      20    4971    4962      20    4983    4974      20    4995    4986
      20    5007    4998      20    5019    5010      20    5031    5022      20
    5043    5034      20    5055    5046      20    5067    5058      20    5079
    5070      20    5091    5082      20    5103    5094      20    5115    5106
      20    5127    5118      20    5139    5130      20    5151    5142      20
    5163    5154      20    5175    5166      20    5187    5178      20    5199
    5190      20    5211    5202      20    5223    5214      20    5235    5226
      20    5247    5238      20    5259    5250      20    5271    5262      20
    5283    5274      20    5295    5286      20    5307    5298      20    5319
    5310      20    5331    5322      20    5343    5334      20    5355    5346
      20    5367    5358      20    5379    5370      20    5391    5382      20
    5403    5394      20    5415    5406      20    5427    5418      20    5439
    5430      20    5451    5442      20    5463    5454      20    5475    5466
      20    5487    5478      20    5499    5490      20    5511    5502      20
    5523    5514      20    5535    5526      20    5547    5538      20    5559
    5550      20    5571    5562      20    5583    5574      20    5595    5586
      20    5607    5598      20    5619    5610      20    5631    5622      20
    5643    5634      20    5655    5646      20    5667    5658      20    5679
    5670      20    5691    5682      20    5703    5694      20    5715    5706
      20    5727    5718      20    5739    5730      20    5751    5742      20
    5763    5754      20    5775    5766      20    5787    5778      20    5799
    5790      20    5811    5802      20    5823    5814      20    5835    5826
      20    5847    5838      20    5859    5850      20    5871    5862      20
    5883    5874      20    5895    5886      20    5907    5898      20    5919
    5910      20    5931    5922      20    5943    5934      20    5955    5946
      20    5967    5958      20    5979    5970      20    5991    5982      20
    6003    5994      20    6015    6006      20    6027    6018      20    6039
    6030      20    6051    6042      20    6063    6054      20    6075    6066
      20    6087    6078      20    6099    6090      20    6111    6102      20
    6123    6114      20    6135    6126      20    6147    6138      20    6159
    6150      20    6171    6162      20    6183    6174      20    6195    6186
      20    6207    6198      20    6219    6210      20    6231    6222      20
    6243    6234      20    6255    6246      20    6267    6258      20    6279
    6270      20    6291    6282      20    6303    6294      20    6315    6306
      20    6327    6318      20    6339    6330      20    6351    6342      20
    6363    6354      20    6375    6366      20    6387    6378      20    6399
    6390      20    6411    6402      20    6423    6414      20    6435    6426
      20    6447    6438      20    6459    6450      20    6471    6462      20
    6483    6474      20    6495    6486      20    6507    6498      20    6519
    6510      20    6531    6522      20    6543    6534      20    6555    6546
      20    6567    6558      20    6579    6570      20    6591    6582      20
    6603    6594      20    6615    6606      20    6627    6618      20    6639
    6630      20    6651    6642      20    6663    6654      20    6675    6666
      20    6687    6678      20    6699    6690      20    6711    6702      20
    6723    6714      20    6735    6726      20    6747    6738      20    6759
    6750      20    6771    6762      20    6783    6774      20    6795    6786
      20    6807    6798      20    6819    6810      20    6831    6822      20
    6843    6834      20    6855    6846      20    6867    6858      20    6879
    6870      20    6891    6882      20    6903    6894      20    6915    6906
      20    6927    6918      20    6939    6930      20    6951    6942      20
    6963    6954      20    6975    6966      20    6987    6978      20    6999
    6990      20    7011    7002      20    7023    7014      20    7035    7026
      20    7047    7038      20    7059    7050      20    7071    7062      20
    7083    7074      20    7095    7086      20    7107    7098      20    7119
    7110      20    7131    7122      20    7143    7134      20    7155    7146
      20    7167    7158      20    7179    7170      20    7191    7182      20
    7203    7194      20    7215    7206      20    7227    7218      20    7239
    7230      20    7251    7242      20    7263    7254      20    7275    7266
      20    7287    7278      20    7299    7290      20    7311    7302      20
    7323    7314      20    7335    7326      20    7347    7338      20    7359
    7350      20    7371    7362      20    7383    7374      20    7395    7386
      20    7407    7398      20    7419    7410      20    7431    7422      20
    7443    7434      20    7455    7446      20    7467    7458      20    7479
    7470      20    7491    7482      20    7503    7494      20    7515    7506
      20    7527    7518      20    7539    7530      20    7551    7542      20
    7563    7554      20    7575    7566      20    7587    7578      20    7599
    7590      20    7611    7602      20    7623    7614      20    7635    7626
      20    7647    7638      20    7659    7650      20    7671    7662      20
    7683    7674      20    7695    7686      20    7707    7698      20    7719
    7710      20    7731    7722      20    7743    7734      20    7755    7746
      20    7767    7758      20    7779    7770      20    7791    7782      20
    7803    7794      20    7815    7806      20    7827    7818      20    7839
    7830      20    7851    7842      20    7863    7854      20    7875    7866
      20    7887    7878      20    7899    7890      20    7911    7902      20
    7923    7914      20    7935    7926      20    7947    7938      20    7959
    7950      20    7971    7962      20    7983    7974      20    7995    7986
      20    8007    7998      20    8019    8010      20    8031    8022      20
    8043    8034      20    8055    8046      20    8067    8058      20    8079
    8070      20    8091    8082      20    8103    8094      20    8115    8106
      20    8127    8118      20    8139    8130      20    8151    8142      20
    8163    8154      20    8175    8166      20    8187    8178      20    8199
    8190      20    8211    8202      20    8223    8214      20    8235    8226
      20    8247    8238      20    8259    8250      20    8271    8262      20
    8283    8274      20    8295    8286      20    8307    8298      20    8319
    8310      20    8331    8322      20    8343    8334      20    8355    8346
      20    8367    8358      20    8379    8370      20    8391    8382      20
    8403    8394      20    8415    8406      20    8427    8418      20    8439
    8430      20    8451    8442      20    8463    8454      20    8475    8466
      20    8487    8478      20    8499    8490      20    8511    8502      20
    8523    8514      20    8535    8526      20    8547    8538      20    8559
    8550      20    8571    8562      20    8583    8574      20    8595    8586
      20    8607    8598      20    8619    8610      20    8631    8622      20
    8643    8634      20    8655    8646      20    8667    8658      20    8679
    8670      20    8691    8682      20    8703    8694      20    8715    8706
      20    8727    8718      20    8739    8730      20    8751    8742      20
    8763    8754      20    8775    8766      20    8787    8778      20    8799
    8790      20    8811    8802      20    8823    8814      20    8835    8826
      20    8847    8838      20    8859    8850      20    8871    8862      20
    8883    8874      20    8895    8886      20    8907    8898      20    8919
    8910      20    8931    8922      20    8943    8934      20    8955    8946
      20    8967    8958      20    8979    8970      20    8991    8982      20
    9003    8994      20    9015    9006      20    9027    9018      20    9039
    9030      20    9051    9042      20    9063    9054      20    9075    9066
      20    9087    9078      20    9099    9090      20    9111    9102      20
    9123    9114      20    9135    9126      20    9147    9138      20    9159
    9150      20    9171    9162      20    9183    9174      20    9195    9186
      20    9207    9198      20    9219    9210      20    9231    9222      20
    9243    9234      20    9255    9246      20    9267    9258      20    9279
    9270      20    9291    9282      20    9303    9294      20    9315    9306
      20    9327    9318      20    9339    9330      20    9351    9342      20
    9363    9354      20    9375    9366      20    9387    9378      20    9399
    9390      20    9411    9402      20    9423    9414      20    9435    9426
      20    9447    9438      20    9459    9450      20    9471    9462      20
    9483    9474      20    9495    9486      20    9507    9498      20    9519
    9510      20    9531    9522      20    9543    9534      20    9555    9546
      20    9567    9558      20    9579    9570      20    9591    9582      20
    9603    9594      20    9615    9606      20    9627    9618      20    9639
    9630      20    9651    9642      20    9663    9654      20    9675    9666
      20    9687    9678      20    9699    9690      20    9711    9702      20
    9723    9714      20    9735    9726      20    9747    9738      20    9759
    9750      20    9771    9762      20    9783    9774      20    9795    9786
      20    9807    9798      20    9819    9810      20    9831    9822      20
    9843    9834      20    9855    9846      20    9867    9858      20    9879
    9870      20    9891    9882      20    9903    9894      20    9915    9906
      20    9927    9918      20    9939    9930      20    9951    9942      20
    9963    9954      20    9975    9966      20    9987    9978      20    9999
    9990      20   10011   10002      20   10023   10014      20   10035   10026
      20   10047   10038      20   10059   10050      20   10071   10062      20
   10083   10074      20   10095   10086      20   10107   10098      20   10119
   10110      20   10131   10122      20   10143   10134      20   10155   10146
      20   10167   10158      20   10179   10170      20   10191   10182      20
   10203   10194      20   10215   10206      20   10227   10218      20   10239
   10230      20   10251   10242      20   10263   10254      20   10275   10266
      20   10287   10278      20   10299   10290      20   10311   10302      20
   10323   10314      20   10335   10326      20   10347   10338      20   10359
   10350      20   10371   10362      20   10383   10374      20   10395   10386
      20   10407   10398      20   10419   10410      20   10431   10422      20
   10443   10434      20   10455   10446      20   10467   10458      20   10479
   10470      20   10491   10482      20   10503   10494      20   10515   10506
      20   10527   10518      20   10539   10530      20   10551   10542      20
   10563   10554      20   10575   10566      20   10587   10578      20   10599
   10590      20   10611   10602      20   10623   10614      20   10635   10626
      20   10647   10638      20   10659   10650      20   10671   10662      20
   10683   10674      20   10695   10686      20   10707   10698      20   10719
   10710      20   10731   10722      20   10743   10734      20   10755   10746
      20   10767   10758      20   10779   10770      20   10791   10782      20
   10803   10794      20   10815   10806      20   10827   10818      20   10839
   10830      20   10851   10842      20   10863   10854      20   10875   10866
      20   10887   10878      20   10899   10890      20   10911   10902      20
   10923   10914      20   10935   10926      20   10947   10938      20   10959
   10950      20   10971   10962      20   10983   10974      20   10995   10986
      20   11007   10998      20   11019   11010      20   11031   11022      20
   11043   11034      20   11055   11046      20   11067   11058      20   11079
   11070      20   11091   11082      20   11103   11094      20   11115   11106
      20   11127   11118      20   11139   11130      20   11151   11142      20
   11163   11154      20   11175   11166      20   11187   11178      20   11199
   11190      20   11211   11202      20   11223   11214      20   11235   11226
      20   11247   11238      20   11259   11250      20   11271   11262      20
   11283   11274      20   11295   11286      20   11307   11298      20   11319
   11310      20   11331   11322      20   11343   11334      20   11355   11346
      20   11367   11358      20   11379   11370      20   11391   11382      20
   11403   11394      20   11415   11406      20   11427   11418      20   11439
   11430      20   11451   11442      20   11463   11454      20   11475   11466
      20   11487   11478      20   11499   11490      20   11511   11502      20
   11523   11514      20   11535   11526      20   11547   11538      20   11559
   11550      20   11571   11562      20   11583   11574      20   11595   11586
      20   11607   11598      20   11619   11610      20   11631   11622      20
   11643   11634      20   11655   11646      20   11667   11658      20   11679
   11670      20   11691   11682      20   11703   11694      20   11715   11706
      20   11727   11718      20   11739   11730      20   11751   11742      20
   11763   11754      20   11775   11766      20   11787   11778      20   11799
   11790      20   11811   11802      20   11823   11814      20   11835   11826
      20   11847   11838      20   11859   11850      20   11871   11862      20
   11883   11874      20   11895   11886      20   11907   11898      20   11919
   11910      20   11931   11922      20   11943   11934      20   11955   11946
      20   11967   11958      20   11979   11970      20   11991   11982      20
   12003   11994      20   12015   12006      20   12027   12018      20   12039
   12030      20   12051   12042      20   12063   12054      20   12075   12066
      20   12087   12078      20   12099   12090      20   12111   12102      20
   12123   12114      20   12135   12126      20   12147   12138      20   12159
   12150      20   12171   12162      20   12183   12174      20   12195   12186
      20   12207   12198      20   12219   12210      20   12231   12222      20
   12243   12234      20   12255   12246      20   12267   12258      20   12279
   12270      20   12291   12282      20   12303   12294      20   12315   12306
      20   12327   12318      20   12339   12330      20   12351   12342      20
   12363   12354      20   12375   12366      20   12387   12378      20   12399
   12390      20   12411   12402      20   12423   12414      20   12435   12426
      20   12447   12438      20   12459   12450      20   12471   12462      20
   12483   12474      20   12495   12486      20   12507   12498      20   12519
   12510      20   12531   12522      20   12543   12534      20   12555   12546
      20   12567   12558      20   12579   12570      20   12591   12582      20
   12603   12594      20   12615   12606      20   12627   12618      20   12639
   12630      20   12651   12642      20   12663   12654      20   12675   12666
      20   12687   12678      20   12699   12690      20   12711   12702      20
   12723   12714      20   12735   12726      20   12747   12738      20   12759
   12750      20   12771   12762      20   12783   12774      20   12795   12786
      20   12807   12798      20   12819   12810      20   12831   12822      20
   12843   12834      20   12855   12846      20   12867   12858      20   12879
   12870      20   12891   12882      20   12903   12894      20   12915   12906
      20   12927   12918      20   12939   12930      20   12951   12942      20
   12963   12954      20   12975   12966      20   12987   12978      20   12999
   12990      20   13011   13002      20   13023   13014      20   13035   13026
      20   13047   13038      20   13059   13050      20   13071   13062      20
   13083   13074      20   13095   13086      20   13107   13098      20   13119
   13110      20   13131   13122      20   13143   13134      20   13155   13146
      20   13167   13158      20   13179   13170      20   13191   13182      20
   13203   13194      20   13215   13206      20   13227   13218      20   13239
   13230      20   13251   13242      20   13263   13254      20   13275   13266
      20   13287   13278      20   13299   13290      20   13311   13302      20
   13323   13314      20   13335   13326      20   13347   13338      20   13359
   13350      20   13371   13362      20   13383   13374      20   13395   13386
      20   13407   13398      20   13419   13410      20   13431   13422      20
   13443   13434      20   13455   13446      20   13467   13458      20   13479
   13470      20   13491   13482      20   13503   13494      20   13515   13506
      20   13527   13518      20   13539   13530      20   13551   13542      20
   13563   13554      20   13575   13566      20   13587   13578      20   13599
   13590      20   13611   13602      20   13623   13614      20   13635   13626
      20   13647   13638      20   13659   13650      20   13671   13662      20
   13683   13674      20   13695   13686      20   13707   13698      20   13719
   13710      20   13731   13722      20   13743   13734      20   13755   13746
      20   13767   13758      20   13779   13770      20   13791   13782      20
   13803   13794      20   13815   13806      20   13827   13818      20   13839
   13830      20   13851   13842      20   13863   13854      20   13875   13866
      20   13887   13878      20   13899   13890      20   13911   13902      20
   13923   13914      20   13935   13926      20   13947   13938      20   13959
   13950      20   13971   13962      20   13983   13974      20   13995   13986
      20   14007   13998      20   14019   14010      20   14031   14022      20
   14043   14034      20   14055   14046      20   14067   14058      20   14079
   14070      20   14091   14082      20   14103   14094      20   14115   14106
      20   14127   14118      20   14139   14130      20   14151   14142      20
   14163   14154      20   14175   14166      20   14187   14178      20   14199
   14190      20   14211   14202      20   14223   14214      20   14235   14226
      20   14247   14238      20   14259   14250      20   14271   14262      20
   14283   14274      20   14295   14286      20   14307   14298      20   14319
   14310      20   14331   14322      20   14343   14334      20   14355   14346
      20   14367   14358      20   14379   14370      20   14391   14382      20
   14403   14394      20   14415   14406      20   14427   14418      20   14439
   14430      20   14451   14442      20   14463   14454      20   14475   14466
      20   14487   14478      20   14499   14490      20   14511   14502      20
   14523   14514      20   14535   14526      20   14547   14538      20   14559
   14550      20   14571   14562      20   14583   14574      20   14595   14586
      20   14607   14598      20   14619   14610      20   14631   14622      20
   14643   14634      20   14655   14646      20   14667   14658      20   14679
   14670      20   14691   14682      20   14703   14694      20   14715   14706
      20   14727   14718      20   14739   14730      20   14751   14742      20
   14763   14754      20   14775   14766      20   14787   14778      20   14799
   14790      20   14811   14802      20   14823   14814      20   14835   14826
      20   14847   14838      20   14859   14850      20   14871   14862      20
   14883   14874      20   14895   14886      20   14907   14898      20   14919
   14910      20   14931   14922      20   14943   14934      20   14955   14946
      20   14967   14958      20   14979   14970      20   14991   14982      20
   15003   14994      20   15015   15006      20   15027   15018      20   15039
   15030      20   15051   15042      20   15063   15054      20   15075   15066
      20   15087   15078      20   15099   15090      20   15111   15102      20
   15123   15114      20   15135   15126      20   15147   15138      20   15159
   15150      20   15171   15162      20   15183   15174      20   15195   15186
      20   15207   15198      20   15219   15210      20   15231   15222      20
   15243   15234      20   15255   15246      20   15267   15258      20   15279
   15270      20   15291   15282      20   15303   15294      20   15315   15306
      20   15327   15318      20   15339   15330      20   15351   15342      20
   15363   15354      20   15375   15366      20   15387   15378      20   15399
   15390      20   15411   15402      20   15423   15414      20   15435   15426
      20   15447   15438      20   15459   15450      20   15471   15462      20
   15483   15474      20   15495   15486      20   15507   15498      20   15519
   15510      20   15531   15522      20   15543   15534      20   15555   15546
      20   15567   15558      20   15579   15570      20   15591   15582      20
   15603   15594      20   15615   15606      20   15627   15618      20   15639
   15630      20   15651   15642      20   15663   15654      20   15675   15666
      20   15687   15678      20   15699   15690      20   15711   15702      20
   15723   15714      20   15735   15726      20   15747   15738      20   15759
   15750      20   15771   15762      20   15783   15774      20   15795   15786
      20   15807   15798      20   15819   15810      20   15831   15822      20
   15843   15834      20   15855   15846      20   15867   15858      20   15879
   15870      20   15891   15882      20   15903   15894      20   15915   15906
      20   15927   15918      20   15939   15930      20   15951   15942      20
   15963   15954      20   15975   15966      20   15987   15978      20   15999
   15990      20   16011   16002      20   16023   16014      20   16035   16026
      20   16047   16038      20   16059   16050      20   16071   16062      20
   16083   16074      20   16095   16086      20   16107   16098      20   16119
   16110      20   16131   16122      20   16143   16134      20   16155   16146
      20   16167   16158      20   16179   16170      20   16191   16182      20
   16203   16194      20   16215   16206      20   16227   16218      20   16239
   16230      20   16251   16242      20   16263   16254      20   16275   16266
      20   16287   16278      20   16299   16290      20   16311   16302      20
   16323   16314      20   16335   16326      20   16347   16338      20   16359
   16350      20   16371   16362      20   16383   16374      20   16395   16386
      20   16407   16398      20   16419   16410      20   16431   16422      20
   16443   16434      20   16455   16446      20   16467   16458      20   16479
   16470      20   16491   16482      20   16503   16494      20   16515   16506
      20   16527   16518      20   16539   16530      20   16551   16542      20
   16563   16554      20   16575   16566      20   16587   16578      20   16599
   16590      20   16611   16602      20   16623   16614      20   16635   16626
      20   16647   16638      20   16659   16650      20   16671   16662      20
   16683   16674      20   16695   16686      20   16707   16698      20   16719
   16710      20   16731   16722      20   16743   16734      20   16755   16746
      20   16767   16758      20   16779   16770      20   16791   16782      20
   16803   16794      20   16815   16806      20   16827   16818      20   16839
   16830      20   16851   16842      20   16863   16854      20   16875   16866
      20   16887   16878      20   16899   16890      20   16911   16902      20
   16923   16914      20   16935   16926      20   16947   16938      20   16959
   16950      20   16971   16962      20   16983   16974      20   16995   16986
      20   17007   16998      20   17019   17010      20   17031   17022      20
   17043   17034      20   17055   17046      20   17067   17058      20   17079
   17070      20   17091   17082      20   17103   17094      20   17115   17106
      20   17127   17118      20   17139   17130      20   17151   17142      20
   17163   17154      20   17175   17166      20   17187   17178      20   17199
   17190      20   17211   17202      20   17223   17214      20   17235   17226
      20   17247   17238      20   17259   17250      20   17271   17262      20
   17283   17274      20   17295   17286      20   17307   17298      20   17319
   17310      20   17331   17322      20   17343   17334      20   17355   17346
      20   17367   17358      20   17379   17370      20   17391   17382      20
   17403   17394      20   17415   17406      20   17427   17418      20   17439
   17430      20   17451   17442      20   17463   17454      20   17475   17466
      20   17487   17478      20   17499   17490      20   17511   17502      20
   17523   17514      20   17535   17526      20   17547   17538      20   17559
   17550      20   17571   17562      20   17583   17574      20   17595   17586
      20   17607   17598      20   17619   17610      20   17631   17622      20
   17643   17634      20   17655   17646      20   17667   17658      20   17679
   17670      20   17691   17682      20   17703   17694      20   17715   17706
      20   17727   17718      20   17739   17730      20   17751   17742      20
   17763   17754      20   17775   17766      20   17787   17778      20   17799
   17790      20   17811   17802      20   17823   17814      20   17835   17826
      20   17847   17838      20   17859   17850      20   17871   17862      20
   17883   17874      20   17895   17886      20   17907   17898      20   17919
   17910      20   17931   17922      20   17943   17934      20   17955   17946
      20   17967   17958      20   17979   17970      20   17991   17982      20
   18003   17994      20   18015   18006      20   18027   18018      20   18039
   18030      20   18051   18042      20   18063   18054      20   18075   18066
      20   18087   18078      20   18099   18090      20   18111   18102      20
   18123   18114      20   18135   18126      20   18147   18138      20   18159
   18150      20   18171   18162      20   18183   18174      20   18195   18186
      20   18207   18198      20   18219   18210      20   18231   18222      20
   18243   18234      20   18255   18246      20   18267   18258      20   18279
   18270      20   18291   18282      20   18303   18294      20   18315   18306
      20   18327   18318      20   18339   18330      20   18351   18342      20
   18363   18354      20   18375   18366      20   18387   18378      20   18399
   18390      20   18411   18402      20   18423   18414      20   18435   18426
      20   18447   18438      20   18459   18450      20   18471   18462      20
   18483   18474      20   18495   18486      20   18507   18498      20   18519
   18510      20   18531   18522      20   18543   18534      20   18555   18546
      20   18567   18558      20   18579   18570      20   18591   18582      20
   18603   18594      20   18615   18606      20   18627   18618      20   18639
   18630      20   18651   18642      20   18663   18654      20   18675   18666
      20   18687   18678      20   18699   18690      20   18711   18702      20
   18723   18714      20   18735   18726      20   18747   18738      20   18759
   18750      20   18771   18762      20   18783   18774      20   18795   18786
      20   18807   18798      20   18819   18810      20   18831   18822      20
   18843   18834      20   18855   18846      20   18867   18858      20   18879
   18870      20   18891   18882      20   18903   18894      20   18915   18906
      20   18927   18918      20   18939   18930      20   18951   18942      20
   18963   18954      20   18975   18966      20   18987   18978      20   18999
   18990      20   19011   19002      20   19023   19014      20   19035   19026
      20   19047   19038      20   19059   19050      20   19071   19062      20
   19083   19074      20   19095   19086      20   19107   19098      20   19119
   19110      20   19131   19122      20   19143   19134      20   19155   19146
      20   19167   19158      20   19179   19170      20   19191   19182      20
   19203   19194      20   19215   19206      20   19227   19218      20   19239
   19230      20   19251   19242      20   19263   19254      20   19275   19266
      20   19287   19278      20   19299   19290      20   19311   19302      20
   19323   19314      20   19335   19326      20   19347   19338      20   19359
   19350      20   19371   19362      20   19383   19374      20   19395   19386
      20   19407   19398      20   19419   19410      20   19431   19422      20
   19443   19434      20   19455   19446      20   19467   19458      20   19479
   19470      20   19491   19482      20   19503   19494      20   19515   19506
      20   19527   19518      20   19539   19530      20   19551   19542      20
   19563   19554      20   19575   19566      20   19587   19578      20   19599
   19590      20   19611   19602      20   19623   19614      20   19635   19626
      20   19647   19638      20   19659   19650      20   19671   19662      20
   19683   19674      20   19695   19686      20   19707   19698      20   19719
   19710      20   19731   19722      20   19743   19734      20   19755   19746
      20   19767   19758      20   19779   19770      20   19791   19782      20
   19803   19794      20   19815   19806      20   19827   19818      20   19839
   19830      20   19851   19842      20   19863   19854      20   19875   19866
      20   19887   19878      20   19899   19890      20   19911   19902      20
   19923   19914      20   19935   19926      20   19947   19938      20   19959
   19950      20   19971   19962      20   19983   19974      20   19995   19986
      20   20007   19998      20   20019   20010      20   20031   20022      20
   20043   20034      20   20055   20046      20   20067   20058      20   20079
   20070      20   20091   20082      20   20103   20094      20   20115   20106
      20   20127   20118      20   20139   20130      20   20151   20142      20
   20163   20154      20   20175   20166      20   20187   20178      20   20199
   20190      20   20211   20202      20   20223   20214      20   20235   20226
      20   20247   20238      20   20259   20250      20   20271   20262      20
   20283   20274      20   20295   20286      20   20307   20298      20   20319
   20310      20   20331   20322      20   20343   20334      20   20355   20346
      20   20367   20358      20   20379   20370      20   20391   20382      20
   20403   20394      20   20415   20406      20   20427   20418      20   20439
   20430      20   20451   20442      20   20463   20454      20   20475   20466
      20   20487   20478      20   20499   20490      20   20511   20502      20
   20523   20514      20   20535   20526      20   20547   20538      20   20559
   20550      20   20571   20562      20   20583   20574      20   20595   20586
      20   20607   20598      20   20619   20610      20   20631   20622      20
   20643   20634      20   20655   20646      20   20667   20658      20   20679
   20670      20   20691   20682      20   20703   20694      20   20715   20706
      20   20727   20718      20   20739   20730      20   20751   20742      20
   20763   20754      20   20775   20766      20   20787   20778      20   20799
   20790      20   20811   20802      20   20823   20814      20   20835   20826
      20   20847   20838      20   20859   20850      20   20871   20862      20
   20883   20874      20   20895   20886      20   20907   20898      20   20919
   20910      20   20931   20922      20   20943   20934      20   20955   20946
      20   20967   20958      20   20979   20970      20   20991   20982      20
   21003   20994      20   21015   21006      20   21027   21018      20   21039
   21030      20   21051   21042      20   21063   21054      20   21075   21066
      20   21087   21078      20   21099   21090      20   21111   21102      20
   21123   21114      20   21135   21126      20   21147   21138      20   21159
   21150      20   21171   21162      20   21183   21174      20   21195   21186
      20   21207   21198      20   21219   21210      20   21231   21222      20
   21243   21234      20   21255   21246      20   21267   21258      20   21279
   21270      20   21291   21282      20   21303   21294      20   21315   21306
      20   21327   21318      20   21339   21330      20   21351   21342      20
   21363   21354      20   21375   21366      20   21387   21378      20   21399
   21390      20   21411   21402      20   21423   21414      20   21435   21426
      20   21447   21438      20   21459   21450      20   21471   21462      20
   21483   21474      20   21495   21486      20   21507   21498      20   21519
   21510      20   21531   21522      20   21543   21534      20   21555   21546
      20   21567   21558      20   21579   21570      20   21591   21582      20
   21603   21594      20   21615   21606      20   21627   21618      20   21639
   21630      20   21651   21642      20   21663   21654      20   21675   21666
      20   21687   21678      20   21699   21690      20   21711   21702      20
   21723   21714      20   21735   21726      20   21747   21738      20   21759
   21750      20   21771   21762      20   21783   21774      20   21795   21786
      20   21807   21798      20   21819   21810      20   21831   21822      20
   21843   21834      20   21855   21846      20   21867   21858      20   21879
   21870      20   21891   21882      20   21903   21894      20   21915   21906
      20   21927   21918      20   21939   21930      20   21951   21942      20
   21963   21954      20   21975   21966      20   21987   21978      20   21999
   21990      20   22011   22002      20   22023   22014      20   22035   22026
      20   22047   22038      20   22059   22050      20   22071   22062      20
   22083   22074      20   22095   22086      20   22107   22098      20   22119
   22110      20   22131   22122      20   22143   22134      20   22155   22146
      20   22167   22158      20   22179   22170      20   22191   22182      20
   22203   22194      20   22215   22206      20   22227   22218      20   22239
   22230      20   22251   22242      20   22263   22254      20   22275   22266
      20   22287   22278      20   22299   22290      20   22311   22302      20
   22323   22314      20   22335   22326      20   22347   22338      20   22359
   22350      20   22371   22362      20   22383   22374      20   22395   22386
      20   22407   22398      20   22419   22410      20   22431   22422      20
   22443   22434      20   22455   22446      20   22467   22458      20   22479
   22470      20   22491   22482      20   22503   22494      20   22515   22506
      20   22527   22518      20   22539   22530      20   22551   22542      20
   22563   22554      20   22575   22566      20   22587   22578      20   22599
   22590      20   22611   22602      20   22623   22614      20   22635   22626
      20   22647   22638      20   22659   22650      20   22671   22662      20
   22683   22674      20   22695   22686      20   22707   22698      20   22719
   22710      20   22731   22722      20   22743   22734      20   22755   22746
      20   22767   22758      20   22779   22770      20   22791   22782      20
   22803   22794      20   22815   22806      20   22827   22818      20   22839
   22830      20   22851   22842      20   22863   22854      20   22875   22866
      20   22887   22878      20   22899   22890      20   22911   22902      20
   22923   22914      20   22935   22926      20   22947   22938      20   22959
   22950      20   22971   22962      20   22983   22974      20   22995   22986
      20   23007   22998      20   23019   23010      20   23031   23022      20
   23043   23034      20   23055   23046      20   23067   23058      20   23079
   23070      20   23091   23082      20   23103   23094      20   23115   23106
      20   23127   23118      20   23139   23130      20   23151   23142      20
   23163   23154      20   23175   23166      20   23187   23178      20   23199
   23190      20   23211   23202      20   23223   23214      20   23235   23226
      20   23247   23238      20   23259   23250      20   23271   23262      20
   23283   23274      20   23295   23286      20   23307   23298      20   23319
   23310      20   23331   23322      20   23343   23334      20   23355   23346
      20   23367   23358      20   23379   23370      20   23391   23382      20
   23403   23394      20   23415   23406      20   23427   23418      20   23439
   23430      20   23451   23442      20   23463   23454      20   23475   23466
      20   23487   23478      20   23499   23490      20   23511   23502      20
   23523   23514      20   23535   23526      20   23547   23538      20   23559
   23550      20   23571   23562      20   23583   23574      20   23595   23586
      20   23607   23598      20   23619   23610      20   23631   23622      20
   23643   23634      20   23655   23646      20   23667   23658      20   23679
   23670      20   23691   23682      20   23703   23694      20   23715   23706
      20   23727   23718      20   23739   23730      20   23751   23742      20
   23763   23754      20   23775   23766      20   23787   23778      20   23799
   23790      20   23811   23802      20   23823   23814      20   23835   23826
      20   23847   23838      20   23859   23850      20   23871   23862      20
   23883   23874      20   23895   23886      20   23907   23898      20   23919
   23910      20   23931   23922      20   23943   23934      20   23955   23946
      20   23967   23958      20   23979   23970      20   23991   23982      20
   24003   23994      20   24015   24006      20   24027   24018      20   24039
   24030      20   24051   24042      20   24063   24054      20   24075   24066
      20   24087   24078      20   24099   24090      20   24111   24102      20
   24123   24114      20   24135   24126      20   24147   24138      20   24159
   24150      20   24171   24162      20   24183   24174      20   24195   24186
      20   24207   24198      20   24219   24210      20   24231   24222      20
   24243   24234      20   24255   24246      20   24267   24258      20   24279
   24270      20   24291   24282      20   24303   24294      20   24315   24306
      20   24327   24318      20   24339   24330      20   24351   24342      20
   24363   24354      20   24375   24366      20   24387   24378      20   24399
   24390      20   24411   24402      20   24423   24414      20   24435   24426
      20   24447   24438      20   24459   24450      20   24471   24462      20
   24483   24474      20   24495   24486      20   24507   24498      20   24519
   24510      20   24531   24522      20   24543   24534      20   24555   24546
      20   24567   24558      20   24579   24570      20   24591   24582      20
   24603   24594      20   24615   24606      20   24627   24618      20   24639
   24630      20   24651   24642      20   24663   24654      20   24675   24666
      20   24687   24678      20   24699   24690      20   24711   24702      20
   24723   24714      20   24735   24726      20   24747   24738      20   24759
   24750      20   24771   24762      20   24783   24774      20   24795   24786
      20   24807   24798      20   24819   24810      20   24831   24822      20
   24843   24834      20   24855   24846      20   24867   24858      20   24879
   24870      20   24891   24882      20   24903   24894      20   24915   24906
      20   24927   24918      20   24939   24930      20   24951   24942      20
   24963   24954      20   24975   24966      20   24987   24978      20   24999
   24990      20   25011   25002      20   25023   25014      20   25035   25026
      20   25047   25038      20   25059   25050      20   25071   25062      20
   25083   25074      20   25095   25086      20   25107   25098      20   25119
   25110      20   25131   25122      20   25143   25134      20   25155   25146
      20   25167   25158      20   25179   25170      20   25191   25182      20
   25203   25194      20   25215   25206      20   25227   25218      20   25239
   25230      20   25251   25242      20   25263   25254      20   25275   25266
      20   25287   25278      20   25299   25290      20   25311   25302      20
   25323   25314      20   25335   25326      20   25347   25338      20   25359
   25350      20   25371   25362      20   25383   25374      20   25395   25386
      20   25407   25398      20   25419   25410      20   25431   25422      20
   25443   25434      20   25455   25446      20   25467   25458      20   25479
   25470      20   25491   25482      20   25503   25494      20   25515   25506
      20   25527   25518      20   25539   25530      20   25551   25542      20
   25563   25554      20   25575   25566      20   25587   25578      20   25599
   25590      20   25611   25602      20   25623   25614      20   25635   25626
      20   25647   25638      20   25659   25650      20   25671   25662      20
   25683   25674      20   25695   25686      20   25707   25698      20   25719
   25710      20   25731   25722      20   25743   25734      20   25755   25746
      20   25767   25758      20   25779   25770      20   25791   25782      20
   25803   25794      20   25815   25806      20   25827   25818      20   25839
   25830      20   25851   25842      20   25863   25854      20   25875   25866
      20   25887   25878      20   25899   25890      20   25911   25902      20
   25923   25914      20   25935   25926      20   25947   25938      20   25959
   25950      20   25971   25962      20   25983   25974      20   25995   25986
      20   26007   25998      20   26019   26010      20   26031   26022      20
   26043   26034      20   26055   26046      20   26067   26058      20   26079
   26070      20   26091   26082      20   26103   26094      20   26115   26106
      20   26127   26118      20   26139   26130      20   26151   26142      20
   26163   26154      20   26175   26166      20   26187   26178      20   26199
   26190      20   26211   26202      20   26223   26214      20   26235   26226
      20   26247   26238      20   26259   26250      20   26271   26262      20
   26283   26274      20   26295   26286      20   26307   26298      20   26319
   26310      20   26331   26322      20   26343   26334      20   26355   26346
      20   26367   26358      20   26379   26370      20   26391   26382      20
   26403   26394      20   26415   26406      20   26427   26418      20   26439
   26430      20   26451   26442      20   26463   26454      20   26475   26466
      20   26487   26478      20   26499   26490      20   26511   26502      20
   26523   26514      20   26535   26526      20   26547   26538      20   26559
   26550      20   26571   26562      20   26583   26574      20   26595   26586
      20   26607   26598      20   26619   26610      20   26631   26622      20
   26643   26634      20   26655   26646      20   26667   26658      20   26679
   26670      20   26691   26682      20   26703   26694      20   26715   26706
      20   26727   26718      20   26739   26730      20   26751   26742      20
   26763   26754      20   26775   26766      20   26787   26778      20   26799
   26790      20   26811   26802      20   26823   26814      20   26835   26826
      20   26847   26838      20   26859   26850      20   26871   26862      20
   26883   26874      20
%FLAG ANGLES_INC_HYDROGEN                                                       
%FORMAT(10I8)                                                                   
      12      18      21       2       9       3      12       4       6       3
       9       5       6       3      12       4       0       3       6       5
       0       3       9       5       0       3      12       4      75      81
      84       2      66      63      69       8      63      69      72       8
      54      57      60      10      54      63      66      11      51      48
      54      11      45      42      48       8      42      48      51       8
      39      42      45       8      39      69      72       8      36      30
      39      15      33      30      36       5      33      30      39      15
      27      24      30      18      27      24      75      19      24      30
      33      20      24      30      36      20      21      18      24      24
      18      24      27      25     105     111     114       2      99      93
     102       5      96      93      99       5      96      93     102       5
      90      87      93      18      90      87     105      19      87      93
      96      20      87      93      99      20      87      93     102      20
      84      81      87      24      81      87      90      25     126     132
     135       2     123     117     126      19     120     117     123      28
     120     117     126      19     114     111     117      24     111     117
     120      25     111     117     123      25     186     192     195       2
     177     174     180       8     174     180     183       8     171     168
     174       8     168     174     177       8     165     162     168       8
     162     168     171       8     159     156     162       8     156     162
     165       8     153     156     159       8     153     180     183       8
     150     144     153      15     147     144     150       5     147     144
     153      15     141     138     144      18     141     138     186      19
     138     144     147      20     138     144     150      20     135     132
     138      24     132     138     141      25     204     198     207      30
     201     198     204      30     201     198     207      30     195     192
     198      31     192     198     201      32     192     198     204      32
     192     198     207      32
%FLAG ANGLES_WITHOUT_HYDROGEN                                                   
%FORMAT(10I8)                                                                   
      15      12      18       1      12      18      24       3       3      12
      15       6       3      12      18       7      78      75      81       1
      75      81      87       3      57      54      63       9      54      63
      69      12      48      54      57       9      48      54      63      13
      42      39      69      14      42      48      54      12      39      42
      48      14      39      69      63      14      30      24      75      16
      30      39      42      17      30      39      69      17      24      30
      39      21      24      75      78      22      24      75      81      23
      18      24      30      26      18      24      75      27     108     105
     111       1     105     111     117       3      93      87     105      16
      87     105     108      22      87     105     111      23      81      87
      93      26      81      87     105      27     129     126     132       1
     126     132     138       3     117     126     129      22     117     126
     132      23     111     117     126      27     189     186     192       1
     186     192     198      29     168     174     180      14     162     168
     174      14     156     153     180      14     156     162     168      14
     153     156     162      14     153     180     174      14     144     138
     186      16     144     153     156      17     144     153     180      17
     138     144     153      21     138     186     189      22     138     186
     192      23     132     138     144      26     132     138     186      27
%FLAG DIHEDRALS_INC_HYDROGEN                                                    
%FORMAT(10I8)                                                                   
      15      12      18      21       1      15      12     -18      21       2
      12      18      24      27       3       9       3      12      15       7
       9       3     -12      15       3       9       3     -12      15       8
       9       3      12      18       3       6       3      12      15       7
       6       3     -12      15       3       6       3     -12      15       8
       6       3      12      18       3       3      12      18      21       2
       0       3      12      15       7       0       3     -12      15       3
       0       3     -12      15       8       0       3      12      18       3
      78      75      81      84       1      78      75     -81      84       2
      75      81      87      90       3      66      63      69      72       9
      60      57      54      63       4      60      57     -54      63      10
      60      57     -54      63       5      60      57     -54      63      11
      57      54      63      66       9      54      63      69      72       9
      51      48      54      57       9      51      48      54      63       9
      48      54      57      60       4      48      54     -57      60      10
      48      54     -57      60       5      48      54     -57      60      11
      48      54      63      66       9      45      42      39      69       9
      45      42      48      51       9      45      42      48      54       9
      42      39      69      72       9      39      42      48      51       9
      39      69      63      66       9      36      30      24      75      16
      36      30      39      42       3      36      30      39      69       3
      33      30      24      75      16      33      30      39      42       3
      33      30      39      69       3      30      39      42      45       9
      30      39      69      72       9      27      24      30      33      16
      27      24      30      36      16      27      24      30      39      16
      27      24      75      78       4      27      24     -75      78       3
      27      24     -75      78      17      27      24      75      81       3
      24      75      81      84       2      21      18      24      27       3
      21      18      24      30       3      21      18      24      75       3
      18      24      30      33      16      18      24      30      36      16
     108     105     111     114       1     108     105    -111     114       2
     105     111     117     120       3     105     111     117     123       3
     102      93      87     105      16      99      93      87     105      16
      96      93      87     105      16      90      87      93      96      16
      90      87      93      99      16      90      87      93     102      16
      90      87     105     108       4      90      87    -105     108       3
      90      87    -105     108      17      90      87     105     111       3
      87     105     111     114       2      84      81      87      90       3
      84      81      87      93       3      84      81      87     105       3
      81      87      93      96      16      81      87      93      99      16
      81      87      93     102      16     129     126     132     135       1
     129     126    -132     135       2     126     132     138     141       3
     123     117     126     129       4     123     117    -126     129       3
     123     117    -126     129      17     123     117     126     132       3
     120     117     126     129       4     120     117    -126     129       3
     120     117    -126     129      17     120     117     126     132       3
     117     126     132     135       2     114     111     117     120       3
     114     111     117     123       3     114     111     117     126       3
     189     186     192     195       1     189     186    -192     195       2
     186     192     198     201       3     186     192     198     204       3
     186     192     198     207       3     177     174     180     183       9
     171     168     174     177       9     171     168     174     180       9
     168     174     180     183       9     165     162     168     171       9
     165     162     168     174       9     162     168     174     177       9
     159     156     153     180       9     159     156     162     165       9
     159     156     162     168       9     156     153     180     183       9
     156     162     168     171       9     153     156     162     165       9
     153     180     174     177       9     150     144     138     186      16
     150     144     153     156       3     150     144     153     180       3
     147     144     138     186      16     147     144     153     156       3
     147     144     153     180       3     144     153     156     159       9
     144     153     180     183       9     141     138     144     147      16
     141     138     144     150      16     141     138     144     153      16
     141     138     186     189       4     141     138    -186     189       3
     141     138    -186     189      17     141     138     186     192       3
     138     186     192     195       2     135     132     138     141       3
     135     132     138     144       3     135     132     138     186       3
     132     138     144     147      16     132     138     144     150      16
     195     192     198     201       3     195     192     198     204       3
     195     192     198     207       3      39      63     -69     -72      26
      54      69     -63     -66      26      42      54     -48     -51      26
      39      48     -42     -45      26      12      24     -18     -21      26
      75      84     -81     -87      26     105     114    -111    -117      26
     153     174    -180    -183      26     168     180    -174    -177      26
     162     174    -168    -171      26     156     168    -162    -165      26
     153     162    -156    -159      26     126     135    -132    -138      26
     186     198    -192    -195      26
%FLAG DIHEDRALS_WITHOUT_HYDROGEN                                                
%FORMAT(10I8)                                                                   
      15      12      18      24       2      12      18      24      30       4
      12      18     -24      30       3      12      18     -24      30       5
      12      18     -24      30       6      12      18      24      75       4
      12      18     -24      75       3      12      18     -24      75       5
      12      18     -24      75       6       3      12      18      24       2
      78      75      81      87       2      75      81      87      93       4
      75      81     -87      93       3      75      81     -87      93       5
      75      81     -87      93       6      75      81      87     105       4
      75      81     -87     105       3      75      81     -87     105       5
      75      81     -87     105       6      57      54      63      69       9
      48      42      39      69       9      48      54     -63      69       9
      42      39      69      63       9      42      48      54      57       9
      42      48     -54      63       9      39      30      24      75      12
      39      30     -24      75      13      39      30     -24      75      14
      39      30     -24      75      15      39      42      48      54       9
      39      69     -63      54       9      30      24      75      78       3
      30      24      75      81       4      30      24     -75      81       3
      30      24     -75      81       5      30      24     -75      81       6
      30      39      42      48       9      30      39      69      63       9
      24      30      39      42       4      24      30     -39      42      18
      24      30     -39      42       5      24      30     -39      42      19
      24      30      39      69       4      24      30     -39      69      18
      24      30     -39      69       5      24      30     -39      69      19
      24      75      81      87       2      18      24      30      39      20
      18      24     -30      39      21      18      24     -30      39      14
      18      24     -30      39      22      18      24      75      78       3
      18      24      75      81      23      18      24     -75      81      24
      18      24     -75      81      17      18      24     -75      81       6
     108     105     111     117       2     105     111     117     126       4
     105     111    -117     126       3     105     111    -117     126       5
     105     111    -117     126       6      93      87     105     108       3
      93      87     105     111       4      93      87    -105     111       3
      93      87    -105     111       5      93      87    -105     111       6
      87     105     111     117       2      81      87     105     108       3
      81      87     105     111      23      81      87    -105     111      24
      81      87    -105     111      17      81      87    -105     111       6
     129     126     132     138       2     126     132     138     144       4
     126     132    -138     144       3     126     132    -138     144       5
     126     132    -138     144       6     126     132     138     186       4
     126     132    -138     186       3     126     132    -138     186       5
     126     132    -138     186       6     117     126     132     138       2
     111     117     126     129       3     111     117     126     132      23
     111     117    -126     132      24     111     117    -126     132      17
     111     117    -126     132       6     189     186     192     198       2
     162     156     153     180       9     162     168    -174     180       9
     156     153     180     174       9     156     162    -168     174       9
     153     144     138     186      12     153     144    -138     186      13
     153     144    -138     186      14     153     144    -138     186      15
     153     156     162     168       9     153     180    -174     168       9
     144     138     186     189       3     144     138     186     192       4
     144     138    -186     192       3     144     138    -186     192       5
     144     138    -186     192       6     144     153     156     162       9
     144     153     180     174       9     138     144     153     156       4
     138     144    -153     156      18     138     144    -153     156       5
     138     144    -153     156      19     138     144     153     180       4
     138     144    -153     180      18     138     144    -153     180       5
     138     144    -153     180      19     138     186     192     198       2
     132     138     144     153      20     132     138    -144     153      21
     132     138    -144     153      14     132     138    -144     153      22
     132     138     186     189       3     132     138     186     192      23
     132     138    -186     192      24     132     138    -186     192      17
     132     138    -186     192       6       3      18     -12     -15      25
      24      81     -75     -78      25      48      63     -54     -57      26
      42      69     -39     -30      26      87     111    -105    -108      25
     117     132    -126    -129      25     138     192    -186    -189      25
     156     180    -153    -144      26
%FLAG EXCLUDED_ATOMS_LIST                                                       
%FORMAT(10I8)                                                                   
       2       3       4       5       6       7       3       4       5       6
       7       8       9       4       5       6       7       5       6       7
       6       7       8       9      10      11      26       7       8       9
       8       9      10      11      12      13      14      26      27      28
       9      10      11      26      10      11      12      13      14      15
      24      26      27      28      29      30      11      12      13      14
      26      27      28      12      13      14      15      16      17      22
      24      25      26      27      28      13      14      15      24      26
      14      15      24      26      15      16      17      18      19      22
      23      24      25      26      16      17      18      19      20      22
      24      25      17      18      19      24      18      19      20      21
      22      23      24      19      20      22      20      21      22      23
      24      25      21      22      23      24      22      23      24      25
      24      25      25       0      27      28      29      30      31      32
      36      28      29      30      29      30      31      32      33      34
      35      36      37      38      30      31      32      36      31      32
      33      34      35      36      37      38      39      40      32      33
      34      35      36      37      38      33      34      35      36      37
      38      34      35      36      35      36      36      37      38      39
      40      41      42      43      38      39      40      39      40      41
      42      43      44      45      40      41      42      43      41      42
      43      44      45      46      47      42      43      44      45      43
      44      45      44      45      46      47      48      49      63      45
      46      47      46      47      48      49      50      51      52      63
      64      65      47      48      49      63      48      49      50      51
      52      53      61      63      64      65      66      67      49      50
      51      52      63      64      65      50      51      52      53      54
      55      59      61      62      63      64      65      51      52      53
      61      63      52      53      61      63      53      54      55      56
      57      59      60      61      62      63      54      55      56      57
      58      59      61      62      55      56      57      61      56      57
      58      59      60      61      57      58      59      58      59      60
      61      62      59      60      61      60      61      62      61      62
      62       0      64      65      66      67      68      69      70      65
      66      67      66      67      68      69      70      67      68      69
      70      68      69      70      69      70      70       0      72      73
      74      73      74      74       0      76      77      78      77      78
      78       0      80      81      82      81      82      82       0      84
      85      86      85      86      86       0      88      89      90      89
      90      90       0      92      93      94      93      94      94       0
      96      97      98      97      98      98       0     100     101     102
     101     102     102       0     104     105     106     105     106     106
       0     108     109     110     109     110     110       0     112     113
     114     113     114     114       0     116     117     118     117     118
     118       0     120     121     122     121     122     122       0     124
     125     126     125     126     126       0     128     129     130     129
     130     130       0     132     133     134     133     134     134       0
     136     137     138     137     138     138       0     140     141     142
     141     142     142       0     144     145     146     145     146     146
       0     148     149     150     149     150     150       0     152     153
     154     153     154     154       0     156     157     158     157     158
     158       0     160     161     162     161     162     162       0     164
     165     166     165     166     166       0     168     169     170     169
     170     170       0     172     173     174     173     174     174       0
     176     177     178     177     178     178       0     180     181     182
     181     182     182       0     184     185     186     185     186     186
       0     188     189     190     189     190     190       0     192     193
     194     193     194     194       0     196     197     198     197     198
     198       0     200     201     202     201     202     202       0     204
     205     206     205     206     206       0     208     209     210     209
     210     210       0     212     213     214     213     214     214       0
     216     217     218     217     218     218       0     220     221     222
     221     222     222       0     224     225     226     225     226     226
       0     228     229     230     229     230     230       0     232     233
     234     233     234     234       0     236     237     238     237     238
     238       0     240     241     242     241     242     242       0     244
     245     246     245     246     246       0     248     249     250     249
     250     250       0     252     253     254     253     254     254       0
     256     257     258     257     258     258       0     260     261     262
     261     262     262       0     264     265     266     265     266     266
       0     268     269     270     269     270     270       0     272     273
     274     273     274     274       0     276     277     278     277     278
     278       0     280     281     282     281     282     282       0     284
     285     286     285     286     286       0     288     289     290     289
     290     290       0     292     293     294     293     294     294       0
     296     297     298     297     298     298       0     300     301     302
     301     302     302       0     304     305     306     305     306     306
       0     308     309     310     309     310     310       0     312     313
     314     313     314     314       0     316     317     318     317     318
     318       0     320     321     322     321     322     322       0     324
     325     326     325     326     326       0     328     329     330     329
     330     330       0     332     333     334     333     334     334       0
     336     337     338     337     338     338       0     340     341     342
     341     342     342       0     344     345     346     345     346     346
       0     348     349     350     349     350     350       0     352     353
     354     353     354     354       0     356     357     358     357     358
     358       0     360     361     362     361     362     362       0     364
     365     366     365     366     366       0     368     369     370     369
     370     370       0     372     373     374     373     374     374       0
     376     377     378     377     378     378       0     380     381     382
     381     382     382       0     384     385     386     385     386     386
       0     388     389     390     389     390     390       0     392     393
     394     393     394     394       0     396     397     398     397     398
     398       0     400     401     402     401     402     402       0     404
     405     406     405     406     406       0     408     409     410     409
     410     410       0     412     413     414     413     414     414       0
     416     417     418     417     418     418       0     420     421     422
     421     422     422       0     424     425     426     425     426     426
       0     428     429     430     429     430     430       0     432     433
     434     433     434     434       0     436     437     438     437     438
     438       0     440     441     442     441     442     442       0     444
     445     446     445     446     446       0     448     449     450     449
     450     450       0     452     453     454     453     454     454       0
     456     457     458     457     458     458       0     460     461     462
     461     462     462       0     464     465     466     465     466     466
       0     468     469     470     469     470     470       0     472     473
     474     473     474     474       0     476     477     478     477     478
     478       0     480     481     482     481     482     482       0     484
     485     486     485     486     486       0     488     489     490     489
     490     490       0     492     493     494     493     494     494       0
     496     497     498     497     498     498       0     500     501     502
     501     502     502       0     504     505     506     505     506     506
       0     508     509     510     509     510     510       0     512     513
     514     513     514     514       0     516     517     518     517     518
     518       0     520     521     522     521     522     522       0     524
     525     526     525     526     526       0     528     529     530     529
     530     530       0     532     533     534     533     534     534       0
     536     537     538     537     538     538       0     540     541     542
     541     542     542       0     544     545     546     545     546     546
       0     548     549     550     549     550     550       0     552     553
     554     553     554     554       0     556     557     558     557     558
     558       0     560     561     562     561     562     562       0     564
     565     566     565     566     566       0     568     569     570     569
     570     570       0     572     573     574     573     574     574       0
     576     577     578     577     578     578       0     580     581     582
     581     582     582       0     584     585     586     585     586     586
       0     588     589     590     589     590     590       0     592     593
     594     593     594     594       0     596     597     598     597     598
     598       0     600     601     602     601     602     602       0     604
     605     606     605     606     606       0     608     609     610     609
     610     610       0     612     613     614     613     614     614       0
     616     617     618     617     618     618       0     620     621     622
     621     622     622       0     624     625     626     625     626     626
       0     628     629     630     629     630     630       0     632     633
     634     633     634     634       0     636     637     638     637     638
     638       0     640     641     642     641     642     642       0     644
     645     646     645     646     646       0     648     649     650     649
     650     650       0     652     653     654     653     654     654       0
     656     657     658     657     658     658       0     660     661     662
     661     662     662       0     664     665     666     665     666     666
       0     668     669     670     669     670     670       0     672     673
     674     673     674     674       0     676     677     678     677     678
     678       0     680     681     682     681     682     682       0     684
     685     686     685     686     686       0     688     689     690     689
     690     690       0     692     693     694     693     694     694       0
     696     697     698     697     698     698       0     700     701     702
     701     702     702       0     704     705     706     705     706     706
       0     708     709     710     709     710     710       0     712     713
     714     713     714     714       0     716     717     718     717     718
     718       0     720     721     722     721     722     722       0     724
     725     726     725     726     726       0     728     729     730     729
     730     730       0     732     733     734     733     734     734       0
     736     737     738     737     738     738       0     740     741     742
     741     742     742       0     744     745     746     745     746     746
       0     748     749     750     749     750     750       0     752     753
     754     753     754     754       0     756     757     758     757     758
     758       0     760     761     762     761     762     762       0     764
     765     766     765     766     766       0     768     769     770     769
     770     770       0     772     773     774     773     774     774       0
     776     777     778     777     778     778       0     780     781     782
     781     782     782       0     784     785     786     785     786     786
       0     788     789     790     789     790     790       0     792     793
     794     793     794     794       0     796     797     798     797     798
     798       0     800     801     802     801     802     802       0     804
     805     806     805     806     806       0     808     809     810     809
     810     810       0     812     813     814     813     814     814       0
     816     817     818     817     818     818       0     820     821     822
     821     822     822       0     824     825     826     825     826     826
       0     828     829     830     829     830     830       0     832     833
     834     833     834     834       0     836     837     838     837     838
     838       0     840     841     842     841     842     842       0     844
     845     846     845     846     846       0     848     849     850     849
     850     850       0     852     853     854     853     854     854       0
     856     857     858     857     858     858       0     860     861     862
     861     862     862       0     864     865     866     865     866     866
       0     868     869     870     869     870     870       0     872     873
     874     873     874     874       0     876     877     878     877     878
     878       0     880     881     882     881     882     882       0     884
     885     886     885     886     886       0     888     889     890     889
     890     890       0     892     893     894     893     894     894       0
     896     897     898     897     898     898       0     900     901     902
     901     902     902       0     904     905     906     905     906     906
       0     908     909     910     909     910     910       0     912     913
     914     913     914     914       0     916     917     918     917     918
     918       0     920     921     922     921     922     922       0     924
     925     926     925     926     926       0     928     929     930     929
     930     930       0     932     933     934     933     934     934       0
     936     937     938     937     938     938       0     940     941     942
     941     942     942       0     944     945     946     945     946     946
       0     948     949     950     949     950     950       0     952     953
     954     953     954     954       0     956     957     958     957     958
     958       0     960     961     962     961     962     962       0     964
     965     966     965     966     966       0     968     969     970     969
     970     970       0     972     973     974     973     974     974       0
     976     977     978     977     978     978       0     980     981     982
     981     982     982       0     984     985     986     985     986     986
       0     988     989     990     989     990     990       0     992     993
     994     993     994     994       0     996     997     998     997     998
     998       0    1000    1001    1002    1001    1002    1002       0    1004
    1005    1006    1005    1006    1006       0    1008    1009    1010    1009
    1010    1010       0    1012    1013    1014    1013    1014    1014       0
    1016    1017    1018    1017    1018    1018       0    1020    1021    1022
    1021    1022    1022       0    1024    1025    1026    1025    1026    1026
       0    1028    1029    1030    1029    1030    1030       0    1032    1033
    1034    1033    1034    1034       0    1036    1037    1038    1037    1038
    1038       0    1040    1041    1042    1041    1042    1042       0    1044
    1045    1046    1045    1046    1046       0    1048    1049    1050    1049
    1050    1050       0    1052    1053    1054    1053    1054    1054       0
    1056    1057    1058    1057    1058    1058       0    1060    1061    1062
    1061    1062    1062       0    1064    1065    1066    1065    1066    1066
       0    1068    1069    1070    1069    1070    1070       0    1072    1073
    1074    1073    1074    1074       0    1076    1077    1078    1077    1078
    1078       0    1080    1081    1082    1081    1082    1082       0    1084
    1085    1086    1085    1086    1086       0    1088    1089    1090    1089
    1090    1090       0    1092    1093    1094    1093    1094    1094       0
    1096    1097    1098    1097    1098    1098       0    1100    1101    1102
    1101    1102    1102       0    1104    1105    1106    1105    1106    1106
       0    1108    1109    1110    1109    1110    1110       0    1112    1113
    1114    1113    1114    1114       0    1116    1117    1118    1117    1118
    1118       0    1120    1121    1122    1121    1122    1122       0    1124
    1125    1126    1125    1126    1126       0    1128    1129    1130    1129
    1130    1130       0    1132    1133    1134    1133    1134    1134       0
    1136    1137    1138    1137    1138    1138       0    1140    1141    1142
    1141    1142    1142       0    1144    1145    1146    1145    1146    1146
       0    1148    1149    1150    1149    1150    1150       0    1152    1153
    1154    1153    1154    1154       0    1156    1157    1158    1157    1158
    1158       0    1160    1161    1162    1161    1162    1162       0    1164
    1165    1166    1165    1166    1166       0    1168    1169    1170    1169
    1170    1170       0    1172    1173    1174    1173    1174    1174       0
    1176    1177    1178    1177    1178    1178       0    1180    1181    1182
    1181    1182    1182       0    1184    1185    1186    1185    1186    1186
       0    1188    1189    1190    1189    1190    1190       0    1192    1193
    1194    1193    1194    1194       0    1196    1197    1198    1197    1198
    1198       0    1200    1201    1202    1201    1202    1202       0    1204
    1205    1206    1205    1206    1206       0    1208    1209    1210    1209
    1210    1210       0    1212    1213    1214    1213    1214    1214       0
    1216    1217    1218    1217    1218    1218       0    1220    1221    1222
    1221    1222    1222       0    1224    1225    1226    1225    1226    1226
       0    1228    1229    1230    1229    1230    1230       0    1232    1233
    1234    1233    1234    1234       0    1236    1237    1238    1237    1238
    1238       0    1240    1241    1242    1241    1242    1242       0    1244
    1245    1246    1245    1246    1246       0    1248    1249    1250    1249
    1250    1250       0    1252    1253    1254    1253    1254    1254       0
    1256    1257    1258    1257    1258    1258       0    1260    1261    1262
    1261    1262    1262       0    1264    1265    1266    1265    1266    1266
       0    1268    1269    1270    1269    1270    1270       0    1272    1273
    1274    1273    1274    1274       0    1276    1277    1278    1277    1278
    1278       0    1280    1281    1282    1281    1282    1282       0    1284
    1285    1286    1285    1286    1286       0    1288    1289    1290    1289
    1290    1290       0    1292    1293    1294    1293    1294    1294       0
    1296    1297    1298    1297    1298    1298       0    1300    1301    1302
    1301    1302    1302       0    1304    1305    1306    1305    1306    1306
       0    1308    1309    1310    1309    1310    1310       0    1312    1313
    1314    1313    1314    1314       0    1316    1317    1318    1317    1318
    1318       0    1320    1321    1322    1321    1322    1322       0    1324
    1325    1326    1325    1326    1326       0    1328    1329    1330    1329
    1330    1330       0    1332    1333    1334    1333    1334    1334       0
    1336    1337    1338    1337    1338    1338       0    1340    1341    1342
    1341    1342    1342       0    1344    1345    1346    1345    1346    1346
       0    1348    1349    1350    1349    1350    1350       0    1352    1353
    1354    1353    1354    1354       0    1356    1357    1358    1357    1358
    1358       0    1360    1361    1362    1361    1362    1362       0    1364
    1365    1366    1365    1366    1366       0    1368    1369    1370    1369
    1370    1370       0    1372    1373    1374    1373    1374    1374       0
    1376    1377    1378    1377    1378    1378       0    1380    1381    1382
    1381    1382    1382       0    1384    1385    1386    1385    1386    1386
       0    1388    1389    1390    1389    1390    1390       0    1392    1393
    1394    1393    1394    1394       0    1396    1397    1398    1397    1398
    1398       0    1400    1401    1402    1401    1402    1402       0    1404
    1405    1406    1405    1406    1406       0    1408    1409    1410    1409
    1410    1410       0    1412    1413    1414    1413    1414    1414       0
    1416    1417    1418    1417    1418    1418       0    1420    1421    1422
    1421    1422    1422       0    1424    1425    1426    1425    1426    1426
       0    1428    1429    1430    1429    1430    1430       0    1432    1433
    1434    1433    1434    1434       0    1436    1437    1438    1437    1438
    1438       0    1440    1441    1442    1441    1442    1442       0    1444
    1445    1446    1445    1446    1446       0    1448    1449    1450    1449
    1450    1450       0    1452    1453    1454    1453    1454    1454       0
    1456    1457    1458    1457    1458    1458       0    1460    1461    1462
    1461    1462    1462       0    1464    1465    1466    1465    1466    1466
       0    1468    1469    1470    1469    1470    1470       0    1472    1473
    1474    1473    1474    1474       0    1476    1477    1478    1477    1478
    1478       0    1480    1481    1482    1481    1482    1482       0    1484
    1485    1486    1485    1486    1486       0    1488    1489    1490    1489
    1490    1490       0    1492    1493    1494    1493    1494    1494       0
    1496    1497    1498    1497    1498    1498       0    1500    1501    1502
    1501    1502    1502       0    1504    1505    1506    1505    1506    1506
       0    1508    1509    1510    1509    1510    1510       0    1512    1513
    1514    1513    1514    1514       0    1516    1517    1518    1517    1518
    1518       0    1520    1521    1522    1521    1522    1522       0    1524
    1525    1526    1525    1526    1526       0    1528    1529    1530    1529
    1530    1530       0    1532    1533    1534    1533    1534    1534       0
    1536    1537    1538    1537    1538    1538       0    1540    1541    1542
    1541    1542    1542       0    1544    1545    1546    1545    1546    1546
       0    1548    1549    1550    1549    1550    1550       0    1552    1553
    1554    1553    1554    1554       0    1556    1557    1558    1557    1558
    1558       0    1560    1561    1562    1561    1562    1562       0    1564
    1565    1566    1565    1566    1566       0    1568    1569    1570    1569
    1570    1570       0    1572    1573    1574    1573    1574    1574       0
    1576    1577    1578    1577    1578    1578       0    1580    1581    1582
    1581    1582    1582       0    1584    1585    1586    1585    1586    1586
       0    1588    1589    1590    1589    1590    1590       0    1592    1593
    1594    1593    1594    1594       0    1596    1597    1598    1597    1598
    1598       0    1600    1601    1602    1601    1602    1602       0    1604
    1605    1606    1605    1606    1606       0    1608    1609    1610    1609
    1610    1610       0    1612    1613    1614    1613    1614    1614       0
    1616    1617    1618    1617    1618    1618       0    1620    1621    1622
    1621    1622    1622       0    1624    1625    1626    1625    1626    1626
       0    1628    1629    1630    1629    1630    1630       0    1632    1633
    1634    1633    1634    1634       0    1636    1637    1638    1637    1638
    1638       0    1640    1641    1642    1641    1642    1642       0    1644
    1645    1646    1645    1646    1646       0    1648    1649    1650    1649
    1650    1650       0    1652    1653    1654    1653    1654    1654       0
    1656    1657    1658    1657    1658    1658       0    1660    1661    1662
    1661    1662    1662       0    1664    1665    1666    1665    1666    1666
       0    1668    1669    1670    1669    1670    1670       0    1672    1673
    1674    1673    1674    1674       0    1676    1677    1678    1677    1678
    1678       0    1680    1681    1682    1681    1682    1682       0    1684
    1685    1686    1685    1686    1686       0    1688    1689    1690    1689
    1690    1690       0    1692    1693    1694    1693    1694    1694       0
    1696    1697    1698    1697    1698    1698       0    1700    1701    1702
    1701    1702    1702       0    1704    1705    1706    1705    1706    1706
       0    1708    1709    1710    1709    1710    1710       0    1712    1713
    1714    1713    1714    1714       0    1716    1717    1718    1717    1718
    1718       0    1720    1721    1722    1721    1722    1722       0    1724
    1725    1726    1725    1726    1726       0    1728    1729    1730    1729
    1730    1730       0    1732    1733    1734    1733    1734    1734       0
    1736    1737    1738    1737    1738    1738       0    1740    1741    1742
    1741    1742    1742       0    1744    1745    1746    1745    1746    1746
       0    1748    1749    1750    1749    1750    1750       0    1752    1753
    1754    1753    1754    1754       0    1756    1757    1758    1757    1758
    1758       0    1760    1761    1762    1761    1762    1762       0    1764
    1765    1766    1765    1766    1766       0    1768    1769    1770    1769
    1770    1770       0    1772    1773    1774    1773    1774    1774       0
    1776    1777    1778    1777    1778    1778       0    1780    1781    1782
    1781    1782    1782       0    1784    1785    1786    1785    1786    1786
       0    1788    1789    1790    1789    1790    1790       0    1792    1793
    1794    1793    1794    1794       0    1796    1797    1798    1797    1798
    1798       0    1800    1801    1802    1801    1802    1802       0    1804
    1805    1806    1805    1806    1806       0    1808    1809    1810    1809
    1810    1810       0    1812    1813    1814    1813    1814    1814       0
    1816    1817    1818    1817    1818    1818       0    1820    1821    1822
    1821    1822    1822       0    1824    1825    1826    1825    1826    1826
       0    1828    1829    1830    1829    1830    1830       0    1832    1833
    1834    1833    1834    1834       0    1836    1837    1838    1837    1838
    1838       0    1840    1841    1842    1841    1842    1842       0    1844
    1845    1846    1845    1846    1846       0    1848    1849    1850    1849
    1850    1850       0    1852    1853    1854    1853    1854    1854       0
    1856    1857    1858    1857    1858    1858       0    1860    1861    1862
    1861    1862    1862       0    1864    1865    1866    1865    1866    1866
       0    1868    1869    1870    1869    1870    1870       0    1872    1873
    1874    1873    1874    1874       0    1876    1877    1878    1877    1878
    1878       0    1880    1881    1882    1881    1882    1882       0    1884
    1885    1886    1885    1886    1886       0    1888    1889    1890    1889
    1890    1890       0    1892    1893    1894    1893    1894    1894       0
    1896    1897    1898    1897    1898    1898       0    1900    1901    1902
    1901    1902    1902       0    1904    1905    1906    1905    1906    1906
       0    1908    1909    1910    1909    1910    1910       0    1912    1913
    1914    1913    1914    1914       0    1916    1917    1918    1917    1918
    1918       0    1920    1921    1922    1921    1922    1922       0    1924
    1925    1926    1925    1926    1926       0    1928    1929    1930    1929
    1930    1930       0    1932    1933    1934    1933    1934    1934       0
    1936    1937    1938    1937    1938    1938       0    1940    1941    1942
    1941    1942    1942       0    1944    1945    1946    1945    1946    1946
       0    1948    1949    1950    1949    1950    1950       0    1952    1953
    1954    1953    1954    1954       0    1956    1957    1958    1957    1958
    1958       0    1960    1961    1962    1961    1962    1962       0    1964
    1965    1966    1965    1966    1966       0    1968    1969    1970    1969
    1970    1970       0    1972    1973    1974    1973    1974    1974       0
    1976    1977    1978    1977    1978    1978       0    1980    1981    1982
    1981    1982    1982       0    1984    1985    1986    1985    1986    1986
       0    1988    1989    1990    1989    1990    1990       0    1992    1993
    1994    1993    1994    1994       0    1996    1997    1998    1997    1998
    1998       0    2000    2001    2002    2001    2002    2002       0    2004
    2005    2006    2005    2006    2006       0    2008    2009    2010    2009
    2010    2010       0    2012    2013    2014    2013    2014    2014       0
    2016    2017    2018    2017    2018    2018       0    2020    2021    2022
    2021    2022    2022       0    2024    2025    2026    2025    2026    2026
       0    2028    2029    2030    2029    2030    2030       0    2032    2033
    2034    2033    2034    2034       0    2036    2037    2038    2037    2038
    2038       0    2040    2041    2042    2041    2042    2042       0    2044
    2045    2046    2045    2046    2046       0    2048    2049    2050    2049
    2050    2050       0    2052    2053    2054    2053    2054    2054       0
    2056    2057    2058    2057    2058    2058       0    2060    2061    2062
    2061    2062    2062       0    2064    2065    2066    2065    2066    2066
       0    2068    2069    2070    2069    2070    2070       0    2072    2073
    2074    2073    2074    2074       0    2076    2077    2078    2077    2078
    2078       0    2080    2081    2082    2081    2082    2082       0    2084
    2085    2086    2085    2086    2086       0    2088    2089    2090    2089
    2090    2090       0    2092    2093    2094    2093    2094    2094       0
    2096    2097    2098    2097    2098    2098       0    2100    2101    2102
    2101    2102    2102       0    2104    2105    2106    2105    2106    2106
       0    2108    2109    2110    2109    2110    2110       0    2112    2113
    2114    2113    2114    2114       0    2116    2117    2118    2117    2118
    2118       0    2120    2121    2122    2121    2122    2122       0    2124
    2125    2126    2125    2126    2126       0    2128    2129    2130    2129
    2130    2130       0    2132    2133    2134    2133    2134    2134       0
    2136    2137    2138    2137    2138    2138       0    2140    2141    2142
    2141    2142    2142       0    2144    2145    2146    2145    2146    2146
       0    2148    2149    2150    2149    2150    2150       0    2152    2153
    2154    2153    2154    2154       0    2156    2157    2158    2157    2158
    2158       0    2160    2161    2162    2161    2162    2162       0    2164
    2165    2166    2165    2166    2166       0    2168    2169    2170    2169
    2170    2170       0    2172    2173    2174    2173    2174    2174       0
    2176    2177    2178    2177    2178    2178       0    2180    2181    2182
    2181    2182    2182       0    2184    2185    2186    2185    2186    2186
       0    2188    2189    2190    2189    2190    2190       0    2192    2193
    2194    2193    2194    2194       0    2196    2197    2198    2197    2198
    2198       0    2200    2201    2202    2201    2202    2202       0    2204
    2205    2206    2205    2206    2206       0    2208    2209    2210    2209
    2210    2210       0    2212    2213    2214    2213    2214    2214       0
    2216    2217    2218    2217    2218    2218       0    2220    2221    2222
    2221    2222    2222       0    2224    2225    2226    2225    2226    2226
       0    2228    2229    2230    2229    2230    2230       0    2232    2233
    2234    2233    2234    2234       0    2236    2237    2238    2237    2238
    2238       0    2240    2241    2242    2241    2242    2242       0    2244
    2245    2246    2245    2246    2246       0    2248    2249    2250    2249
    2250    2250       0    2252    2253    2254    2253    2254    2254       0
    2256    2257    2258    2257    2258    2258       0    2260    2261    2262
    2261    2262    2262       0    2264    2265    2266    2265    2266    2266
       0    2268    2269    2270    2269    2270    2270       0    2272    2273
    2274    2273    2274    2274       0    2276    2277    2278    2277    2278
    2278       0    2280    2281    2282    2281    2282    2282       0    2284
    2285    2286    2285    2286    2286       0    2288    2289    2290    2289
    2290    2290       0    2292    2293    2294    2293    2294    2294       0
    2296    2297    2298    2297    2298    2298       0    2300    2301    2302
    2301    2302    2302       0    2304    2305    2306    2305    2306    2306
       0    2308    2309    2310    2309    2310    2310       0    2312    2313
    2314    2313    2314    2314       0    2316    2317    2318    2317    2318
    2318       0    2320    2321    2322    2321    2322    2322       0    2324
    2325    2326    2325    2326    2326       0    2328    2329    2330    2329
    2330    2330       0    2332    2333    2334    2333    2334    2334       0
    2336    2337    2338    2337    2338    2338       0    2340    2341    2342
    2341    2342    2342       0    2344    2345    2346    2345    2346    2346
       0    2348    2349    2350    2349    2350    2350       0    2352    2353
    2354    2353    2354    2354       0    2356    2357    2358    2357    2358
    2358       0    2360    2361    2362    2361    2362    2362       0    2364
    2365    2366    2365    2366    2366       0    2368    2369    2370    2369
    2370    2370       0    2372    2373    2374    2373    2374    2374       0
    2376    2377    2378    2377    2378    2378       0    2380    2381    2382
    2381    2382    2382       0    2384    2385    2386    2385    2386    2386
       0    2388    2389    2390    2389    2390    2390       0    2392    2393
    2394    2393    2394    2394       0    2396    2397    2398    2397    2398
    2398       0    2400    2401    2402    2401    2402    2402       0    2404
    2405    2406    2405    2406    2406       0    2408    2409    2410    2409
    2410    2410       0    2412    2413    2414    2413    2414    2414       0
    2416    2417    2418    2417    2418    2418       0    2420    2421    2422
    2421    2422    2422       0    2424    2425    2426    2425    2426    2426
       0    2428    2429    2430    2429    2430    2430       0    2432    2433
    2434    2433    2434    2434       0    2436    2437    2438    2437    2438
    2438       0    2440    2441    2442    2441    2442    2442       0    2444
    2445    2446    2445    2446    2446       0    2448    2449    2450    2449
    2450    2450       0    2452    2453    2454    2453    2454    2454       0
    2456    2457    2458    2457    2458    2458       0    2460    2461    2462
    2461    2462    2462       0    2464    2465    2466    2465    2466    2466
       0    2468    2469    2470    2469    2470    2470       0    2472    2473
    2474    2473    2474    2474       0    2476    2477    2478    2477    2478
    2478       0    2480    2481    2482    2481    2482    2482       0    2484
    2485    2486    2485    2486    2486       0    2488    2489    2490    2489
    2490    2490       0    2492    2493    2494    2493    2494    2494       0
    2496    2497    2498    2497    2498    2498       0    2500    2501    2502
    2501    2502    2502       0    2504    2505    2506    2505    2506    2506
       0    2508    2509    2510    2509    2510    2510       0    2512    2513
    2514    2513    2514    2514       0    2516    2517    2518    2517    2518
    2518       0    2520    2521    2522    2521    2522    2522       0    2524
    2525    2526    2525    2526    2526       0    2528    2529    2530    2529
    2530    2530       0    2532    2533    2534    2533    2534    2534       0
    2536    2537    2538    2537    2538    2538       0    2540    2541    2542
    2541    2542    2542       0    2544    2545    2546    2545    2546    2546
       0    2548    2549    2550    2549    2550    2550       0    2552    2553
    2554    2553    2554    2554       0    2556    2557    2558    2557    2558
    2558       0    2560    2561    2562    2561    2562    2562       0    2564
    2565    2566    2565    2566    2566       0    2568    2569    2570    2569
    2570    2570       0    2572    2573    2574    2573    2574    2574       0
    2576    2577    2578    2577    2578    2578       0    2580    2581    2582
    2581    2582    2582       0    2584    2585    2586    2585    2586    2586
       0    2588    2589    2590    2589    2590    2590       0    2592    2593
    2594    2593    2594    2594       0    2596    2597    2598    2597    2598
    2598       0    2600    2601    2602    2601    2602    2602       0    2604
    2605    2606    2605    2606    2606       0    2608    2609    2610    2609
    2610    2610       0    2612    2613    2614    2613    2614    2614       0
    2616    2617    2618    2617    2618    2618       0    2620    2621    2622
    2621    2622    2622       0    2624    2625    2626    2625    2626    2626
       0    2628    2629    2630    2629    2630    2630       0    2632    2633
    2634    2633    2634    2634       0    2636    2637    2638    2637    2638
    2638       0    2640    2641    2642    2641    2642    2642       0    2644
    2645    2646    2645    2646    2646       0    2648    2649    2650    2649
    2650    2650       0    2652    2653    2654    2653    2654    2654       0
    2656    2657    2658    2657    2658    2658       0    2660    2661    2662
    2661    2662    2662       0    2664    2665    2666    2665    2666    2666
       0    2668    2669    2670    2669    2670    2670       0    2672    2673
    2674    2673    2674    2674       0    2676    2677    2678    2677    2678
    2678       0    2680    2681    2682    2681    2682    2682       0    2684
    2685    2686    2685    2686    2686       0    2688    2689    2690    2689
    2690    2690       0    2692    2693    2694    2693    2694    2694       0
    2696    2697    2698    2697    2698    2698       0    2700    2701    2702
    2701    2702    2702       0    2704    2705    2706    2705    2706    2706
       0    2708    2709    2710    2709    2710    2710       0    2712    2713
    2714    2713    2714    2714       0    2716    2717    2718    2717    2718
    2718       0    2720    2721    2722    2721    2722    2722       0    2724
    2725    2726    2725    2726    2726       0    2728    2729    2730    2729
    2730    2730       0    2732    2733    2734    2733    2734    2734       0
    2736    2737    2738    2737    2738    2738       0    2740    2741    2742
    2741    2742    2742       0    2744    2745    2746    2745    2746    2746
       0    2748    2749    2750    2749    2750    2750       0    2752    2753
    2754    2753    2754    2754       0    2756    2757    2758    2757    2758
    2758       0    2760    2761    2762    2761    2762    2762       0    2764
    2765    2766    2765    2766    2766       0    2768    2769    2770    2769
    2770    2770       0    2772    2773    2774    2773    2774    2774       0
    2776    2777    2778    2777    2778    2778       0    2780    2781    2782
    2781    2782    2782       0    2784    2785    2786    2785    2786    2786
       0    2788    2789    2790    2789    2790    2790       0    2792    2793
    2794    2793    2794    2794       0    2796    2797    2798    2797    2798
    2798       0    2800    2801    2802    2801    2802    2802       0    2804
    2805    2806    2805    2806    2806       0    2808    2809    2810    2809
    2810    2810       0    2812    2813    2814    2813    2814    2814       0
    2816    2817    2818    2817    2818    2818       0    2820    2821    2822
    2821    2822    2822       0    2824    2825    2826    2825    2826    2826
       0    2828    2829    2830    2829    2830    2830       0    2832    2833
    2834    2833    2834    2834       0    2836    2837    2838    2837    2838
    2838       0    2840    2841    2842    2841    2842    2842       0    2844
    2845    2846    2845    2846    2846       0    2848    2849    2850    2849
    2850    2850       0    2852    2853    2854    2853    2854    2854       0
    2856    2857    2858    2857    2858    2858       0    2860    2861    2862
    2861    2862    2862       0    2864    2865    2866    2865    2866    2866
       0    2868    2869    2870    2869    2870    2870       0    2872    2873
    2874    2873    2874    2874       0    2876    2877    2878    2877    2878
    2878       0    2880    2881    2882    2881    2882    2882       0    2884
    2885    2886    2885    2886    2886       0    2888    2889    2890    2889
    2890    2890       0    2892    2893    2894    2893    2894    2894       0
    2896    2897    2898    2897    2898    2898       0    2900    2901    2902
    2901    2902    2902       0    2904    2905    2906    2905    2906    2906
       0    2908    2909    2910    2909    2910    2910       0    2912    2913
    2914    2913    2914    2914       0    2916    2917    2918    2917    2918
    2918       0    2920    2921    2922    2921    2922    2922       0    2924
    2925    2926    2925    2926    2926       0    2928    2929    2930    2929
    2930    2930       0    2932    2933    2934    2933    2934    2934       0
    2936    2937    2938    2937    2938    2938       0    2940    2941    2942
    2941    2942    2942       0    2944    2945    2946    2945    2946    2946
       0    2948    2949    2950    2949    2950    2950       0    2952    2953
    2954    2953    2954    2954       0    2956    2957    2958    2957    2958
    2958       0    2960    2961    2962    2961    2962    2962       0    2964
    2965    2966    2965    2966    2966       0    2968    2969    2970    2969
    2970    2970       0    2972    2973    2974    2973    2974    2974       0
    2976    2977    2978    2977    2978    2978       0    2980    2981    2982
    2981    2982    2982       0    2984    2985    2986    2985    2986    2986
       0    2988    2989    2990    2989    2990    2990       0    2992    2993
    2994    2993    2994    2994       0    2996    2997    2998    2997    2998
    2998       0    3000    3001    3002    3001    3002    3002       0    3004
    3005    3006    3005    3006    3006       0    3008    3009    3010    3009
    3010    3010       0    3012    3013    3014    3013    3014    3014       0
    3016    3017    3018    3017    3018    3018       0    3020    3021    3022
    3021    3022    3022       0    3024    3025    3026    3025    3026    3026
       0    3028    3029    3030    3029    3030    3030       0    3032    3033
    3034    3033    3034    3034       0    3036    3037    3038    3037    3038
    3038       0    3040    3041    3042    3041    3042    3042       0    3044
    3045    3046    3045    3046    3046       0    3048    3049    3050    3049
    3050    3050       0    3052    3053    3054    3053    3054    3054       0
    3056    3057    3058    3057    3058    3058       0    3060    3061    3062
    3061    3062    3062       0    3064    3065    3066    3065    3066    3066
       0    3068    3069    3070    3069    3070    3070       0    3072    3073
    3074    3073    3074    3074       0    3076    3077    3078    3077    3078
    3078       0    3080    3081    3082    3081    3082    3082       0    3084
    3085    3086    3085    3086    3086       0    3088    3089    3090    3089
    3090    3090       0    3092    3093    3094    3093    3094    3094       0
    3096    3097    3098    3097    3098    3098       0    3100    3101    3102
    3101    3102    3102       0    3104    3105    3106    3105    3106    3106
       0    3108    3109    3110    3109    3110    3110       0    3112    3113
    3114    3113    3114    3114       0    3116    3117    3118    3117    3118
    3118       0    3120    3121    3122    3121    3122    3122       0    3124
    3125    3126    3125    3126    3126       0    3128    3129    3130    3129
    3130    3130       0    3132    3133    3134    3133    3134    3134       0
    3136    3137    3138    3137    3138    3138       0    3140    3141    3142
    3141    3142    3142       0    3144    3145    3146    3145    3146    3146
       0    3148    3149    3150    3149    3150    3150       0    3152    3153
    3154    3153    3154    3154       0    3156    3157    3158    3157    3158
    3158       0    3160    3161    3162    3161    3162    3162       0    3164
    3165    3166    3165    3166    3166       0    3168    3169    3170    3169
    3170    3170       0    3172    3173    3174    3173    3174    3174       0
    3176    3177    3178    3177    3178    3178       0    3180    3181    3182
    3181    3182    3182       0    3184    3185    3186    3185    3186    3186
       0    3188    3189    3190    3189    3190    3190       0    3192    3193
    3194    3193    3194    3194       0    3196    3197    3198    3197    3198
    3198       0    3200    3201    3202    3201    3202    3202       0    3204
    3205    3206    3205    3206    3206       0    3208    3209    3210    3209
    3210    3210       0    3212    3213    3214    3213    3214    3214       0
    3216    3217    3218    3217    3218    3218       0    3220    3221    3222
    3221    3222    3222       0    3224    3225    3226    3225    3226    3226
       0    3228    3229    3230    3229    3230    3230       0    3232    3233
    3234    3233    3234    3234       0    3236    3237    3238    3237    3238
    3238       0    3240    3241    3242    3241    3242    3242       0    3244
    3245    3246    3245    3246    3246       0    3248    3249    3250    3249
    3250    3250       0    3252    3253    3254    3253    3254    3254       0
    3256    3257    3258    3257    3258    3258       0    3260    3261    3262
    3261    3262    3262       0    3264    3265    3266    3265    3266    3266
       0    3268    3269    3270    3269    3270    3270       0    3272    3273
    3274    3273    3274    3274       0    3276    3277    3278    3277    3278
    3278       0    3280    3281    3282    3281    3282    3282       0    3284
    3285    3286    3285    3286    3286       0    3288    3289    3290    3289
    3290    3290       0    3292    3293    3294    3293    3294    3294       0
    3296    3297    3298    3297    3298    3298       0    3300    3301    3302
    3301    3302    3302       0    3304    3305    3306    3305    3306    3306
       0    3308    3309    3310    3309    3310    3310       0    3312    3313
    3314    3313    3314    3314       0    3316    3317    3318    3317    3318
    3318       0    3320    3321    3322    3321    3322    3322       0    3324
    3325    3326    3325    3326    3326       0    3328    3329    3330    3329
    3330    3330       0    3332    3333    3334    3333    3334    3334       0
    3336    3337    3338    3337    3338    3338       0    3340    3341    3342
    3341    3342    3342       0    3344    3345    3346    3345    3346    3346
       0    3348    3349    3350    3349    3350    3350       0    3352    3353
    3354    3353    3354    3354       0    3356    3357    3358    3357    3358
    3358       0    3360    3361    3362    3361    3362    3362       0    3364
    3365    3366    3365    3366    3366       0    3368    3369    3370    3369
    3370    3370       0    3372    3373    3374    3373    3374    3374       0
    3376    3377    3378    3377    3378    3378       0    3380    3381    3382
    3381    3382    3382       0    3384    3385    3386    3385    3386    3386
       0    3388    3389    3390    3389    3390    3390       0    3392    3393
    3394    3393    3394    3394       0    3396    3397    3398    3397    3398
    3398       0    3400    3401    3402    3401    3402    3402       0    3404
    3405    3406    3405    3406    3406       0    3408    3409    3410    3409
    3410    3410       0    3412    3413    3414    3413    3414    3414       0
    3416    3417    3418    3417    3418    3418       0    3420    3421    3422
    3421    3422    3422       0    3424    3425    3426    3425    3426    3426
       0    3428    3429    3430    3429    3430    3430       0    3432    3433
    3434    3433    3434    3434       0    3436    3437    3438    3437    3438
    3438       0    3440    3441    3442    3441    3442    3442       0    3444
    3445    3446    3445    3446    3446       0    3448    3449    3450    3449
    3450    3450       0    3452    3453    3454    3453    3454    3454       0
    3456    3457    3458    3457    3458    3458       0    3460    3461    3462
    3461    3462    3462       0    3464    3465    3466    3465    3466    3466
       0    3468    3469    3470    3469    3470    3470       0    3472    3473
    3474    3473    3474    3474       0    3476    3477    3478    3477    3478
    3478       0    3480    3481    3482    3481    3482    3482       0    3484
    3485    3486    3485    3486    3486       0    3488    3489    3490    3489
    3490    3490       0    3492    3493    3494    3493    3494    3494       0
    3496    3497    3498    3497    3498    3498       0    3500    3501    3502
    3501    3502    3502       0    3504    3505    3506    3505    3506    3506
       0    3508    3509    3510    3509    3510    3510       0    3512    3513
    3514    3513    3514    3514       0    3516    3517    3518    3517    3518
    3518       0    3520    3521    3522    3521    3522    3522       0    3524
    3525    3526    3525    3526    3526       0    3528    3529    3530    3529
    3530    3530       0    3532    3533    3534    3533    3534    3534       0
    3536    3537    3538    3537    3538    3538       0    3540    3541    3542
    3541    3542    3542       0    3544    3545    3546    3545    3546    3546
       0    3548    3549    3550    3549    3550    3550       0    3552    3553
    3554    3553    3554    3554       0    3556    3557    3558    3557    3558
    3558       0    3560    3561    3562    3561    3562    3562       0    3564
    3565    3566    3565    3566    3566       0    3568    3569    3570    3569
    3570    3570       0    3572    3573    3574    3573    3574    3574       0
    3576    3577    3578    3577    3578    3578       0    3580    3581    3582
    3581    3582    3582       0    3584    3585    3586    3585    3586    3586
       0    3588    3589    3590    3589    3590    3590       0    3592    3593
    3594    3593    3594    3594       0    3596    3597    3598    3597    3598
    3598       0    3600    3601    3602    3601    3602    3602       0    3604
    3605    3606    3605    3606    3606       0    3608    3609    3610    3609
    3610    3610       0    3612    3613    3614    3613    3614    3614       0
    3616    3617    3618    3617    3618    3618       0    3620    3621    3622
    3621    3622    3622       0    3624    3625    3626    3625    3626    3626
       0    3628    3629    3630    3629    3630    3630       0    3632    3633
    3634    3633    3634    3634       0    3636    3637    3638    3637    3638
    3638       0    3640    3641    3642    3641    3642    3642       0    3644
    3645    3646    3645    3646    3646       0    3648    3649    3650    3649
    3650    3650       0    3652    3653    3654    3653    3654    3654       0
    3656    3657    3658    3657    3658    3658       0    3660    3661    3662
    3661    3662    3662       0    3664    3665    3666    3665    3666    3666
       0    3668    3669    3670    3669    3670    3670       0    3672    3673
    3674    3673    3674    3674       0    3676    3677    3678    3677    3678
    3678       0    3680    3681    3682    3681    3682    3682       0    3684
    3685    3686    3685    3686    3686       0    3688    3689    3690    3689
    3690    3690       0    3692    3693    3694    3693    3694    3694       0
    3696    3697    3698    3697    3698    3698       0    3700    3701    3702
    3701    3702    3702       0    3704    3705    3706    3705    3706    3706
       0    3708    3709    3710    3709    3710    3710       0    3712    3713
    3714    3713    3714    3714       0    3716    3717    3718    3717    3718
    3718       0    3720    3721    3722    3721    3722    3722       0    3724
    3725    3726    3725    3726    3726       0    3728    3729    3730    3729
    3730    3730       0    3732    3733    3734    3733    3734    3734       0
    3736    3737    3738    3737    3738    3738       0    3740    3741    3742
    3741    3742    3742       0    3744    3745    3746    3745    3746    3746
       0    3748    3749    3750    3749    3750    3750       0    3752    3753
    3754    3753    3754    3754       0    3756    3757    3758    3757    3758
    3758       0    3760    3761    3762    3761    3762    3762       0    3764
    3765    3766    3765    3766    3766       0    3768    3769    3770    3769
    3770    3770       0    3772    3773    3774    3773    3774    3774       0
    3776    3777    3778    3777    3778    3778       0    3780    3781    3782
    3781    3782    3782       0    3784    3785    3786    3785    3786    3786
       0    3788    3789    3790    3789    3790    3790       0    3792    3793
    3794    3793    3794    3794       0    3796    3797    3798    3797    3798
    3798       0    3800    3801    3802    3801    3802    3802       0    3804
    3805    3806    3805    3806    3806       0    3808    3809    3810    3809
    3810    3810       0    3812    3813    3814    3813    3814    3814       0
    3816    3817    3818    3817    3818    3818       0    3820    3821    3822
    3821    3822    3822       0    3824    3825    3826    3825    3826    3826
       0    3828    3829    3830    3829    3830    3830       0    3832    3833
    3834    3833    3834    3834       0    3836    3837    3838    3837    3838
    3838       0    3840    3841    3842    3841    3842    3842       0    3844
    3845    3846    3845    3846    3846       0    3848    3849    3850    3849
    3850    3850       0    3852    3853    3854    3853    3854    3854       0
    3856    3857    3858    3857    3858    3858       0    3860    3861    3862
    3861    3862    3862       0    3864    3865    3866    3865    3866    3866
       0    3868    3869    3870    3869    3870    3870       0    3872    3873
    3874    3873    3874    3874       0    3876    3877    3878    3877    3878
    3878       0    3880    3881    3882    3881    3882    3882       0    3884
    3885    3886    3885    3886    3886       0    3888    3889    3890    3889
    3890    3890       0    3892    3893    3894    3893    3894    3894       0
    3896    3897    3898    3897    3898    3898       0    3900    3901    3902
    3901    3902    3902       0    3904    3905    3906    3905    3906    3906
       0    3908    3909    3910    3909    3910    3910       0    3912    3913
    3914    3913    3914    3914       0    3916    3917    3918    3917    3918
    3918       0    3920    3921    3922    3921    3922    3922       0    3924
    3925    3926    3925    3926    3926       0    3928    3929    3930    3929
    3930    3930       0    3932    3933    3934    3933    3934    3934       0
    3936    3937    3938    3937    3938    3938       0    3940    3941    3942
    3941    3942    3942       0    3944    3945    3946    3945    3946    3946
       0    3948    3949    3950    3949    3950    3950       0    3952    3953
    3954    3953    3954    3954       0    3956    3957    3958    3957    3958
    3958       0    3960    3961    3962    3961    3962    3962       0    3964
    3965    3966    3965    3966    3966       0    3968    3969    3970    3969
    3970    3970       0    3972    3973    3974    3973    3974    3974       0
    3976    3977    3978    3977    3978    3978       0    3980    3981    3982
    3981    3982    3982       0    3984    3985    3986    3985    3986    3986
       0    3988    3989    3990    3989    3990    3990       0    3992    3993
    3994    3993    3994    3994       0    3996    3997    3998    3997    3998
    3998       0    4000    4001    4002    4001    4002    4002       0    4004
    4005    4006    4005    4006    4006       0    4008    4009    4010    4009
    4010    4010       0    4012    4013    4014    4013    4014    4014       0
    4016    4017    4018    4017    4018    4018       0    4020    4021    4022
    4021    4022    4022       0    4024    4025    4026    4025    4026    4026
       0    4028    4029    4030    4029    4030    4030       0    4032    4033
    4034    4033    4034    4034       0    4036    4037    4038    4037    4038
    4038       0    4040    4041    4042    4041    4042    4042       0    4044
    4045    4046    4045    4046    4046       0    4048    4049    4050    4049
    4050    4050       0    4052    4053    4054    4053    4054    4054       0
    4056    4057    4058    4057    4058    4058       0    4060    4061    4062
    4061    4062    4062       0    4064    4065    4066    4065    4066    4066
       0    4068    4069    4070    4069    4070    4070       0    4072    4073
    4074    4073    4074    4074       0    4076    4077    4078    4077    4078
    4078       0    4080    4081    4082    4081    4082    4082       0    4084
    4085    4086    4085    4086    4086       0    4088    4089    4090    4089
    4090    4090       0    4092    4093    4094    4093    4094    4094       0
    4096    4097    4098    4097    4098    4098       0    4100    4101    4102
    4101    4102    4102       0    4104    4105    4106    4105    4106    4106
       0    4108    4109    4110    4109    4110    4110       0    4112    4113
    4114    4113    4114    4114       0    4116    4117    4118    4117    4118
    4118       0    4120    4121    4122    4121    4122    4122       0    4124
    4125    4126    4125    4126    4126       0    4128    4129    4130    4129
    4130    4130       0    4132    4133    4134    4133    4134    4134       0
    4136    4137    4138    4137    4138    4138       0    4140    4141    4142
    4141    4142    4142       0    4144    4145    4146    4145    4146    4146
       0    4148    4149    4150    4149    4150    4150       0    4152    4153
    4154    4153    4154    4154       0    4156    4157    4158    4157    4158
    4158       0    4160    4161    4162    4161    4162    4162       0    4164
    4165    4166    4165    4166    4166       0    4168    4169    4170    4169
    4170    4170       0    4172    4173    4174    4173    4174    4174       0
    4176    4177    4178    4177    4178    4178       0    4180    4181    4182
    4181    4182    4182       0    4184    4185    4186    4185    4186    4186
       0    4188    4189    4190    4189    4190    4190       0    4192    4193
    4194    4193    4194    4194       0    4196    4197    4198    4197    4198
    4198       0    4200    4201    4202    4201    4202    4202       0    4204
    4205    4206    4205    4206    4206       0    4208    4209    4210    4209
    4210    4210       0    4212    4213    4214    4213    4214    4214       0
    4216    4217    4218    4217    4218    4218       0    4220    4221    4222
    4221    4222    4222       0    4224    4225    4226    4225    4226    4226
       0    4228    4229    4230    4229    4230    4230       0    4232    4233
    4234    4233    4234    4234       0    4236    4237    4238    4237    4238
    4238       0    4240    4241    4242    4241    4242    4242       0    4244
    4245    4246    4245    4246    4246       0    4248    4249    4250    4249
    4250    4250       0    4252    4253    4254    4253    4254    4254       0
    4256    4257    4258    4257    4258    4258       0    4260    4261    4262
    4261    4262    4262       0    4264    4265    4266    4265    4266    4266
       0    4268    4269    4270    4269    4270    4270       0    4272    4273
    4274    4273    4274    4274       0    4276    4277    4278    4277    4278
    4278       0    4280    4281    4282    4281    4282    4282       0    4284
    4285    4286    4285    4286    4286       0    4288    4289    4290    4289
    4290    4290       0    4292    4293    4294    4293    4294    4294       0
    4296    4297    4298    4297    4298    4298       0    4300    4301    4302
    4301    4302    4302       0    4304    4305    4306    4305    4306    4306
       0    4308    4309    4310    4309    4310    4310       0    4312    4313
    4314    4313    4314    4314       0    4316    4317    4318    4317    4318
    4318       0    4320    4321    4322    4321    4322    4322       0    4324
    4325    4326    4325    4326    4326       0    4328    4329    4330    4329
    4330    4330       0    4332    4333    4334    4333    4334    4334       0
    4336    4337    4338    4337    4338    4338       0    4340    4341    4342
    4341    4342    4342       0    4344    4345    4346    4345    4346    4346
       0    4348    4349    4350    4349    4350    4350       0    4352    4353
    4354    4353    4354    4354       0    4356    4357    4358    4357    4358
    4358       0    4360    4361    4362    4361    4362    4362       0    4364
    4365    4366    4365    4366    4366       0    4368    4369    4370    4369
    4370    4370       0    4372    4373    4374    4373    4374    4374       0
    4376    4377    4378    4377    4378    4378       0    4380    4381    4382
    4381    4382    4382       0    4384    4385    4386    4385    4386    4386
       0    4388    4389    4390    4389    4390    4390       0    4392    4393
    4394    4393    4394    4394       0    4396    4397    4398    4397    4398
    4398       0    4400    4401    4402    4401    4402    4402       0    4404
    4405    4406    4405    4406    4406       0    4408    4409    4410    4409
    4410    4410       0    4412    4413    4414    4413    4414    4414       0
    4416    4417    4418    4417    4418    4418       0    4420    4421    4422
    4421    4422    4422       0    4424    4425    4426    4425    4426    4426
       0    4428    4429    4430    4429    4430    4430       0    4432    4433
    4434    4433    4434    4434       0    4436    4437    4438    4437    4438
    4438       0    4440    4441    4442    4441    4442    4442       0    4444
    4445    4446    4445    4446    4446       0    4448    4449    4450    4449
    4450    4450       0    4452    4453    4454    4453    4454    4454       0
    4456    4457    4458    4457    4458    4458       0    4460    4461    4462
    4461    4462    4462       0    4464    4465    4466    4465    4466    4466
       0    4468    4469    4470    4469    4470    4470       0    4472    4473
    4474    4473    4474    4474       0    4476    4477    4478    4477    4478
    4478       0    4480    4481    4482    4481    4482    4482       0    4484
    4485    4486    4485    4486    4486       0    4488    4489    4490    4489
    4490    4490       0    4492    4493    4494    4493    4494    4494       0
    4496    4497    4498    4497    4498    4498       0    4500    4501    4502
    4501    4502    4502       0    4504    4505    4506    4505    4506    4506
       0    4508    4509    4510    4509    4510    4510       0    4512    4513
    4514    4513    4514    4514       0    4516    4517    4518    4517    4518
    4518       0    4520    4521    4522    4521    4522    4522       0    4524
    4525    4526    4525    4526    4526       0    4528    4529    4530    4529
    4530    4530       0    4532    4533    4534    4533    4534    4534       0
    4536    4537    4538    4537    4538    4538       0    4540    4541    4542
    4541    4542    4542       0    4544    4545    4546    4545    4546    4546
       0    4548    4549    4550    4549    4550    4550       0    4552    4553
    4554    4553    4554    4554       0    4556    4557    4558    4557    4558
    4558       0    4560    4561    4562    4561    4562    4562       0    4564
    4565    4566    4565    4566    4566       0    4568    4569    4570    4569
    4570    4570       0    4572    4573    4574    4573    4574    4574       0
    4576    4577    4578    4577    4578    4578       0    4580    4581    4582
    4581    4582    4582       0    4584    4585    4586    4585    4586    4586
       0    4588    4589    4590    4589    4590    4590       0    4592    4593
    4594    4593    4594    4594       0    4596    4597    4598    4597    4598
    4598       0    4600    4601    4602    4601    4602    4602       0    4604
    4605    4606    4605    4606    4606       0    4608    4609    4610    4609
    4610    4610       0    4612    4613    4614    4613    4614    4614       0
    4616    4617    4618    4617    4618    4618       0    4620    4621    4622
    4621    4622    4622       0    4624    4625    4626    4625    4626    4626
       0    4628    4629    4630    4629    4630    4630       0    4632    4633
    4634    4633    4634    4634       0    4636    4637    4638    4637    4638
    4638       0    4640    4641    4642    4641    4642    4642       0    4644
    4645    4646    4645    4646    4646       0    4648    4649    4650    4649
    4650    4650       0    4652    4653    4654    4653    4654    4654       0
    4656    4657    4658    4657    4658    4658       0    4660    4661    4662
    4661    4662    4662       0    4664    4665    4666    4665    4666    4666
       0    4668    4669    4670    4669    4670    4670       0    4672    4673
    4674    4673    4674    4674       0    4676    4677    4678    4677    4678
    4678       0    4680    4681    4682    4681    4682    4682       0    4684
    4685    4686    4685    4686    4686       0    4688    4689    4690    4689
    4690    4690       0    4692    4693    4694    4693    4694    4694       0
    4696    4697    4698    4697    4698    4698       0    4700    4701    4702
    4701    4702    4702       0    4704    4705    4706    4705    4706    4706
       0    4708    4709    4710    4709    4710    4710       0    4712    4713
    4714    4713    4714    4714       0    4716    4717    4718    4717    4718
    4718       0    4720    4721    4722    4721    4722    4722       0    4724
    4725    4726    4725    4726    4726       0    4728    4729    4730    4729
    4730    4730       0    4732    4733    4734    4733    4734    4734       0
    4736    4737    4738    4737    4738    4738       0    4740    4741    4742
    4741    4742    4742       0    4744    4745    4746    4745    4746    4746
       0    4748    4749    4750    4749    4750    4750       0    4752    4753
    4754    4753    4754    4754       0    4756    4757    4758    4757    4758
    4758       0    4760    4761    4762    4761    4762    4762       0    4764
    4765    4766    4765    4766    4766       0    4768    4769    4770    4769
    4770    4770       0    4772    4773    4774    4773    4774    4774       0
    4776    4777    4778    4777    4778    4778       0    4780    4781    4782
    4781    4782    4782       0    4784    4785    4786    4785    4786    4786
       0    4788    4789    4790    4789    4790    4790       0    4792    4793
    4794    4793    4794    4794       0    4796    4797    4798    4797    4798
    4798       0    4800    4801    4802    4801    4802    4802       0    4804
    4805    4806    4805    4806    4806       0    4808    4809    4810    4809
    4810    4810       0    4812    4813    4814    4813    4814    4814       0
    4816    4817    4818    4817    4818    4818       0    4820    4821    4822
    4821    4822    4822       0    4824    4825    4826    4825    4826    4826
       0    4828    4829    4830    4829    4830    4830       0    4832    4833
    4834    4833    4834    4834       0    4836    4837    4838    4837    4838
    4838       0    4840    4841    4842    4841    4842    4842       0    4844
    4845    4846    4845    4846    4846       0    4848    4849    4850    4849
    4850    4850       0    4852    4853    4854    4853    4854    4854       0
    4856    4857    4858    4857    4858    4858       0    4860    4861    4862
    4861    4862    4862       0    4864    4865    4866    4865    4866    4866
       0    4868    4869    4870    4869    4870    4870       0    4872    4873
    4874    4873    4874    4874       0    4876    4877    4878    4877    4878
    4878       0    4880    4881    4882    4881    4882    4882       0    4884
    4885    4886    4885    4886    4886       0    4888    4889    4890    4889
    4890    4890       0    4892    4893    4894    4893    4894    4894       0
    4896    4897    4898    4897    4898    4898       0    4900    4901    4902
    4901    4902    4902       0    4904    4905    4906    4905    4906    4906
       0    4908    4909    4910    4909    4910    4910       0    4912    4913
    4914    4913    4914    4914       0    4916    4917    4918    4917    4918
    4918       0    4920    4921    4922    4921    4922    4922       0    4924
    4925    4926    4925    4926    4926       0    4928    4929    4930    4929
    4930    4930       0    4932    4933    4934    4933    4934    4934       0
    4936    4937    4938    4937    4938    4938       0    4940    4941    4942
    4941    4942    4942       0    4944    4945    4946    4945    4946    4946
       0    4948    4949    4950    4949    4950    4950       0    4952    4953
    4954    4953    4954    4954       0    4956    4957    4958    4957    4958
    4958       0    4960    4961    4962    4961    4962    4962       0    4964
    4965    4966    4965    4966    4966       0    4968    4969    4970    4969
    4970    4970       0    4972    4973    4974    4973    4974    4974       0
    4976    4977    4978    4977    4978    4978       0    4980    4981    4982
    4981    4982    4982       0    4984    4985    4986    4985    4986    4986
       0    4988    4989    4990    4989    4990    4990       0    4992    4993
    4994    4993    4994    4994       0    4996    4997    4998    4997    4998
    4998       0    5000    5001    5002    5001    5002    5002       0    5004
    5005    5006    5005    5006    5006       0    5008    5009    5010    5009
    5010    5010       0    5012    5013    5014    5013    5014    5014       0
    5016    5017    5018    5017    5018    5018       0    5020    5021    5022
    5021    5022    5022       0    5024    5025    5026    5025    5026    5026
       0    5028    5029    5030    5029    5030    5030       0    5032    5033
    5034    5033    5034    5034       0    5036    5037    5038    5037    5038
    5038       0    5040    5041    5042    5041    5042    5042       0    5044
    5045    5046    5045    5046    5046       0    5048    5049    5050    5049
    5050    5050       0    5052    5053    5054    5053    5054    5054       0
    5056    5057    5058    5057    5058    5058       0    5060    5061    5062
    5061    5062    5062       0    5064    5065    5066    5065    5066    5066
       0    5068    5069    5070    5069    5070    5070       0    5072    5073
    5074    5073    5074    5074       0    5076    5077    5078    5077    5078
    5078       0    5080    5081    5082    5081    5082    5082       0    5084
    5085    5086    5085    5086    5086       0    5088    5089    5090    5089
    5090    5090       0    5092    5093    5094    5093    5094    5094       0
    5096    5097    5098    5097    5098    5098       0    5100    5101    5102
    5101    5102    5102       0    5104    5105    5106    5105    5106    5106
       0    5108    5109    5110    5109    5110    5110       0    5112    5113
    5114    5113    5114    5114       0    5116    5117    5118    5117    5118
    5118       0    5120    5121    5122    5121    5122    5122       0    5124
    5125    5126    5125    5126    5126       0    5128    5129    5130    5129
    5130    5130       0    5132    5133    5134    5133    5134    5134       0
    5136    5137    5138    5137    5138    5138       0    5140    5141    5142
    5141    5142    5142       0    5144    5145    5146    5145    5146    5146
       0    5148    5149    5150    5149    5150    5150       0    5152    5153
    5154    5153    5154    5154       0    5156    5157    5158    5157    5158
    5158       0    5160    5161    5162    5161    5162    5162       0    5164
    5165    5166    5165    5166    5166       0    5168    5169    5170    5169
    5170    5170       0    5172    5173    5174    5173    5174    5174       0
    5176    5177    5178    5177    5178    5178       0    5180    5181    5182
    5181    5182    5182       0    5184    5185    5186    5185    5186    5186
       0    5188    5189    5190    5189    5190    5190       0    5192    5193
    5194    5193    5194    5194       0    5196    5197    5198    5197    5198
    5198       0    5200    5201    5202    5201    5202    5202       0    5204
    5205    5206    5205    5206    5206       0    5208    5209    5210    5209
    5210    5210       0    5212    5213    5214    5213    5214    5214       0
    5216    5217    5218    5217    5218    5218       0    5220    5221    5222
    5221    5222    5222       0    5224    5225    5226    5225    5226    5226
       0    5228    5229    5230    5229    5230    5230       0    5232    5233
    5234    5233    5234    5234       0    5236    5237    5238    5237    5238
    5238       0    5240    5241    5242    5241    5242    5242       0    5244
    5245    5246    5245    5246    5246       0    5248    5249    5250    5249
    5250    5250       0    5252    5253    5254    5253    5254    5254       0
    5256    5257    5258    5257    5258    5258       0    5260    5261    5262
    5261    5262    5262       0    5264    5265    5266    5265    5266    5266
       0    5268    5269    5270    5269    5270    5270       0    5272    5273
    5274    5273    5274    5274       0    5276    5277    5278    5277    5278
    5278       0    5280    5281    5282    5281    5282    5282       0    5284
    5285    5286    5285    5286    5286       0    5288    5289    5290    5289
    5290    5290       0    5292    5293    5294    5293    5294    5294       0
    5296    5297    5298    5297    5298    5298       0    5300    5301    5302
    5301    5302    5302       0    5304    5305    5306    5305    5306    5306
       0    5308    5309    5310    5309    5310    5310       0    5312    5313
    5314    5313    5314    5314       0    5316    5317    5318    5317    5318
    5318       0    5320    5321    5322    5321    5322    5322       0    5324
    5325    5326    5325    5326    5326       0    5328    5329    5330    5329
    5330    5330       0    5332    5333    5334    5333    5334    5334       0
    5336    5337    5338    5337    5338    5338       0    5340    5341    5342
    5341    5342    5342       0    5344    5345    5346    5345    5346    5346
       0    5348    5349    5350    5349    5350    5350       0    5352    5353
    5354    5353    5354    5354       0    5356    5357    5358    5357    5358
    5358       0    5360    5361    5362    5361    5362    5362       0    5364
    5365    5366    5365    5366    5366       0    5368    5369    5370    5369
    5370    5370       0    5372    5373    5374    5373    5374    5374       0
    5376    5377    5378    5377    5378    5378       0    5380    5381    5382
    5381    5382    5382       0    5384    5385    5386    5385    5386    5386
       0    5388    5389    5390    5389    5390    5390       0    5392    5393
    5394    5393    5394    5394       0    5396    5397    5398    5397    5398
    5398       0    5400    5401    5402    5401    5402    5402       0    5404
    5405    5406    5405    5406    5406       0    5408    5409    5410    5409
    5410    5410       0    5412    5413    5414    5413    5414    5414       0
    5416    5417    5418    5417    5418    5418       0    5420    5421    5422
    5421    5422    5422       0    5424    5425    5426    5425    5426    5426
       0    5428    5429    5430    5429    5430    5430       0    5432    5433
    5434    5433    5434    5434       0    5436    5437    5438    5437    5438
    5438       0    5440    5441    5442    5441    5442    5442       0    5444
    5445    5446    5445    5446    5446       0    5448    5449    5450    5449
    5450    5450       0    5452    5453    5454    5453    5454    5454       0
    5456    5457    5458    5457    5458    5458       0    5460    5461    5462
    5461    5462    5462       0    5464    5465    5466    5465    5466    5466
       0    5468    5469    5470    5469    5470    5470       0    5472    5473
    5474    5473    5474    5474       0    5476    5477    5478    5477    5478
    5478       0    5480    5481    5482    5481    5482    5482       0    5484
    5485    5486    5485    5486    5486       0    5488    5489    5490    5489
    5490    5490       0    5492    5493    5494    5493    5494    5494       0
    5496    5497    5498    5497    5498    5498       0    5500    5501    5502
    5501    5502    5502       0    5504    5505    5506    5505    5506    5506
       0    5508    5509    5510    5509    5510    5510       0    5512    5513
    5514    5513    5514    5514       0    5516    5517    5518    5517    5518
    5518       0    5520    5521    5522    5521    5522    5522       0    5524
    5525    5526    5525    5526    5526       0    5528    5529    5530    5529
    5530    5530       0    5532    5533    5534    5533    5534    5534       0
    5536    5537    5538    5537    5538    5538       0    5540    5541    5542
    5541    5542    5542       0    5544    5545    5546    5545    5546    5546
       0    5548    5549    5550    5549    5550    5550       0    5552    5553
    5554    5553    5554    5554       0    5556    5557    5558    5557    5558
    5558       0    5560    5561    5562    5561    5562    5562       0    5564
    5565    5566    5565    5566    5566       0    5568    5569    5570    5569
    5570    5570       0    5572    5573    5574    5573    5574    5574       0
    5576    5577    5578    5577    5578    5578       0    5580    5581    5582
    5581    5582    5582       0    5584    5585    5586    5585    5586    5586
       0    5588    5589    5590    5589    5590    5590       0    5592    5593
    5594    5593    5594    5594       0    5596    5597    5598    5597    5598
    5598       0    5600    5601    5602    5601    5602    5602       0    5604
    5605    5606    5605    5606    5606       0    5608    5609    5610    5609
    5610    5610       0    5612    5613    5614    5613    5614    5614       0
    5616    5617    5618    5617    5618    5618       0    5620    5621    5622
    5621    5622    5622       0    5624    5625    5626    5625    5626    5626
       0    5628    5629    5630    5629    5630    5630       0    5632    5633
    5634    5633    5634    5634       0    5636    5637    5638    5637    5638
    5638       0    5640    5641    5642    5641    5642    5642       0    5644
    5645    5646    5645    5646    5646       0    5648    5649    5650    5649
    5650    5650       0    5652    5653    5654    5653    5654    5654       0
    5656    5657    5658    5657    5658    5658       0    5660    5661    5662
    5661    5662    5662       0    5664    5665    5666    5665    5666    5666
       0    5668    5669    5670    5669    5670    5670       0    5672    5673
    5674    5673    5674    5674       0    5676    5677    5678    5677    5678
    5678       0    5680    5681    5682    5681    5682    5682       0    5684
    5685    5686    5685    5686    5686       0    5688    5689    5690    5689
    5690    5690       0    5692    5693    5694    5693    5694    5694       0
    5696    5697    5698    5697    5698    5698       0    5700    5701    5702
    5701    5702    5702       0    5704    5705    5706    5705    5706    5706
       0    5708    5709    5710    5709    5710    5710       0    5712    5713
    5714    5713    5714    5714       0    5716    5717    5718    5717    5718
    5718       0    5720    5721    5722    5721    5722    5722       0    5724
    5725    5726    5725    5726    5726       0    5728    5729    5730    5729
    5730    5730       0    5732    5733    5734    5733    5734    5734       0
    5736    5737    5738    5737    5738    5738       0    5740    5741    5742
    5741    5742    5742       0    5744    5745    5746    5745    5746    5746
       0    5748    5749    5750    5749    5750    5750       0    5752    5753
    5754    5753    5754    5754       0    5756    5757    5758    5757    5758
    5758       0    5760    5761    5762    5761    5762    5762       0    5764
    5765    5766    5765    5766    5766       0    5768    5769    5770    5769
    5770    5770       0    5772    5773    5774    5773    5774    5774       0
    5776    5777    5778    5777    5778    5778       0    5780    5781    5782
    5781    5782    5782       0    5784    5785    5786    5785    5786    5786
       0    5788    5789    5790    5789    5790    5790       0    5792    5793
    5794    5793    5794    5794       0    5796    5797    5798    5797    5798
    5798       0    5800    5801    5802    5801    5802    5802       0    5804
    5805    5806    5805    5806    5806       0    5808    5809    5810    5809
    5810    5810       0    5812    5813    5814    5813    5814    5814       0
    5816    5817    5818    5817    5818    5818       0    5820    5821    5822
    5821    5822    5822       0    5824    5825    5826    5825    5826    5826
       0    5828    5829    5830    5829    5830    5830       0    5832    5833
    5834    5833    5834    5834       0    5836    5837    5838    5837    5838
    5838       0    5840    5841    5842    5841    5842    5842       0    5844
    5845    5846    5845    5846    5846       0    5848    5849    5850    5849
    5850    5850       0    5852    5853    5854    5853    5854    5854       0
    5856    5857    5858    5857    5858    5858       0    5860    5861    5862
    5861    5862    5862       0    5864    5865    5866    5865    5866    5866
       0    5868    5869    5870    5869    5870    5870       0    5872    5873
    5874    5873    5874    5874       0    5876    5877    5878    5877    5878
    5878       0    5880    5881    5882    5881    5882    5882       0    5884
    5885    5886    5885    5886    5886       0    5888    5889    5890    5889
    5890    5890       0    5892    5893    5894    5893    5894    5894       0
    5896    5897    5898    5897    5898    5898       0    5900    5901    5902
    5901    5902    5902       0    5904    5905    5906    5905    5906    5906
       0    5908    5909    5910    5909    5910    5910       0    5912    5913
    5914    5913    5914    5914       0    5916    5917    5918    5917    5918
    5918       0    5920    5921    5922    5921    5922    5922       0    5924
    5925    5926    5925    5926    5926       0    5928    5929    5930    5929
    5930    5930       0    5932    5933    5934    5933    5934    5934       0
    5936    5937    5938    5937    5938    5938       0    5940    5941    5942
    5941    5942    5942       0    5944    5945    5946    5945    5946    5946
       0    5948    5949    5950    5949    5950    5950       0    5952    5953
    5954    5953    5954    5954       0    5956    5957    5958    5957    5958
    5958       0    5960    5961    5962    5961    5962    5962       0    5964
    5965    5966    5965    5966    5966       0    5968    5969    5970    5969
    5970    5970       0    5972    5973    5974    5973    5974    5974       0
    5976    5977    5978    5977    5978    5978       0    5980    5981    5982
    5981    5982    5982       0    5984    5985    5986    5985    5986    5986
       0    5988    5989    5990    5989    5990    5990       0    5992    5993
    5994    5993    5994    5994       0    5996    5997    5998    5997    5998
    5998       0    6000    6001    6002    6001    6002    6002       0    6004
    6005    6006    6005    6006    6006       0    6008    6009    6010    6009
    6010    6010       0    6012    6013    6014    6013    6014    6014       0
    6016    6017    6018    6017    6018    6018       0    6020    6021    6022
    6021    6022    6022       0    6024    6025    6026    6025    6026    6026
       0    6028    6029    6030    6029    6030    6030       0    6032    6033
    6034    6033    6034    6034       0    6036    6037    6038    6037    6038
    6038       0    6040    6041    6042    6041    6042    6042       0    6044
    6045    6046    6045    6046    6046       0    6048    6049    6050    6049
    6050    6050       0    6052    6053    6054    6053    6054    6054       0
    6056    6057    6058    6057    6058    6058       0    6060    6061    6062
    6061    6062    6062       0    6064    6065    6066    6065    6066    6066
       0    6068    6069    6070    6069    6070    6070       0    6072    6073
    6074    6073    6074    6074       0    6076    6077    6078    6077    6078
    6078       0    6080    6081    6082    6081    6082    6082       0    6084
    6085    6086    6085    6086    6086       0    6088    6089    6090    6089
    6090    6090       0    6092    6093    6094    6093    6094    6094       0
    6096    6097    6098    6097    6098    6098       0    6100    6101    6102
    6101    6102    6102       0    6104    6105    6106    6105    6106    6106
       0    6108    6109    6110    6109    6110    6110       0    6112    6113
    6114    6113    6114    6114       0    6116    6117    6118    6117    6118
    6118       0    6120    6121    6122    6121    6122    6122       0    6124
    6125    6126    6125    6126    6126       0    6128    6129    6130    6129
    6130    6130       0    6132    6133    6134    6133    6134    6134       0
    6136    6137    6138    6137    6138    6138       0    6140    6141    6142
    6141    6142    6142       0    6144    6145    6146    6145    6146    6146
       0    6148    6149    6150    6149    6150    6150       0    6152    6153
    6154    6153    6154    6154       0    6156    6157    6158    6157    6158
    6158       0    6160    6161    6162    6161    6162    6162       0    6164
    6165    6166    6165    6166    6166       0    6168    6169    6170    6169
    6170    6170       0    6172    6173    6174    6173    6174    6174       0
    6176    6177    6178    6177    6178    6178       0    6180    6181    6182
    6181    6182    6182       0    6184    6185    6186    6185    6186    6186
       0    6188    6189    6190    6189    6190    6190       0    6192    6193
    6194    6193    6194    6194       0    6196    6197    6198    6197    6198
    6198       0    6200    6201    6202    6201    6202    6202       0    6204
    6205    6206    6205    6206    6206       0    6208    6209    6210    6209
    6210    6210       0    6212    6213    6214    6213    6214    6214       0
    6216    6217    6218    6217    6218    6218       0    6220    6221    6222
    6221    6222    6222       0    6224    6225    6226    6225    6226    6226
       0    6228    6229    6230    6229    6230    6230       0    6232    6233
    6234    6233    6234    6234       0    6236    6237    6238    6237    6238
    6238       0    6240    6241    6242    6241    6242    6242       0    6244
    6245    6246    6245    6246    6246       0    6248    6249    6250    6249
    6250    6250       0    6252    6253    6254    6253    6254    6254       0
    6256    6257    6258    6257    6258    6258       0    6260    6261    6262
    6261    6262    6262       0    6264    6265    6266    6265    6266    6266
       0    6268    6269    6270    6269    6270    6270       0    6272    6273
    6274    6273    6274    6274       0    6276    6277    6278    6277    6278
    6278       0    6280    6281    6282    6281    6282    6282       0    6284
    6285    6286    6285    6286    6286       0    6288    6289    6290    6289
    6290    6290       0    6292    6293    6294    6293    6294    6294       0
    6296    6297    6298    6297    6298    6298       0    6300    6301    6302
    6301    6302    6302       0    6304    6305    6306    6305    6306    6306
       0    6308    6309    6310    6309    6310    6310       0    6312    6313
    6314    6313    6314    6314       0    6316    6317    6318    6317    6318
    6318       0    6320    6321    6322    6321    6322    6322       0    6324
    6325    6326    6325    6326    6326       0    6328    6329    6330    6329
    6330    6330       0    6332    6333    6334    6333    6334    6334       0
    6336    6337    6338    6337    6338    6338       0    6340    6341    6342
    6341    6342    6342       0    6344    6345    6346    6345    6346    6346
       0    6348    6349    6350    6349    6350    6350       0    6352    6353
    6354    6353    6354    6354       0    6356    6357    6358    6357    6358
    6358       0    6360    6361    6362    6361    6362    6362       0    6364
    6365    6366    6365    6366    6366       0    6368    6369    6370    6369
    6370    6370       0    6372    6373    6374    6373    6374    6374       0
    6376    6377    6378    6377    6378    6378       0    6380    6381    6382
    6381    6382    6382       0    6384    6385    6386    6385    6386    6386
       0    6388    6389    6390    6389    6390    6390       0    6392    6393
    6394    6393    6394    6394       0    6396    6397    6398    6397    6398
    6398       0    6400    6401    6402    6401    6402    6402       0    6404
    6405    6406    6405    6406    6406       0    6408    6409    6410    6409
    6410    6410       0    6412    6413    6414    6413    6414    6414       0
    6416    6417    6418    6417    6418    6418       0    6420    6421    6422
    6421    6422    6422       0    6424    6425    6426    6425    6426    6426
       0    6428    6429    6430    6429    6430    6430       0    6432    6433
    6434    6433    6434    6434       0    6436    6437    6438    6437    6438
    6438       0    6440    6441    6442    6441    6442    6442       0    6444
    6445    6446    6445    6446    6446       0    6448    6449    6450    6449
    6450    6450       0    6452    6453    6454    6453    6454    6454       0
    6456    6457    6458    6457    6458    6458       0    6460    6461    6462
    6461    6462    6462       0    6464    6465    6466    6465    6466    6466
       0    6468    6469    6470    6469    6470    6470       0    6472    6473
    6474    6473    6474    6474       0    6476    6477    6478    6477    6478
    6478       0    6480    6481    6482    6481    6482    6482       0    6484
    6485    6486    6485    6486    6486       0    6488    6489    6490    6489
    6490    6490       0    6492    6493    6494    6493    6494    6494       0
    6496    6497    6498    6497    6498    6498       0    6500    6501    6502
    6501    6502    6502       0    6504    6505    6506    6505    6506    6506
       0    6508    6509    6510    6509    6510    6510       0    6512    6513
    6514    6513    6514    6514       0    6516    6517    6518    6517    6518
    6518       0    6520    6521    6522    6521    6522    6522       0    6524
    6525    6526    6525    6526    6526       0    6528    6529    6530    6529
    6530    6530       0    6532    6533    6534    6533    6534    6534       0
    6536    6537    6538    6537    6538    6538       0    6540    6541    6542
    6541    6542    6542       0    6544    6545    6546    6545    6546    6546
       0    6548    6549    6550    6549    6550    6550       0    6552    6553
    6554    6553    6554    6554       0    6556    6557    6558    6557    6558
    6558       0    6560    6561    6562    6561    6562    6562       0    6564
    6565    6566    6565    6566    6566       0    6568    6569    6570    6569
    6570    6570       0    6572    6573    6574    6573    6574    6574       0
    6576    6577    6578    6577    6578    6578       0    6580    6581    6582
    6581    6582    6582       0    6584    6585    6586    6585    6586    6586
       0    6588    6589    6590    6589    6590    6590       0    6592    6593
    6594    6593    6594    6594       0    6596    6597    6598    6597    6598
    6598       0    6600    6601    6602    6601    6602    6602       0    6604
    6605    6606    6605    6606    6606       0    6608    6609    6610    6609
    6610    6610       0    6612    6613    6614    6613    6614    6614       0
    6616    6617    6618    6617    6618    6618       0    6620    6621    6622
    6621    6622    6622       0    6624    6625    6626    6625    6626    6626
       0    6628    6629    6630    6629    6630    6630       0    6632    6633
    6634    6633    6634    6634       0    6636    6637    6638    6637    6638
    6638       0    6640    6641    6642    6641    6642    6642       0    6644
    6645    6646    6645    6646    6646       0    6648    6649    6650    6649
    6650    6650       0    6652    6653    6654    6653    6654    6654       0
    6656    6657    6658    6657    6658    6658       0    6660    6661    6662
    6661    6662    6662       0    6664    6665    6666    6665    6666    6666
       0    6668    6669    6670    6669    6670    6670       0    6672    6673
    6674    6673    6674    6674       0    6676    6677    6678    6677    6678
    6678       0    6680    6681    6682    6681    6682    6682       0    6684
    6685    6686    6685    6686    6686       0    6688    6689    6690    6689
    6690    6690       0    6692    6693    6694    6693    6694    6694       0
    6696    6697    6698    6697    6698    6698       0    6700    6701    6702
    6701    6702    6702       0    6704    6705    6706    6705    6706    6706
       0    6708    6709    6710    6709    6710    6710       0    6712    6713
    6714    6713    6714    6714       0    6716    6717    6718    6717    6718
    6718       0    6720    6721    6722    6721    6722    6722       0    6724
    6725    6726    6725    6726    6726       0    6728    6729    6730    6729
    6730    6730       0    6732    6733    6734    6733    6734    6734       0
    6736    6737    6738    6737    6738    6738       0    6740    6741    6742
    6741    6742    6742       0    6744    6745    6746    6745    6746    6746
       0    6748    6749    6750    6749    6750    6750       0    6752    6753
    6754    6753    6754    6754       0    6756    6757    6758    6757    6758
    6758       0    6760    6761    6762    6761    6762    6762       0    6764
    6765    6766    6765    6766    6766       0    6768    6769    6770    6769
    6770    6770       0    6772    6773    6774    6773    6774    6774       0
    6776    6777    6778    6777    6778    6778       0    6780    6781    6782
    6781    6782    6782       0    6784    6785    6786    6785    6786    6786
       0    6788    6789    6790    6789    6790    6790       0    6792    6793
    6794    6793    6794    6794       0    6796    6797    6798    6797    6798
    6798       0    6800    6801    6802    6801    6802    6802       0    6804
    6805    6806    6805    6806    6806       0    6808    6809    6810    6809
    6810    6810       0    6812    6813    6814    6813    6814    6814       0
    6816    6817    6818    6817    6818    6818       0    6820    6821    6822
    6821    6822    6822       0    6824    6825    6826    6825    6826    6826
       0    6828    6829    6830    6829    6830    6830       0    6832    6833
    6834    6833    6834    6834       0    6836    6837    6838    6837    6838
    6838       0    6840    6841    6842    6841    6842    6842       0    6844
    6845    6846    6845    6846    6846       0    6848    6849    6850    6849
    6850    6850       0    6852    6853    6854    6853    6854    6854       0
    6856    6857    6858    6857    6858    6858       0    6860    6861    6862
    6861    6862    6862       0    6864    6865    6866    6865    6866    6866
       0    6868    6869    6870    6869    6870    6870       0    6872    6873
    6874    6873    6874    6874       0    6876    6877    6878    6877    6878
    6878       0    6880    6881    6882    6881    6882    6882       0    6884
    6885    6886    6885    6886    6886       0    6888    6889    6890    6889
    6890    6890       0    6892    6893    6894    6893    6894    6894       0
    6896    6897    6898    6897    6898    6898       0    6900    6901    6902
    6901    6902    6902       0    6904    6905    6906    6905    6906    6906
       0    6908    6909    6910    6909    6910    6910       0    6912    6913
    6914    6913    6914    6914       0    6916    6917    6918    6917    6918
    6918       0    6920    6921    6922    6921    6922    6922       0    6924
    6925    6926    6925    6926    6926       0    6928    6929    6930    6929
    6930    6930       0    6932    6933    6934    6933    6934    6934       0
    6936    6937    6938    6937    6938    6938       0    6940    6941    6942
    6941    6942    6942       0    6944    6945    6946    6945    6946    6946
       0    6948    6949    6950    6949    6950    6950       0    6952    6953
    6954    6953    6954    6954       0    6956    6957    6958    6957    6958
    6958       0    6960    6961    6962    6961    6962    6962       0    6964
    6965    6966    6965    6966    6966       0    6968    6969    6970    6969
    6970    6970       0    6972    6973    6974    6973    6974    6974       0
    6976    6977    6978    6977    6978    6978       0    6980    6981    6982
    6981    6982    6982       0    6984    6985    6986    6985    6986    6986
       0    6988    6989    6990    6989    6990    6990       0    6992    6993
    6994    6993    6994    6994       0    6996    6997    6998    6997    6998
    6998       0    7000    7001    7002    7001    7002    7002       0    7004
    7005    7006    7005    7006    7006       0    7008    7009    7010    7009
    7010    7010       0    7012    7013    7014    7013    7014    7014       0
    7016    7017    7018    7017    7018    7018       0    7020    7021    7022
    7021    7022    7022       0    7024    7025    7026    7025    7026    7026
       0    7028    7029    7030    7029    7030    7030       0    7032    7033
    7034    7033    7034    7034       0    7036    7037    7038    7037    7038
    7038       0    7040    7041    7042    7041    7042    7042       0    7044
    7045    7046    7045    7046    7046       0    7048    7049    7050    7049
    7050    7050       0    7052    7053    7054    7053    7054    7054       0
    7056    7057    7058    7057    7058    7058       0    7060    7061    7062
    7061    7062    7062       0    7064    7065    7066    7065    7066    7066
       0    7068    7069    7070    7069    7070    7070       0    7072    7073
    7074    7073    7074    7074       0    7076    7077    7078    7077    7078
    7078       0    7080    7081    7082    7081    7082    7082       0    7084
    7085    7086    7085    7086    7086       0    7088    7089    7090    7089
    7090    7090       0    7092    7093    7094    7093    7094    7094       0
    7096    7097    7098    7097    7098    7098       0    7100    7101    7102
    7101    7102    7102       0    7104    7105    7106    7105    7106    7106
       0    7108    7109    7110    7109    7110    7110       0    7112    7113
    7114    7113    7114    7114       0    7116    7117    7118    7117    7118
    7118       0    7120    7121    7122    7121    7122    7122       0    7124
    7125    7126    7125    7126    7126       0    7128    7129    7130    7129
    7130    7130       0    7132    7133    7134    7133    7134    7134       0
    7136    7137    7138    7137    7138    7138       0    7140    7141    7142
    7141    7142    7142       0    7144    7145    7146    7145    7146    7146
       0    7148    7149    7150    7149    7150    7150       0    7152    7153
    7154    7153    7154    7154       0    7156    7157    7158    7157    7158
    7158       0    7160    7161    7162    7161    7162    7162       0    7164
    7165    7166    7165    7166    7166       0    7168    7169    7170    7169
    7170    7170       0    7172    7173    7174    7173    7174    7174       0
    7176    7177    7178    7177    7178    7178       0    7180    7181    7182
    7181    7182    7182       0    7184    7185    7186    7185    7186    7186
       0    7188    7189    7190    7189    7190    7190       0    7192    7193
    7194    7193    7194    7194       0    7196    7197    7198    7197    7198
    7198       0    7200    7201    7202    7201    7202    7202       0    7204
    7205    7206    7205    7206    7206       0    7208    7209    7210    7209
    7210    7210       0    7212    7213    7214    7213    7214    7214       0
    7216    7217    7218    7217    7218    7218       0    7220    7221    7222
    7221    7222    7222       0    7224    7225    7226    7225    7226    7226
       0    7228    7229    7230    7229    7230    7230       0    7232    7233
    7234    7233    7234    7234       0    7236    7237    7238    7237    7238
    7238       0    7240    7241    7242    7241    7242    7242       0    7244
    7245    7246    7245    7246    7246       0    7248    7249    7250    7249
    7250    7250       0    7252    7253    7254    7253    7254    7254       0
    7256    7257    7258    7257    7258    7258       0    7260    7261    7262
    7261    7262    7262       0    7264    7265    7266    7265    7266    7266
       0    7268    7269    7270    7269    7270    7270       0    7272    7273
    7274    7273    7274    7274       0    7276    7277    7278    7277    7278
    7278       0    7280    7281    7282    7281    7282    7282       0    7284
    7285    7286    7285    7286    7286       0    7288    7289    7290    7289
    7290    7290       0    7292    7293    7294    7293    7294    7294       0
    7296    7297    7298    7297    7298    7298       0    7300    7301    7302
    7301    7302    7302       0    7304    7305    7306    7305    7306    7306
       0    7308    7309    7310    7309    7310    7310       0    7312    7313
    7314    7313    7314    7314       0    7316    7317    7318    7317    7318
    7318       0    7320    7321    7322    7321    7322    7322       0    7324
    7325    7326    7325    7326    7326       0    7328    7329    7330    7329
    7330    7330       0    7332    7333    7334    7333    7334    7334       0
    7336    7337    7338    7337    7338    7338       0    7340    7341    7342
    7341    7342    7342       0    7344    7345    7346    7345    7346    7346
       0    7348    7349    7350    7349    7350    7350       0    7352    7353
    7354    7353    7354    7354       0    7356    7357    7358    7357    7358
    7358       0    7360    7361    7362    7361    7362    7362       0    7364
    7365    7366    7365    7366    7366       0    7368    7369    7370    7369
    7370    7370       0    7372    7373    7374    7373    7374    7374       0
    7376    7377    7378    7377    7378    7378       0    7380    7381    7382
    7381    7382    7382       0    7384    7385    7386    7385    7386    7386
       0    7388    7389    7390    7389    7390    7390       0    7392    7393
    7394    7393    7394    7394       0    7396    7397    7398    7397    7398
    7398       0    7400    7401    7402    7401    7402    7402       0    7404
    7405    7406    7405    7406    7406       0    7408    7409    7410    7409
    7410    7410       0    7412    7413    7414    7413    7414    7414       0
    7416    7417    7418    7417    7418    7418       0    7420    7421    7422
    7421    7422    7422       0    7424    7425    7426    7425    7426    7426
       0    7428    7429    7430    7429    7430    7430       0    7432    7433
    7434    7433    7434    7434       0    7436    7437    7438    7437    7438
    7438       0    7440    7441    7442    7441    7442    7442       0    7444
    7445    7446    7445    7446    7446       0    7448    7449    7450    7449
    7450    7450       0    7452    7453    7454    7453    7454    7454       0
    7456    7457    7458    7457    7458    7458       0    7460    7461    7462
    7461    7462    7462       0    7464    7465    7466    7465    7466    7466
       0    7468    7469    7470    7469    7470    7470       0    7472    7473
    7474    7473    7474    7474       0    7476    7477    7478    7477    7478
    7478       0    7480    7481    7482    7481    7482    7482       0    7484
    7485    7486    7485    7486    7486       0    7488    7489    7490    7489
    7490    7490       0    7492    7493    7494    7493    7494    7494       0
    7496    7497    7498    7497    7498    7498       0    7500    7501    7502
    7501    7502    7502       0    7504    7505    7506    7505    7506    7506
       0    7508    7509    7510    7509    7510    7510       0    7512    7513
    7514    7513    7514    7514       0    7516    7517    7518    7517    7518
    7518       0    7520    7521    7522    7521    7522    7522       0    7524
    7525    7526    7525    7526    7526       0    7528    7529    7530    7529
    7530    7530       0    7532    7533    7534    7533    7534    7534       0
    7536    7537    7538    7537    7538    7538       0    7540    7541    7542
    7541    7542    7542       0    7544    7545    7546    7545    7546    7546
       0    7548    7549    7550    7549    7550    7550       0    7552    7553
    7554    7553    7554    7554       0    7556    7557    7558    7557    7558
    7558       0    7560    7561    7562    7561    7562    7562       0    7564
    7565    7566    7565    7566    7566       0    7568    7569    7570    7569
    7570    7570       0    7572    7573    7574    7573    7574    7574       0
    7576    7577    7578    7577    7578    7578       0    7580    7581    7582
    7581    7582    7582       0    7584    7585    7586    7585    7586    7586
       0    7588    7589    7590    7589    7590    7590       0    7592    7593
    7594    7593    7594    7594       0    7596    7597    7598    7597    7598
    7598       0    7600    7601    7602    7601    7602    7602       0    7604
    7605    7606    7605    7606    7606       0    7608    7609    7610    7609
    7610    7610       0    7612    7613    7614    7613    7614    7614       0
    7616    7617    7618    7617    7618    7618       0    7620    7621    7622
    7621    7622    7622       0    7624    7625    7626    7625    7626    7626
       0    7628    7629    7630    7629    7630    7630       0    7632    7633
    7634    7633    7634    7634       0    7636    7637    7638    7637    7638
    7638       0    7640    7641    7642    7641    7642    7642       0    7644
    7645    7646    7645    7646    7646       0    7648    7649    7650    7649
    7650    7650       0    7652    7653    7654    7653    7654    7654       0
    7656    7657    7658    7657    7658    7658       0    7660    7661    7662
    7661    7662    7662       0    7664    7665    7666    7665    7666    7666
       0    7668    7669    7670    7669    7670    7670       0    7672    7673
    7674    7673    7674    7674       0    7676    7677    7678    7677    7678
    7678       0    7680    7681    7682    7681    7682    7682       0    7684
    7685    7686    7685    7686    7686       0    7688    7689    7690    7689
    7690    7690       0    7692    7693    7694    7693    7694    7694       0
    7696    7697    7698    7697    7698    7698       0    7700    7701    7702
    7701    7702    7702       0    7704    7705    7706    7705    7706    7706
       0    7708    7709    7710    7709    7710    7710       0    7712    7713
    7714    7713    7714    7714       0    7716    7717    7718    7717    7718
    7718       0    7720    7721    7722    7721    7722    7722       0    7724
    7725    7726    7725    7726    7726       0    7728    7729    7730    7729
    7730    7730       0    7732    7733    7734    7733    7734    7734       0
    7736    7737    7738    7737    7738    7738       0    7740    7741    7742
    7741    7742    7742       0    7744    7745    7746    7745    7746    7746
       0    7748    7749    7750    7749    7750    7750       0    7752    7753
    7754    7753    7754    7754       0    7756    7757    7758    7757    7758
    7758       0    7760    7761    7762    7761    7762    7762       0    7764
    7765    7766    7765    7766    7766       0    7768    7769    7770    7769
    7770    7770       0    7772    7773    7774    7773    7774    7774       0
    7776    7777    7778    7777    7778    7778       0    7780    7781    7782
    7781    7782    7782       0    7784    7785    7786    7785    7786    7786
       0    7788    7789    7790    7789    7790    7790       0    7792    7793
    7794    7793    7794    7794       0    7796    7797    7798    7797    7798
    7798       0    7800    7801    7802    7801    7802    7802       0    7804
    7805    7806    7805    7806    7806       0    7808    7809    7810    7809
    7810    7810       0    7812    7813    7814    7813    7814    7814       0
    7816    7817    7818    7817    7818    7818       0    7820    7821    7822
    7821    7822    7822       0    7824    7825    7826    7825    7826    7826
       0    7828    7829    7830    7829    7830    7830       0    7832    7833
    7834    7833    7834    7834       0    7836    7837    7838    7837    7838
    7838       0    7840    7841    7842    7841    7842    7842       0    7844
    7845    7846    7845    7846    7846       0    7848    7849    7850    7849
    7850    7850       0    7852    7853    7854    7853    7854    7854       0
    7856    7857    7858    7857    7858    7858       0    7860    7861    7862
    7861    7862    7862       0    7864    7865    7866    7865    7866    7866
       0    7868    7869    7870    7869    7870    7870       0    7872    7873
    7874    7873    7874    7874       0    7876    7877    7878    7877    7878
    7878       0    7880    7881    7882    7881    7882    7882       0    7884
    7885    7886    7885    7886    7886       0    7888    7889    7890    7889
    7890    7890       0    7892    7893    7894    7893    7894    7894       0
    7896    7897    7898    7897    7898    7898       0    7900    7901    7902
    7901    7902    7902       0    7904    7905    7906    7905    7906    7906
       0    7908    7909    7910    7909    7910    7910       0    7912    7913
    7914    7913    7914    7914       0    7916    7917    7918    7917    7918
    7918       0    7920    7921    7922    7921    7922    7922       0    7924
    7925    7926    7925    7926    7926       0    7928    7929    7930    7929
    7930    7930       0    7932    7933    7934    7933    7934    7934       0
    7936    7937    7938    7937    7938    7938       0    7940    7941    7942
    7941    7942    7942       0    7944    7945    7946    7945    7946    7946
       0    7948    7949    7950    7949    7950    7950       0    7952    7953
    7954    7953    7954    7954       0    7956    7957    7958    7957    7958
    7958       0    7960    7961    7962    7961    7962    7962       0    7964
    7965    7966    7965    7966    7966       0    7968    7969    7970    7969
    7970    7970       0    7972    7973    7974    7973    7974    7974       0
    7976    7977    7978    7977    7978    7978       0    7980    7981    7982
    7981    7982    7982       0    7984    7985    7986    7985    7986    7986
       0    7988    7989    7990    7989    7990    7990       0    7992    7993
    7994    7993    7994    7994       0    7996    7997    7998    7997    7998
    7998       0    8000    8001    8002    8001    8002    8002       0    8004
    8005    8006    8005    8006    8006       0    8008    8009    8010    8009
    8010    8010       0    8012    8013    8014    8013    8014    8014       0
    8016    8017    8018    8017    8018    8018       0    8020    8021    8022
    8021    8022    8022       0    8024    8025    8026    8025    8026    8026
       0    8028    8029    8030    8029    8030    8030       0    8032    8033
    8034    8033    8034    8034       0    8036    8037    8038    8037    8038
    8038       0    8040    8041    8042    8041    8042    8042       0    8044
    8045    8046    8045    8046    8046       0    8048    8049    8050    8049
    8050    8050       0    8052    8053    8054    8053    8054    8054       0
    8056    8057    8058    8057    8058    8058       0    8060    8061    8062
    8061    8062    8062       0    8064    8065    8066    8065    8066    8066
       0    8068    8069    8070    8069    8070    8070       0    8072    8073
    8074    8073    8074    8074       0    8076    8077    8078    8077    8078
    8078       0    8080    8081    8082    8081    8082    8082       0    8084
    8085    8086    8085    8086    8086       0    8088    8089    8090    8089
    8090    8090       0    8092    8093    8094    8093    8094    8094       0
    8096    8097    8098    8097    8098    8098       0    8100    8101    8102
    8101    8102    8102       0    8104    8105    8106    8105    8106    8106
       0    8108    8109    8110    8109    8110    8110       0    8112    8113
    8114    8113    8114    8114       0    8116    8117    8118    8117    8118
    8118       0    8120    8121    8122    8121    8122    8122       0    8124
    8125    8126    8125    8126    8126       0    8128    8129    8130    8129
    8130    8130       0    8132    8133    8134    8133    8134    8134       0
    8136    8137    8138    8137    8138    8138       0    8140    8141    8142
    8141    8142    8142       0    8144    8145    8146    8145    8146    8146
       0    8148    8149    8150    8149    8150    8150       0    8152    8153
    8154    8153    8154    8154       0    8156    8157    8158    8157    8158
    8158       0    8160    8161    8162    8161    8162    8162       0    8164
    8165    8166    8165    8166    8166       0    8168    8169    8170    8169
    8170    8170       0    8172    8173    8174    8173    8174    8174       0
    8176    8177    8178    8177    8178    8178       0    8180    8181    8182
    8181    8182    8182       0    8184    8185    8186    8185    8186    8186
       0    8188    8189    8190    8189    8190    8190       0    8192    8193
    8194    8193    8194    8194       0    8196    8197    8198    8197    8198
    8198       0    8200    8201    8202    8201    8202    8202       0    8204
    8205    8206    8205    8206    8206       0    8208    8209    8210    8209
    8210    8210       0    8212    8213    8214    8213    8214    8214       0
    8216    8217    8218    8217    8218    8218       0    8220    8221    8222
    8221    8222    8222       0    8224    8225    8226    8225    8226    8226
       0    8228    8229    8230    8229    8230    8230       0    8232    8233
    8234    8233    8234    8234       0    8236    8237    8238    8237    8238
    8238       0    8240    8241    8242    8241    8242    8242       0    8244
    8245    8246    8245    8246    8246       0    8248    8249    8250    8249
    8250    8250       0    8252    8253    8254    8253    8254    8254       0
    8256    8257    8258    8257    8258    8258       0    8260    8261    8262
    8261    8262    8262       0    8264    8265    8266    8265    8266    8266
       0    8268    8269    8270    8269    8270    8270       0    8272    8273
    8274    8273    8274    8274       0    8276    8277    8278    8277    8278
    8278       0    8280    8281    8282    8281    8282    8282       0    8284
    8285    8286    8285    8286    8286       0    8288    8289    8290    8289
    8290    8290       0    8292    8293    8294    8293    8294    8294       0
    8296    8297    8298    8297    8298    8298       0    8300    8301    8302
    8301    8302    8302       0    8304    8305    8306    8305    8306    8306
       0    8308    8309    8310    8309    8310    8310       0    8312    8313
    8314    8313    8314    8314       0    8316    8317    8318    8317    8318
    8318       0    8320    8321    8322    8321    8322    8322       0    8324
    8325    8326    8325    8326    8326       0    8328    8329    8330    8329
    8330    8330       0    8332    8333    8334    8333    8334    8334       0
    8336    8337    8338    8337    8338    8338       0    8340    8341    8342
    8341    8342    8342       0    8344    8345    8346    8345    8346    8346
       0    8348    8349    8350    8349    8350    8350       0    8352    8353
    8354    8353    8354    8354       0    8356    8357    8358    8357    8358
    8358       0    8360    8361    8362    8361    8362    8362       0    8364
    8365    8366    8365    8366    8366       0    8368    8369    8370    8369
    8370    8370       0    8372    8373    8374    8373    8374    8374       0
    8376    8377    8378    8377    8378    8378       0    8380    8381    8382
    8381    8382    8382       0    8384    8385    8386    8385    8386    8386
       0    8388    8389    8390    8389    8390    8390       0    8392    8393
    8394    8393    8394    8394       0    8396    8397    8398    8397    8398
    8398       0    8400    8401    8402    8401    8402    8402       0    8404
    8405    8406    8405    8406    8406       0    8408    8409    8410    8409
    8410    8410       0    8412    8413    8414    8413    8414    8414       0
    8416    8417    8418    8417    8418    8418       0    8420    8421    8422
    8421    8422    8422       0    8424    8425    8426    8425    8426    8426
       0    8428    8429    8430    8429    8430    8430       0    8432    8433
    8434    8433    8434    8434       0    8436    8437    8438    8437    8438
    8438       0    8440    8441    8442    8441    8442    8442       0    8444
    8445    8446    8445    8446    8446       0    8448    8449    8450    8449
    8450    8450       0    8452    8453    8454    8453    8454    8454       0
    8456    8457    8458    8457    8458    8458       0    8460    8461    8462
    8461    8462    8462       0    8464    8465    8466    8465    8466    8466
       0    8468    8469    8470    8469    8470    8470       0    8472    8473
    8474    8473    8474    8474       0    8476    8477    8478    8477    8478
    8478       0    8480    8481    8482    8481    8482    8482       0    8484
    8485    8486    8485    8486    8486       0    8488    8489    8490    8489
    8490    8490       0    8492    8493    8494    8493    8494    8494       0
    8496    8497    8498    8497    8498    8498       0    8500    8501    8502
    8501    8502    8502       0    8504    8505    8506    8505    8506    8506
       0    8508    8509    8510    8509    8510    8510       0    8512    8513
    8514    8513    8514    8514       0    8516    8517    8518    8517    8518
    8518       0    8520    8521    8522    8521    8522    8522       0    8524
    8525    8526    8525    8526    8526       0    8528    8529    8530    8529
    8530    8530       0    8532    8533    8534    8533    8534    8534       0
    8536    8537    8538    8537    8538    8538       0    8540    8541    8542
    8541    8542    8542       0    8544    8545    8546    8545    8546    8546
       0    8548    8549    8550    8549    8550    8550       0    8552    8553
    8554    8553    8554    8554       0    8556    8557    8558    8557    8558
    8558       0    8560    8561    8562    8561    8562    8562       0    8564
    8565    8566    8565    8566    8566       0    8568    8569    8570    8569
    8570    8570       0    8572    8573    8574    8573    8574    8574       0
    8576    8577    8578    8577    8578    8578       0    8580    8581    8582
    8581    8582    8582       0    8584    8585    8586    8585    8586    8586
       0    8588    8589    8590    8589    8590    8590       0    8592    8593
    8594    8593    8594    8594       0    8596    8597    8598    8597    8598
    8598       0    8600    8601    8602    8601    8602    8602       0    8604
    8605    8606    8605    8606    8606       0    8608    8609    8610    8609
    8610    8610       0    8612    8613    8614    8613    8614    8614       0
    8616    8617    8618    8617    8618    8618       0    8620    8621    8622
    8621    8622    8622       0    8624    8625    8626    8625    8626    8626
       0    8628    8629    8630    8629    8630    8630       0    8632    8633
    8634    8633    8634    8634       0    8636    8637    8638    8637    8638
    8638       0    8640    8641    8642    8641    8642    8642       0    8644
    8645    8646    8645    8646    8646       0    8648    8649    8650    8649
    8650    8650       0    8652    8653    8654    8653    8654    8654       0
    8656    8657    8658    8657    8658    8658       0    8660    8661    8662
    8661    8662    8662       0    8664    8665    8666    8665    8666    8666
       0    8668    8669    8670    8669    8670    8670       0    8672    8673
    8674    8673    8674    8674       0    8676    8677    8678    8677    8678
    8678       0    8680    8681    8682    8681    8682    8682       0    8684
    8685    8686    8685    8686    8686       0    8688    8689    8690    8689
    8690    8690       0    8692    8693    8694    8693    8694    8694       0
    8696    8697    8698    8697    8698    8698       0    8700    8701    8702
    8701    8702    8702       0    8704    8705    8706    8705    8706    8706
       0    8708    8709    8710    8709    8710    8710       0    8712    8713
    8714    8713    8714    8714       0    8716    8717    8718    8717    8718
    8718       0    8720    8721    8722    8721    8722    8722       0    8724
    8725    8726    8725    8726    8726       0    8728    8729    8730    8729
    8730    8730       0    8732    8733    8734    8733    8734    8734       0
    8736    8737    8738    8737    8738    8738       0    8740    8741    8742
    8741    8742    8742       0    8744    8745    8746    8745    8746    8746
       0    8748    8749    8750    8749    8750    8750       0    8752    8753
    8754    8753    8754    8754       0    8756    8757    8758    8757    8758
    8758       0    8760    8761    8762    8761    8762    8762       0    8764
    8765    8766    8765    8766    8766       0    8768    8769    8770    8769
    8770    8770       0    8772    8773    8774    8773    8774    8774       0
    8776    8777    8778    8777    8778    8778       0    8780    8781    8782
    8781    8782    8782       0    8784    8785    8786    8785    8786    8786
       0    8788    8789    8790    8789    8790    8790       0    8792    8793
    8794    8793    8794    8794       0    8796    8797    8798    8797    8798
    8798       0    8800    8801    8802    8801    8802    8802       0    8804
    8805    8806    8805    8806    8806       0    8808    8809    8810    8809
    8810    8810       0    8812    8813    8814    8813    8814    8814       0
    8816    8817    8818    8817    8818    8818       0    8820    8821    8822
    8821    8822    8822       0    8824    8825    8826    8825    8826    8826
       0    8828    8829    8830    8829    8830    8830       0    8832    8833
    8834    8833    8834    8834       0    8836    8837    8838    8837    8838
    8838       0    8840    8841    8842    8841    8842    8842       0    8844
    8845    8846    8845    8846    8846       0    8848    8849    8850    8849
    8850    8850       0    8852    8853    8854    8853    8854    8854       0
    8856    8857    8858    8857    8858    8858       0    8860    8861    8862
    8861    8862    8862       0    8864    8865    8866    8865    8866    8866
       0    8868    8869    8870    8869    8870    8870       0    8872    8873
    8874    8873    8874    8874       0    8876    8877    8878    8877    8878
    8878       0    8880    8881    8882    8881    8882    8882       0    8884
    8885    8886    8885    8886    8886       0    8888    8889    8890    8889
    8890    8890       0    8892    8893    8894    8893    8894    8894       0
    8896    8897    8898    8897    8898    8898       0    8900    8901    8902
    8901    8902    8902       0    8904    8905    8906    8905    8906    8906
       0    8908    8909    8910    8909    8910    8910       0    8912    8913
    8914    8913    8914    8914       0    8916    8917    8918    8917    8918
    8918       0    8920    8921    8922    8921    8922    8922       0    8924
    8925    8926    8925    8926    8926       0    8928    8929    8930    8929
    8930    8930       0    8932    8933    8934    8933    8934    8934       0
    8936    8937    8938    8937    8938    8938       0    8940    8941    8942
    8941    8942    8942       0    8944    8945    8946    8945    8946    8946
       0    8948    8949    8950    8949    8950    8950       0    8952    8953
    8954    8953    8954    8954       0    8956    8957    8958    8957    8958
    8958       0    8960    8961    8962    8961    8962    8962       0
%FLAG HBOND_ACOEF                                                               
%FORMAT(5E16.8)                                                                 

%FLAG HBOND_BCOEF                                                               
%FORMAT(5E16.8)                                                                 

%FLAG HBCUT                                                                     
%FORMAT(5E16.8)                                                                 

%FLAG AMBER_ATOM_TYPE                                                           
%FORMAT(20a4)                                                                   
HC  CT  HC  HC  C   O   N   H   XC  H1  CT  HC  HC  CA  CA  HA  CA  HA  C   OH  
HO  CA  HA  CA  HA  C   O   N   H   XC  H1  CT  HC  HC  HC  C   O   N   H   XC  
H1  H1  C   O   N   H   XC  H1  CT  HC  HC  CA  CA  HA  CA  HA  CA  HA  CA  HA  
CA  HA  C   O   N   H   CT  H1  H1  H1  OW  HW  HW  EP  OW  HW  HW  EP  OW  HW  
HW  EP  OW  HW  HW  EP  OW  HW  HW  EP  OW  HW  HW  EP  OW  HW  HW  EP  OW  HW  
HW  EP  OW  HW  HW  EP  OW  HW  HW  EP  OW  HW  HW  EP  OW  HW  HW  EP  OW  HW  
HW  EP  OW  HW  HW  EP  OW  HW  HW  EP  OW  HW  HW  EP  OW  HW  HW  EP  OW  HW  
HW  EP  OW  HW  HW  EP  OW  HW  HW  EP  OW  HW  HW  EP  OW  HW  HW  EP  OW  HW  
HW  EP  OW  HW  HW  EP  OW  HW  HW  EP  OW  HW  HW  EP  OW  HW  HW  EP  OW  HW  
HW  EP  OW  HW  HW  EP  OW  HW  HW  EP  OW  HW  HW  EP  OW  HW  HW  EP  OW  HW  
HW  EP  OW  HW  HW  EP  OW  HW  HW  EP  OW  HW  HW  EP  OW  HW  HW  EP  OW  HW  
HW  EP  OW  HW  HW  EP  OW  HW  HW  EP  OW  HW  HW  EP  OW  HW  HW  EP  OW  HW  
HW  EP  OW  HW  HW  EP  OW  HW  HW  EP  OW  HW  HW  EP  OW  HW  HW  EP  OW  HW  
HW  EP  OW  HW  HW  EP  OW  HW  HW  EP  OW  HW  HW  EP  OW  HW  HW  EP  OW  HW  
HW  EP  OW  HW  HW  EP  OW  HW  HW  EP  OW  HW  HW  EP  OW  HW  HW  EP  OW  HW  
HW  EP  OW  HW  HW  EP  OW  HW  HW  EP  OW  HW  HW  EP  OW  HW  HW  EP  OW  HW  
HW  EP  OW  HW  HW  EP  OW  HW  HW  EP  OW  HW  HW  EP  OW  HW  HW  EP  OW  HW  
HW  EP  OW  HW  HW  EP  OW  HW  HW  EP  OW  HW  HW  EP  OW  HW  HW  EP  OW  HW  
HW  EP  OW  HW  HW  EP  OW  HW  HW  EP  OW  HW  HW  EP  OW  HW  HW  EP  OW  HW  
HW  EP  OW  HW  HW  EP  OW  HW  HW  EP  OW  HW  HW  EP  OW  HW  HW  EP  OW  HW  
HW  EP  OW  HW  HW  EP  OW  HW  HW  EP  OW  HW  HW  EP  OW  HW  HW  EP  OW  HW  
HW  EP  OW  HW  HW  EP  OW  HW  HW  EP  OW  HW  HW  EP  OW  HW  HW  EP  OW  HW  
HW  EP  OW  HW  HW  EP  OW  HW  HW  EP  OW  HW  HW  EP  OW  HW  HW  EP  OW  HW  
HW  EP  OW  HW  HW  EP  OW  HW  HW  EP  OW  HW  HW  EP  OW  HW  HW  EP  OW  HW  
HW  EP  OW  HW  HW  EP  OW  HW  HW  EP  OW  HW  HW  EP  OW  HW  HW  EP  OW  HW  
HW  EP  OW  HW  HW  EP  OW  HW  HW  EP  OW  HW  HW  EP  OW  HW  HW  EP  OW  HW  
HW  EP  OW  HW  HW  EP  OW  HW  HW  EP  OW  HW  HW  EP  OW  HW  HW  EP  OW  HW  
HW  EP  OW  HW  HW  EP  OW  HW  HW  EP  OW  HW  HW  EP  OW  HW  HW  EP  OW  HW  
HW  EP  OW  HW  HW  EP  OW  HW  HW  EP  OW  HW  HW  EP  OW  HW  HW  EP  OW  HW  
HW  EP  OW  HW  HW  EP  OW  HW  HW  EP  OW  HW  HW  EP  OW  HW  HW  EP  OW  HW  
HW  EP  OW  HW  HW  EP  OW  HW  HW  EP  OW  HW  HW  EP  OW  HW  HW  EP  OW  HW  
HW  EP  OW  HW  HW  EP  OW  HW  HW  EP  OW  HW  HW  EP  OW  HW  HW  EP  OW  HW  
HW  EP  OW  HW  HW  EP  OW  HW  HW  EP  OW  HW  HW  EP  OW  HW  HW  EP  OW  HW  
HW  EP  OW  HW  HW  EP  OW  HW  HW  EP  OW  HW  HW  EP  OW  HW  HW  EP  OW  HW  
HW  EP  OW  HW  HW  EP  OW  HW  HW  EP  OW  HW  HW  EP  OW  HW  HW  EP  OW  HW  
HW  EP  OW  HW  HW  EP  OW  HW  HW  EP  OW  HW  HW  EP  OW  HW  HW  EP  OW  HW  
HW  EP  OW  HW  HW  EP  OW  HW  HW  EP  OW  HW  HW  EP  OW  HW  HW  EP  OW  HW  
HW  EP  OW  HW  HW  EP  OW  HW  HW  EP  OW  HW  HW  EP  OW  HW  HW  EP  OW  HW  
HW  EP  OW  HW  HW  EP  OW  HW  HW  EP  OW  HW  HW  EP  OW  HW  HW  EP  OW  HW  
HW  EP  OW  HW  HW  EP  OW  HW  HW  EP  OW  HW  HW  EP  OW  HW  HW  EP  OW  HW  
HW  EP  OW  HW  HW  EP  OW  HW  HW  EP  OW  HW  HW  EP  OW  HW  HW  EP  OW  HW  
HW  EP  OW  HW  HW  EP  OW  HW  HW  EP  OW  HW  HW  EP  OW  HW  HW  EP  OW  HW  
HW  EP  OW  HW  HW  EP  OW  HW  HW  EP  OW  HW  HW  EP  OW  HW  HW  EP  OW  HW  
HW  EP  OW  HW  HW  EP  OW  HW  HW  EP  OW  HW  HW  EP  OW  HW  HW  EP  OW  HW  
HW  EP  OW  HW  HW  EP  OW  HW  HW  EP  OW  HW  HW  EP  OW  HW  HW  EP  OW  HW  
HW  EP  OW  HW  HW  EP  OW  HW  HW  EP  OW  HW  HW  EP  OW  HW  HW  EP  OW  HW  
HW  EP  OW  HW  HW  EP  OW  HW  HW  EP  OW  HW  HW  EP  OW  HW  HW  EP  OW  HW  
HW  EP  OW  HW  HW  EP  OW  HW  HW  EP  OW  HW  HW  EP  OW  HW  HW  EP  OW  HW  
HW  EP  OW  HW  HW  EP  OW  HW  HW  EP  OW  HW  HW  EP  OW  HW  HW  EP  OW  HW  
HW  EP  OW  HW  HW  EP  OW  HW  HW  EP  OW  HW  HW  EP  OW  HW  HW  EP  OW  HW  
HW  EP  OW  HW  HW  EP  OW  HW  HW  EP  OW  HW  HW  EP  OW  HW  HW  EP  OW  HW  
HW  EP  OW  HW  HW  EP  OW  HW  HW  EP  OW  HW  HW  EP  OW  HW  HW  EP  OW  HW  
HW  EP  OW  HW  HW  EP  OW  HW  HW  EP  OW  HW  HW  EP  OW  HW  HW  EP  OW  HW  
HW  EP  OW  HW  HW  EP  OW  HW  HW  EP  OW  HW  HW  EP  OW  HW  HW  EP  OW  HW  
HW  EP  OW  HW  HW  EP  OW  HW  HW  EP  OW  HW  HW  EP  OW  HW  HW  EP  OW  HW  
HW  EP  OW  HW  HW  EP  OW  HW  HW  EP  OW  HW  HW  EP  OW  HW  HW  EP  OW  HW  
HW  EP  OW  HW  HW  EP  OW  HW  HW  EP  OW  HW  HW  EP  OW  HW  HW  EP  OW  HW  
HW  EP  OW  HW  HW  EP  OW  HW  HW  EP  OW  HW  HW  EP  OW  HW  HW  EP  OW  HW  
HW  EP  OW  HW  HW  EP  OW  HW  HW  EP  OW  HW  HW  EP  OW  HW  HW  EP  OW  HW  
HW  EP  OW  HW  HW  EP  OW  HW  HW  EP  OW  HW  HW  EP  OW  HW  HW  EP  OW  HW  
HW  EP  OW  HW  HW  EP  OW  HW  HW  EP  OW  HW  HW  EP  OW  HW  HW  EP  OW  HW  
HW  EP  OW  HW  HW  EP  OW  HW  HW  EP  OW  HW  HW  EP  OW  HW  HW  EP  OW  HW  
HW  EP  OW  HW  HW  EP  OW  HW  HW  EP  OW  HW  HW  EP  OW  HW  HW  EP  OW  HW  
HW  EP  OW  HW  HW  EP  OW  HW  HW  EP  OW  HW  HW  EP  OW  HW  HW  EP  OW  HW  
HW  EP  OW  HW  HW  EP  OW  HW  HW  EP  OW  HW  HW  EP  OW  HW  HW  EP  OW  HW  
HW  EP  OW  HW  HW  EP  OW  HW  HW  EP  OW  HW  HW  EP  OW  HW  HW  EP  OW  HW  
HW  EP  OW  HW  HW  EP  OW  HW  HW  EP  OW  HW  HW  EP  OW  HW  HW  EP  OW  HW  
HW  EP  OW  HW  HW  EP  OW  HW  HW  EP  OW  HW  HW  EP  OW  HW  HW  EP  OW  HW  
HW  EP  OW  HW  HW  EP  OW  HW  HW  EP  OW  HW  HW  EP  OW  HW  HW  EP  OW  HW  
HW  EP  OW  HW  HW  EP  OW  HW  HW  EP  OW  HW  HW  EP  OW  HW  HW  EP  OW  HW  
HW  EP  OW  HW  HW  EP  OW  HW  HW  EP  OW  HW  HW  EP  OW  HW  HW  EP  OW  HW  
HW  EP  OW  HW  HW  EP  OW  HW  HW  EP  OW  HW  HW  EP  OW  HW  HW  EP  OW  HW  
HW  EP  OW  HW  HW  EP  OW  HW  HW  EP  OW  HW  HW  EP  OW  HW  HW  EP  OW  HW  
HW  EP  OW  HW  HW  EP  OW  HW  HW  EP  OW  HW  HW  EP  OW  HW  HW  EP  OW  HW  
HW  EP  OW  HW  HW  EP  OW  HW  HW  EP  OW  HW  HW  EP  OW  HW  HW  EP  OW  HW  
HW  EP  OW  HW  HW  EP  OW  HW  HW  EP  OW  HW  HW  EP  OW  HW  HW  EP  OW  HW  
HW  EP  OW  HW  HW  EP  OW  HW  HW  EP  OW  HW  HW  EP  OW  HW  HW  EP  OW  HW  
HW  EP  OW  HW  HW  EP  OW  HW  HW  EP  OW  HW  HW  EP  OW  HW  HW  EP  OW  HW  
HW  EP  OW  HW  HW  EP  OW  HW  HW  EP  OW  HW  HW  EP  OW  HW  HW  EP  OW  HW  
HW  EP  OW  HW  HW  EP  OW  HW  HW  EP  OW  HW  HW  EP  OW  HW  HW  EP  OW  HW  
HW  EP  OW  HW  HW  EP  OW  HW  HW  EP  OW  HW  HW  EP  OW  HW  HW  EP  OW  HW  
HW  EP  OW  HW  HW  EP  OW  HW  HW  EP  OW  HW  HW  EP  OW  HW  HW  EP  OW  HW  
HW  EP  OW  HW  HW  EP  OW  HW  HW  EP  OW  HW  HW  EP  OW  HW  HW  EP  OW  HW  
HW  EP  OW  HW  HW  EP  OW  HW  HW  EP  OW  HW  HW  EP  OW  HW  HW  EP  OW  HW  
HW  EP  OW  HW  HW  EP  OW  HW  HW  EP  OW  HW  HW  EP  OW  HW  HW  EP  OW  HW  
HW  EP  OW  HW  HW  EP  OW  HW  HW  EP  OW  HW  HW  EP  OW  HW  HW  EP  OW  HW  
HW  EP  OW  HW  HW  EP  OW  HW  HW  EP  OW  HW  HW  EP  OW  HW  HW  EP  OW  HW  
HW  EP  OW  HW  HW  EP  OW  HW  HW  EP  OW  HW  HW  EP  OW  HW  HW  EP  OW  HW  
HW  EP  OW  HW  HW  EP  OW  HW  HW  EP  OW  HW  HW  EP  OW  HW  HW  EP  OW  HW  
HW  EP  OW  HW  HW  EP  OW  HW  HW  EP  OW  HW  HW  EP  OW  HW  HW  EP  OW  HW  
HW  EP  OW  HW  HW  EP  OW  HW  HW  EP  OW  HW  HW  EP  OW  HW  HW  EP  OW  HW  
HW  EP  OW  HW  HW  EP  OW  HW  HW  EP  OW  HW  HW  EP  OW  HW  HW  EP  OW  HW  
HW  EP  OW  HW  HW  EP  OW  HW  HW  EP  OW  HW  HW  EP  OW  HW  HW  EP  OW  HW  
HW  EP  OW  HW  HW  EP  OW  HW  HW  EP  OW  HW  HW  EP  OW  HW  HW  EP  OW  HW  
HW  EP  OW  HW  HW  EP  OW  HW  HW  EP  OW  HW  HW  EP  OW  HW  HW  EP  OW  HW  
HW  EP  OW  HW  HW  EP  OW  HW  HW  EP  OW  HW  HW  EP  OW  HW  HW  EP  OW  HW  
HW  EP  OW  HW  HW  EP  OW  HW  HW  EP  OW  HW  HW  EP  OW  HW  HW  EP  OW  HW  
HW  EP  OW  HW  HW  EP  OW  HW  HW  EP  OW  HW  HW  EP  OW  HW  HW  EP  OW  HW  
HW  EP  OW  HW  HW  EP  OW  HW  HW  EP  OW  HW  HW  EP  OW  HW  HW  EP  OW  HW  
HW  EP  OW  HW  HW  EP  OW  HW  HW  EP  OW  HW  HW  EP  OW  HW  HW  EP  OW  HW  
HW  EP  OW  HW  HW  EP  OW  HW  HW  EP  OW  HW  HW  EP  OW  HW  HW  EP  OW  HW  
HW  EP  OW  HW  HW  EP  OW  HW  HW  EP  OW  HW  HW  EP  OW  HW  HW  EP  OW  HW  
HW  EP  OW  HW  HW  EP  OW  HW  HW  EP  OW  HW  HW  EP  OW  HW  HW  EP  OW  HW  
HW  EP  OW  HW  HW  EP  OW  HW  HW  EP  OW  HW  HW  EP  OW  HW  HW  EP  OW  HW  
HW  EP  OW  HW  HW  EP  OW  HW  HW  EP  OW  HW  HW  EP  OW  HW  HW  EP  OW  HW  
HW  EP  OW  HW  HW  EP  OW  HW  HW  EP  OW  HW  HW  EP  OW  HW  HW  EP  OW  HW  
HW  EP  OW  HW  HW  EP  OW  HW  HW  EP  OW  HW  HW  EP  OW  HW  HW  EP  OW  HW  
HW  EP  OW  HW  HW  EP  OW  HW  HW  EP  OW  HW  HW  EP  OW  HW  HW  EP  OW  HW  
HW  EP  OW  HW  HW  EP  OW  HW  HW  EP  OW  HW  HW  EP  OW  HW  HW  EP  OW  HW  
HW  EP  OW  HW  HW  EP  OW  HW  HW  EP  OW  HW  HW  EP  OW  HW  HW  EP  OW  HW  
HW  EP  OW  HW  HW  EP  OW  HW  HW  EP  OW  HW  HW  EP  OW  HW  HW  EP  OW  HW  
HW  EP  OW  HW  HW  EP  OW  HW  HW  EP  OW  HW  HW  EP  OW  HW  HW  EP  OW  HW  
HW  EP  OW  HW  HW  EP  OW  HW  HW  EP  OW  HW  HW  EP  OW  HW  HW  EP  OW  HW  
HW  EP  OW  HW  HW  EP  OW  HW  HW  EP  OW  HW  HW  EP  OW  HW  HW  EP  OW  HW  
HW  EP  OW  HW  HW  EP  OW  HW  HW  EP  OW  HW  HW  EP  OW  HW  HW  EP  OW  HW  
HW  EP  OW  HW  HW  EP  OW  HW  HW  EP  OW  HW  HW  EP  OW  HW  HW  EP  OW  HW  
HW  EP  OW  HW  HW  EP  OW  HW  HW  EP  OW  HW  HW  EP  OW  HW  HW  EP  OW  HW  
HW  EP  OW  HW  HW  EP  OW  HW  HW  EP  OW  HW  HW  EP  OW  HW  HW  EP  OW  HW  
HW  EP  OW  HW  HW  EP  OW  HW  HW  EP  OW  HW  HW  EP  OW  HW  HW  EP  OW  HW  
HW  EP  OW  HW  HW  EP  OW  HW  HW  EP  OW  HW  HW  EP  OW  HW  HW  EP  OW  HW  
HW  EP  OW  HW  HW  EP  OW  HW  HW  EP  OW  HW  HW  EP  OW  HW  HW  EP  OW  HW  
HW  EP  OW  HW  HW  EP  OW  HW  HW  EP  OW  HW  HW  EP  OW  HW  HW  EP  OW  HW  
HW  EP  OW  HW  HW  EP  OW  HW  HW  EP  OW  HW  HW  EP  OW  HW  HW  EP  OW  HW  
HW  EP  OW  HW  HW  EP  OW  HW  HW  EP  OW  HW  HW  EP  OW  HW  HW  EP  OW  HW  
HW  EP  OW  HW  HW  EP  OW  HW  HW  EP  OW  HW  HW  EP  OW  HW  HW  EP  OW  HW  
HW  EP  OW  HW  HW  EP  OW  HW  HW  EP  OW  HW  HW  EP  OW  HW  HW  EP  OW  HW  
HW  EP  OW  HW  HW  EP  OW  HW  HW  EP  OW  HW  HW  EP  OW  HW  HW  EP  OW  HW  
HW  EP  OW  HW  HW  EP  OW  HW  HW  EP  OW  HW  HW  EP  OW  HW  HW  EP  OW  HW  
HW  EP  OW  HW  HW  EP  OW  HW  HW  EP  OW  HW  HW  EP  OW  HW  HW  EP  OW  HW  
HW  EP  OW  HW  HW  EP  OW  HW  HW  EP  OW  HW  HW  EP  OW  HW  HW  EP  OW  HW  
HW  EP  OW  HW  HW  EP  OW  HW  HW  EP  OW  HW  HW  EP  OW  HW  HW  EP  OW  HW  
HW  EP  OW  HW  HW  EP  OW  HW  HW  EP  OW  HW  HW  EP  OW  HW  HW  EP  OW  HW  
HW  EP  OW  HW  HW  EP  OW  HW  HW  EP  OW  HW  HW  EP  OW  HW  HW  EP  OW  HW  
HW  EP  OW  HW  HW  EP  OW  HW  HW  EP  OW  HW  HW  EP  OW  HW  HW  EP  OW  HW  
HW  EP  OW  HW  HW  EP  OW  HW  HW  EP  OW  HW  HW  EP  OW  HW  HW  EP  OW  HW  
HW  EP  OW  HW  HW  EP  OW  HW  HW  EP  OW  HW  HW  EP  OW  HW  HW  EP  OW  HW  
HW  EP  OW  HW  HW  EP  OW  HW  HW  EP  OW  HW  HW  EP  OW  HW  HW  EP  OW  HW  
HW  EP  OW  HW  HW  EP  OW  HW  HW  EP  OW  HW  HW  EP  OW  HW  HW  EP  OW  HW  
HW  EP  OW  HW  HW  EP  OW  HW  HW  EP  OW  HW  HW  EP  OW  HW  HW  EP  OW  HW  
HW  EP  OW  HW  HW  EP  OW  HW  HW  EP  OW  HW  HW  EP  OW  HW  HW  EP  OW  HW  
HW  EP  OW  HW  HW  EP  OW  HW  HW  EP  OW  HW  HW  EP  OW  HW  HW  EP  OW  HW  
HW  EP  OW  HW  HW  EP  OW  HW  HW  EP  OW  HW  HW  EP  OW  HW  HW  EP  OW  HW  
HW  EP  OW  HW  HW  EP  OW  HW  HW  EP  OW  HW  HW  EP  OW  HW  HW  EP  OW  HW  
HW  EP  OW  HW  HW  EP  OW  HW  HW  EP  OW  HW  HW  EP  OW  HW  HW  EP  OW  HW  
HW  EP  OW  HW  HW  EP  OW  HW  HW  EP  OW  HW  HW  EP  OW  HW  HW  EP  OW  HW  
HW  EP  OW  HW  HW  EP  OW  HW  HW  EP  OW  HW  HW  EP  OW  HW  HW  EP  OW  HW  
HW  EP  OW  HW  HW  EP  OW  HW  HW  EP  OW  HW  HW  EP  OW  HW  HW  EP  OW  HW  
HW  EP  OW  HW  HW  EP  OW  HW  HW  EP  OW  HW  HW  EP  OW  HW  HW  EP  OW  HW  
HW  EP  OW  HW  HW  EP  OW  HW  HW  EP  OW  HW  HW  EP  OW  HW  HW  EP  OW  HW  
HW  EP  OW  HW  HW  EP  OW  HW  HW  EP  OW  HW  HW  EP  OW  HW  HW  EP  OW  HW  
HW  EP  OW  HW  HW  EP  OW  HW  HW  EP  OW  HW  HW  EP  OW  HW  HW  EP  OW  HW  
HW  EP  OW  HW  HW  EP  OW  HW  HW  EP  OW  HW  HW  EP  OW  HW  HW  EP  OW  HW  
HW  EP  OW  HW  HW  EP  OW  HW  HW  EP  OW  HW  HW  EP  OW  HW  HW  EP  OW  HW  
HW  EP  OW  HW  HW  EP  OW  HW  HW  EP  OW  HW  HW  EP  OW  HW  HW  EP  OW  HW  
HW  EP  OW  HW  HW  EP  OW  HW  HW  EP  OW  HW  HW  EP  OW  HW  HW  EP  OW  HW  
HW  EP  OW  HW  HW  EP  OW  HW  HW  EP  OW  HW  HW  EP  OW  HW  HW  EP  OW  HW  
HW  EP  OW  HW  HW  EP  OW  HW  HW  EP  OW  HW  HW  EP  OW  HW  HW  EP  OW  HW  
HW  EP  OW  HW  HW  EP  OW  HW  HW  EP  OW  HW  HW  EP  OW  HW  HW  EP  OW  HW  
HW  EP  OW  HW  HW  EP  OW  HW  HW  EP  OW  HW  HW  EP  OW  HW  HW  EP  OW  HW  
HW  EP  OW  HW  HW  EP  OW  HW  HW  EP  OW  HW  HW  EP  OW  HW  HW  EP  OW  HW  
HW  EP  OW  HW  HW  EP  OW  HW  HW  EP  OW  HW  HW  EP  OW  HW  HW  EP  OW  HW  
HW  EP  OW  HW  HW  EP  OW  HW  HW  EP  OW  HW  HW  EP  OW  HW  HW  EP  OW  HW  
HW  EP  OW  HW  HW  EP  OW  HW  HW  EP  OW  HW  HW  EP  OW  HW  HW  EP  OW  HW  
HW  EP  OW  HW  HW  EP  OW  HW  HW  EP  OW  HW  HW  EP  OW  HW  HW  EP  OW  HW  
HW  EP  OW  HW  HW  EP  OW  HW  HW  EP  OW  HW  HW  EP  OW  HW  HW  EP  OW  HW  
HW  EP  OW  HW  HW  EP  OW  HW  HW  EP  OW  HW  HW  EP  OW  HW  HW  EP  OW  HW  
HW  EP  OW  HW  HW  EP  OW  HW  HW  EP  OW  HW  HW  EP  OW  HW  HW  EP  OW  HW  
HW  EP  OW  HW  HW  EP  OW  HW  HW  EP  OW  HW  HW  EP  OW  HW  HW  EP  OW  HW  
HW  EP  OW  HW  HW  EP  OW  HW  HW  EP  OW  HW  HW  EP  OW  HW  HW  EP  OW  HW  
HW  EP  OW  HW  HW  EP  OW  HW  HW  EP  OW  HW  HW  EP  OW  HW  HW  EP  OW  HW  
HW  EP  OW  HW  HW  EP  OW  HW  HW  EP  OW  HW  HW  EP  OW  HW  HW  EP  OW  HW  
HW  EP  OW  HW  HW  EP  OW  HW  HW  EP  OW  HW  HW  EP  OW  HW  HW  EP  OW  HW  
HW  EP  OW  HW  HW  EP  OW  HW  HW  EP  OW  HW  HW  EP  OW  HW  HW  EP  OW  HW  
HW  EP  OW  HW  HW  EP  OW  HW  HW  EP  OW  HW  HW  EP  OW  HW  HW  EP  OW  HW  
HW  EP  OW  HW  HW  EP  OW  HW  HW  EP  OW  HW  HW  EP  OW  HW  HW  EP  OW  HW  
HW  EP  OW  HW  HW  EP  OW  HW  HW  EP  OW  HW  HW  EP  OW  HW  HW  EP  OW  HW  
HW  EP  OW  HW  HW  EP  OW  HW  HW  EP  OW  HW  HW  EP  OW  HW  HW  EP  OW  HW  
HW  EP  OW  HW  HW  EP  OW  HW  HW  EP  OW  HW  HW  EP  OW  HW  HW  EP  OW  HW  
HW  EP  OW  HW  HW  EP  OW  HW  HW  EP  OW  HW  HW  EP  OW  HW  HW  EP  OW  HW  
HW  EP  OW  HW  HW  EP  OW  HW  HW  EP  OW  HW  HW  EP  OW  HW  HW  EP  OW  HW  
HW  EP  OW  HW  HW  EP  OW  HW  HW  EP  OW  HW  HW  EP  OW  HW  HW  EP  OW  HW  
HW  EP  OW  HW  HW  EP  OW  HW  HW  EP  OW  HW  HW  EP  OW  HW  HW  EP  OW  HW  
HW  EP  OW  HW  HW  EP  OW  HW  HW  EP  OW  HW  HW  EP  OW  HW  HW  EP  OW  HW  
HW  EP  OW  HW  HW  EP  OW  HW  HW  EP  OW  HW  HW  EP  OW  HW  HW  EP  OW  HW  
HW  EP  OW  HW  HW  EP  OW  HW  HW  EP  OW  HW  HW  EP  OW  HW  HW  EP  OW  HW  
HW  EP  OW  HW  HW  EP  OW  HW  HW  EP  OW  HW  HW  EP  OW  HW  HW  EP  OW  HW  
HW  EP  OW  HW  HW  EP  OW  HW  HW  EP  OW  HW  HW  EP  OW  HW  HW  EP  OW  HW  
HW  EP  OW  HW  HW  EP  OW  HW  HW  EP  OW  HW  HW  EP  OW  HW  HW  EP  OW  HW  
HW  EP  OW  HW  HW  EP  OW  HW  HW  EP  OW  HW  HW  EP  OW  HW  HW  EP  OW  HW  
HW  EP  OW  HW  HW  EP  OW  HW  HW  EP  OW  HW  HW  EP  OW  HW  HW  EP  OW  HW  
HW  EP  OW  HW  HW  EP  OW  HW  HW  EP  OW  HW  HW  EP  OW  HW  HW  EP  OW  HW  
HW  EP  OW  HW  HW  EP  OW  HW  HW  EP  OW  HW  HW  EP  OW  HW  HW  EP  OW  HW  
HW  EP  OW  HW  HW  EP  OW  HW  HW  EP  OW  HW  HW  EP  OW  HW  HW  EP  OW  HW  
HW  EP  OW  HW  HW  EP  OW  HW  HW  EP  OW  HW  HW  EP  OW  HW  HW  EP  OW  HW  
HW  EP  OW  HW  HW  EP  OW  HW  HW  EP  OW  HW  HW  EP  OW  HW  HW  EP  OW  HW  
HW  EP  OW  HW  HW  EP  OW  HW  HW  EP  OW  HW  HW  EP  OW  HW  HW  EP  OW  HW  
HW  EP  OW  HW  HW  EP  OW  HW  HW  EP  OW  HW  HW  EP  OW  HW  HW  EP  OW  HW  
HW  EP  OW  HW  HW  EP  OW  HW  HW  EP  OW  HW  HW  EP  OW  HW  HW  EP  OW  HW  
HW  EP  OW  HW  HW  EP  OW  HW  HW  EP  OW  HW  HW  EP  OW  HW  HW  EP  OW  HW  
HW  EP  OW  HW  HW  EP  OW  HW  HW  EP  OW  HW  HW  EP  OW  HW  HW  EP  OW  HW  
HW  EP  OW  HW  HW  EP  OW  HW  HW  EP  OW  HW  HW  EP  OW  HW  HW  EP  OW  HW  
HW  EP  OW  HW  HW  EP  OW  HW  HW  EP  OW  HW  HW  EP  OW  HW  HW  EP  OW  HW  
HW  EP  OW  HW  HW  EP  OW  HW  HW  EP  OW  HW  HW  EP  OW  HW  HW  EP  OW  HW  
HW  EP  OW  HW  HW  EP  OW  HW  HW  EP  OW  HW  HW  EP  OW  HW  HW  EP  OW  HW  
HW  EP  OW  HW  HW  EP  OW  HW  HW  EP  OW  HW  HW  EP  OW  HW  HW  EP  OW  HW  
HW  EP  OW  HW  HW  EP  OW  HW  HW  EP  OW  HW  HW  EP  OW  HW  HW  EP  OW  HW  
HW  EP  OW  HW  HW  EP  OW  HW  HW  EP  OW  HW  HW  EP  OW  HW  HW  EP  OW  HW  
HW  EP  OW  HW  HW  EP  OW  HW  HW  EP  OW  HW  HW  EP  OW  HW  HW  EP  OW  HW  
HW  EP  OW  HW  HW  EP  OW  HW  HW  EP  OW  HW  HW  EP  OW  HW  HW  EP  OW  HW  
HW  EP  OW  HW  HW  EP  OW  HW  HW  EP  OW  HW  HW  EP  OW  HW  HW  EP  OW  HW  
HW  EP  OW  HW  HW  EP  OW  HW  HW  EP  OW  HW  HW  EP  OW  HW  HW  EP  OW  HW  
HW  EP  OW  HW  HW  EP  OW  HW  HW  EP  OW  HW  HW  EP  OW  HW  HW  EP  OW  HW  
HW  EP  OW  HW  HW  EP  OW  HW  HW  EP  OW  HW  HW  EP  OW  HW  HW  EP  OW  HW  
HW  EP  OW  HW  HW  EP  OW  HW  HW  EP  OW  HW  HW  EP  OW  HW  HW  EP  OW  HW  
HW  EP  OW  HW  HW  EP  OW  HW  HW  EP  OW  HW  HW  EP  OW  HW  HW  EP  OW  HW  
HW  EP  OW  HW  HW  EP  OW  HW  HW  EP  OW  HW  HW  EP  OW  HW  HW  EP  OW  HW  
HW  EP  OW  HW  HW  EP  OW  HW  HW  EP  OW  HW  HW  EP  OW  HW  HW  EP  OW  HW  
HW  EP  OW  HW  HW  EP  OW  HW  HW  EP  OW  HW  HW  EP  OW  HW  HW  EP  OW  HW  
HW  EP  OW  HW  HW  EP  OW  HW  HW  EP  OW  HW  HW  EP  OW  HW  HW  EP  OW  HW  
HW  EP  OW  HW  HW  EP  OW  HW  HW  EP  OW  HW  HW  EP  OW  HW  HW  EP  OW  HW  
HW  EP  OW  HW  HW  EP  OW  HW  HW  EP  OW  HW  HW  EP  OW  HW  HW  EP  OW  HW  
HW  EP  OW  HW  HW  EP  OW  HW  HW  EP  OW  HW  HW  EP  OW  HW  HW  EP  OW  HW  
HW  EP  OW  HW  HW  EP  OW  HW  HW  EP  OW  HW  HW  EP  OW  HW  HW  EP  OW  HW  
HW  EP  OW  HW  HW  EP  OW  HW  HW  EP  OW  HW  HW  EP  OW  HW  HW  EP  OW  HW  
HW  EP  OW  HW  HW  EP  OW  HW  HW  EP  OW  HW  HW  EP  OW  HW  HW  EP  OW  HW  
HW  EP  OW  HW  HW  EP  OW  HW  HW  EP  OW  HW  HW  EP  OW  HW  HW  EP  OW  HW  
HW  EP  OW  HW  HW  EP  OW  HW  HW  EP  OW  HW  HW  EP  OW  HW  HW  EP  OW  HW  
HW  EP  OW  HW  HW  EP  OW  HW  HW  EP  OW  HW  HW  EP  OW  HW  HW  EP  OW  HW  
HW  EP  OW  HW  HW  EP  OW  HW  HW  EP  OW  HW  HW  EP  OW  HW  HW  EP  OW  HW  
HW  EP  OW  HW  HW  EP  OW  HW  HW  EP  OW  HW  HW  EP  OW  HW  HW  EP  OW  HW  
HW  EP  OW  HW  HW  EP  OW  HW  HW  EP  OW  HW  HW  EP  OW  HW  HW  EP  OW  HW  
HW  EP  OW  HW  HW  EP  OW  HW  HW  EP  OW  HW  HW  EP  OW  HW  HW  EP  OW  HW  
HW  EP  OW  HW  HW  EP  OW  HW  HW  EP  OW  HW  HW  EP  OW  HW  HW  EP  OW  HW  
HW  EP  OW  HW  HW  EP  OW  HW  HW  EP  OW  HW  HW  EP  OW  HW  HW  EP  OW  HW  
HW  EP  OW  HW  HW  EP  OW  HW  HW  EP  OW  HW  HW  EP  OW  HW  HW  EP  OW  HW  
HW  EP  OW  HW  HW  EP  OW  HW  HW  EP  OW  HW  HW  EP  OW  HW  HW  EP  OW  HW  
HW  EP  OW  HW  HW  EP  OW  HW  HW  EP  OW  HW  HW  EP  OW  HW  HW  EP  OW  HW  
HW  EP  OW  HW  HW  EP  OW  HW  HW  EP  OW  HW  HW  EP  OW  HW  HW  EP  OW  HW  
HW  EP  OW  HW  HW  EP  OW  HW  HW  EP  OW  HW  HW  EP  OW  HW  HW  EP  OW  HW  
HW  EP  OW  HW  HW  EP  OW  HW  HW  EP  OW  HW  HW  EP  OW  HW  HW  EP  OW  HW  
HW  EP  OW  HW  HW  EP  OW  HW  HW  EP  OW  HW  HW  EP  OW  HW  HW  EP  OW  HW  
HW  EP  OW  HW  HW  EP  OW  HW  HW  EP  OW  HW  HW  EP  OW  HW  HW  EP  OW  HW  
HW  EP  OW  HW  HW  EP  OW  HW  HW  EP  OW  HW  HW  EP  OW  HW  HW  EP  OW  HW  
HW  EP  OW  HW  HW  EP  OW  HW  HW  EP  OW  HW  HW  EP  OW  HW  HW  EP  OW  HW  
HW  EP  OW  HW  HW  EP  OW  HW  HW  EP  OW  HW  HW  EP  OW  HW  HW  EP  OW  HW  
HW  EP  OW  HW  HW  EP  OW  HW  HW  EP  OW  HW  HW  EP  OW  HW  HW  EP  OW  HW  
HW  EP  OW  HW  HW  EP  OW  HW  HW  EP  OW  HW  HW  EP  OW  HW  HW  EP  OW  HW  
HW  EP  OW  HW  HW  EP  OW  HW  HW  EP  OW  HW  HW  EP  OW  HW  HW  EP  OW  HW  
HW  EP  OW  HW  HW  EP  OW  HW  HW  EP  OW  HW  HW  EP  OW  HW  HW  EP  OW  HW  
HW  EP  OW  HW  HW  EP  OW  HW  HW  EP  OW  HW  HW  EP  OW  HW  HW  EP  OW  HW  
HW  EP  OW  HW  HW  EP  OW  HW  HW  EP  OW  HW  HW  EP  OW  HW  HW  EP  OW  HW  
HW  EP  OW  HW  HW  EP  OW  HW  HW  EP  OW  HW  HW  EP  OW  HW  HW  EP  OW  HW  
HW  EP  OW  HW  HW  EP  OW  HW  HW  EP  OW  HW  HW  EP  OW  HW  HW  EP  OW  HW  
HW  EP  OW  HW  HW  EP  OW  HW  HW  EP  OW  HW  HW  EP  OW  HW  HW  EP  OW  HW  
HW  EP  OW  HW  HW  EP  OW  HW  HW  EP  OW  HW  HW  EP  OW  HW  HW  EP  OW  HW  
HW  EP  OW  HW  HW  EP  OW  HW  HW  EP  OW  HW  HW  EP  OW  HW  HW  EP  OW  HW  
HW  EP  OW  HW  HW  EP  OW  HW  HW  EP  OW  HW  HW  EP  OW  HW  HW  EP  OW  HW  
HW  EP  OW  HW  HW  EP  OW  HW  HW  EP  OW  HW  HW  EP  OW  HW  HW  EP  OW  HW  
HW  EP  OW  HW  HW  EP  OW  HW  HW  EP  OW  HW  HW  EP  OW  HW  HW  EP  OW  HW  
HW  EP  OW  HW  HW  EP  OW  HW  HW  EP  OW  HW  HW  EP  OW  HW  HW  EP  OW  HW  
HW  EP  OW  HW  HW  EP  OW  HW  HW  EP  OW  HW  HW  EP  OW  HW  HW  EP  OW  HW  
HW  EP  OW  HW  HW  EP  OW  HW  HW  EP  OW  HW  HW  EP  OW  HW  HW  EP  OW  HW  
HW  EP  OW  HW  HW  EP  OW  HW  HW  EP  OW  HW  HW  EP  OW  HW  HW  EP  OW  HW  
HW  EP  OW  HW  HW  EP  OW  HW  HW  EP  OW  HW  HW  EP  OW  HW  HW  EP  OW  HW  
HW  EP  OW  HW  HW  EP  OW  HW  HW  EP  OW  HW  HW  EP  OW  HW  HW  EP  OW  HW  
HW  EP  OW  HW  HW  EP  OW  HW  HW  EP  OW  HW  HW  EP  OW  HW  HW  EP  OW  HW  
HW  EP  OW  HW  HW  EP  OW  HW  HW  EP  OW  HW  HW  EP  OW  HW  HW  EP  OW  HW  
HW  EP  OW  HW  HW  EP  OW  HW  HW  EP  OW  HW  HW  EP  OW  HW  HW  EP  OW  HW  
HW  EP  OW  HW  HW  EP  OW  HW  HW  EP  OW  HW  HW  EP  OW  HW  HW  EP  OW  HW  
HW  EP  OW  HW  HW  EP  OW  HW  HW  EP  OW  HW  HW  EP  OW  HW  HW  EP  OW  HW  
HW  EP  OW  HW  HW  EP  OW  HW  HW  EP  OW  HW  HW  EP  OW  HW  HW  EP  OW  HW  
HW  EP  OW  HW  HW  EP  OW  HW  HW  EP  OW  HW  HW  EP  OW  HW  HW  EP  OW  HW  
HW  EP  OW  HW  HW  EP  OW  HW  HW  EP  OW  HW  HW  EP  OW  HW  HW  EP  OW  HW  
HW  EP  OW  HW  HW  EP  OW  HW  HW  EP  OW  HW  HW  EP  OW  HW  HW  EP  OW  HW  
HW  EP  OW  HW  HW  EP  OW  HW  HW  EP  OW  HW  HW  EP  OW  HW  HW  EP  OW  HW  
HW  EP  OW  HW  HW  EP  OW  HW  HW  EP  OW  HW  HW  EP  OW  HW  HW  EP  OW  HW  
HW  EP  OW  HW  HW  EP  OW  HW  HW  EP  OW  HW  HW  EP  OW  HW  HW  EP  OW  HW  
HW  EP  OW  HW  HW  EP  OW  HW  HW  EP  OW  HW  HW  EP  OW  HW  HW  EP  OW  HW  
HW  EP  OW  HW  HW  EP  OW  HW  HW  EP  OW  HW  HW  EP  OW  HW  HW  EP  OW  HW  
HW  EP  OW  HW  HW  EP  OW  HW  HW  EP  OW  HW  HW  EP  OW  HW  HW  EP  OW  HW  
HW  EP  OW  HW  HW  EP  OW  HW  HW  EP  OW  HW  HW  EP  OW  HW  HW  EP  OW  HW  
HW  EP  OW  HW  HW  EP  OW  HW  HW  EP  OW  HW  HW  EP  OW  HW  HW  EP  OW  HW  
HW  EP  OW  HW  HW  EP  OW  HW  HW  EP  OW  HW  HW  EP  OW  HW  HW  EP  OW  HW  
HW  EP  OW  HW  HW  EP  OW  HW  HW  EP  OW  HW  HW  EP  OW  HW  HW  EP  OW  HW  
HW  EP  OW  HW  HW  EP  OW  HW  HW  EP  OW  HW  HW  EP  OW  HW  HW  EP  OW  HW  
HW  EP  OW  HW  HW  EP  OW  HW  HW  EP  OW  HW  HW  EP  OW  HW  HW  EP  OW  HW  
HW  EP  OW  HW  HW  EP  OW  HW  HW  EP  OW  HW  HW  EP  OW  HW  HW  EP  OW  HW  
HW  EP  OW  HW  HW  EP  OW  HW  HW  EP  OW  HW  HW  EP  OW  HW  HW  EP  OW  HW  
HW  EP  OW  HW  HW  EP  OW  HW  HW  EP  OW  HW  HW  EP  OW  HW  HW  EP  OW  HW  
HW  EP  OW  HW  HW  EP  OW  HW  HW  EP  OW  HW  HW  EP  OW  HW  HW  EP  OW  HW  
HW  EP  OW  HW  HW  EP  OW  HW  HW  EP  OW  HW  HW  EP  OW  HW  HW  EP  OW  HW  
HW  EP  OW  HW  HW  EP  OW  HW  HW  EP  OW  HW  HW  EP  OW  HW  HW  EP  OW  HW  
HW  EP  OW  HW  HW  EP  OW  HW  HW  EP  OW  HW  HW  EP  OW  HW  HW  EP  OW  HW  
HW  EP  OW  HW  HW  EP  OW  HW  HW  EP  OW  HW  HW  EP  OW  HW  HW  EP  OW  HW  
HW  EP  OW  HW  HW  EP  OW  HW  HW  EP  OW  HW  HW  EP  OW  HW  HW  EP  OW  HW  
HW  EP  OW  HW  HW  EP  OW  HW  HW  EP  OW  HW  HW  EP  OW  HW  HW  EP  OW  HW  
HW  EP  OW  HW  HW  EP  OW  HW  HW  EP  OW  HW  HW  EP  OW  HW  HW  EP  OW  HW  
HW  EP  OW  HW  HW  EP  OW  HW  HW  EP  OW  HW  HW  EP  OW  HW  HW  EP  OW  HW  
HW  EP  OW  HW  HW  EP  OW  HW  HW  EP  OW  HW  HW  EP  OW  HW  HW  EP  OW  HW  
HW  EP  OW  HW  HW  EP  OW  HW  HW  EP  OW  HW  HW  EP  OW  HW  HW  EP  OW  HW  
HW  EP  OW  HW  HW  EP  OW  HW  HW  EP  OW  HW  HW  EP  OW  HW  HW  EP  OW  HW  
HW  EP  OW  HW  HW  EP  OW  HW  HW  EP  OW  HW  HW  EP  OW  HW  HW  EP  OW  HW  
HW  EP  OW  HW  HW  EP  OW  HW  HW  EP  OW  HW  HW  EP  OW  HW  HW  EP  OW  HW  
HW  EP  OW  HW  HW  EP  OW  HW  HW  EP  OW  HW  HW  EP  OW  HW  HW  EP  OW  HW  
HW  EP  OW  HW  HW  EP  OW  HW  HW  EP  OW  HW  HW  EP  OW  HW  HW  EP  OW  HW  
HW  EP  OW  HW  HW  EP  OW  HW  HW  EP  OW  HW  HW  EP  OW  HW  HW  EP  OW  HW  
HW  EP  OW  HW  HW  EP  OW  HW  HW  EP  OW  HW  HW  EP  OW  HW  HW  EP  OW  HW  
HW  EP  OW  HW  HW  EP  OW  HW  HW  EP  OW  HW  HW  EP  OW  HW  HW  EP  OW  HW  
HW  EP  OW  HW  HW  EP  OW  HW  HW  EP  OW  HW  HW  EP  OW  HW  HW  EP  OW  HW  
HW  EP  OW  HW  HW  EP  OW  HW  HW  EP  OW  HW  HW  EP  OW  HW  HW  EP  OW  HW  
HW  EP  OW  HW  HW  EP  OW  HW  HW  EP  OW  HW  HW  EP  OW  HW  HW  EP  OW  HW  
HW  EP  OW  HW  HW  EP  OW  HW  HW  EP  OW  HW  HW  EP  OW  HW  HW  EP  OW  HW  
HW  EP  OW  HW  HW  EP  OW  HW  HW  EP  OW  HW  HW  EP  OW  HW  HW  EP  OW  HW  
HW  EP  OW  HW  HW  EP  OW  HW  HW  EP  OW  HW  HW  EP  OW  HW  HW  EP  OW  HW  
HW  EP  OW  HW  HW  EP  OW  HW  HW  EP  OW  HW  HW  EP  OW  HW  HW  EP  OW  HW  
HW  EP  OW  HW  HW  EP  OW  HW  HW  EP  OW  HW  HW  EP  OW  HW  HW  EP  OW  HW  
HW  EP  OW  HW  HW  EP  OW  HW  HW  EP  OW  HW  HW  EP  OW  HW  HW  EP  OW  HW  
HW  EP  OW  HW  HW  EP  OW  HW  HW  EP  OW  HW  HW  EP  OW  HW  HW  EP  OW  HW  
HW  EP  OW  HW  HW  EP  OW  HW  HW  EP  OW  HW  HW  EP  OW  HW  HW  EP  OW  HW  
HW  EP  OW  HW  HW  EP  OW  HW  HW  EP  OW  HW  HW  EP  OW  HW  HW  EP  OW  HW  
HW  EP  OW  HW  HW  EP  OW  HW  HW  EP  OW  HW  HW  EP  OW  HW  HW  EP  OW  HW  
HW  EP  OW  HW  HW  EP  OW  HW  HW  EP  OW  HW  HW  EP  OW  HW  HW  EP  OW  HW  
HW  EP  OW  HW  HW  EP  OW  HW  HW  EP  OW  HW  HW  EP  OW  HW  HW  EP  OW  HW  
HW  EP  OW  HW  HW  EP  OW  HW  HW  EP  OW  HW  HW  EP  OW  HW  HW  EP  OW  HW  
HW  EP  OW  HW  HW  EP  OW  HW  HW  EP  OW  HW  HW  EP  OW  HW  HW  EP  OW  HW  
HW  EP  OW  HW  HW  EP  OW  HW  HW  EP  OW  HW  HW  EP  OW  HW  HW  EP  OW  HW  
HW  EP  OW  HW  HW  EP  OW  HW  HW  EP  OW  HW  HW  EP  OW  HW  HW  EP  OW  HW  
HW  EP  OW  HW  HW  EP  OW  HW  HW  EP  OW  HW  HW  EP  OW  HW  HW  EP  OW  HW  
HW  EP  OW  HW  HW  EP  OW  HW  HW  EP  OW  HW  HW  EP  OW  HW  HW  EP  OW  HW  
HW  EP  OW  HW  HW  EP  OW  HW  HW  EP  OW  HW  HW  EP  OW  HW  HW  EP  OW  HW  
HW  EP  OW  HW  HW  EP  OW  HW  HW  EP  OW  HW  HW  EP  OW  HW  HW  EP  OW  HW  
HW  EP  OW  HW  HW  EP  OW  HW  HW  EP  OW  HW  HW  EP  OW  HW  HW  EP  OW  HW  
HW  EP  OW  HW  HW  EP  OW  HW  HW  EP  OW  HW  HW  EP  OW  HW  HW  EP  OW  HW  
HW  EP  OW  HW  HW  EP  OW  HW  HW  EP  OW  HW  HW  EP  OW  HW  HW  EP  OW  HW  
HW  EP  OW  HW  HW  EP  OW  HW  HW  EP  OW  HW  HW  EP  OW  HW  HW  EP  OW  HW  
HW  EP  OW  HW  HW  EP  OW  HW  HW  EP  OW  HW  HW  EP  OW  HW  HW  EP  OW  HW  
HW  EP  OW  HW  HW  EP  OW  HW  HW  EP  OW  HW  HW  EP  OW  HW  HW  EP  OW  HW  
HW  EP  OW  HW  HW  EP  OW  HW  HW  EP  OW  HW  HW  EP  OW  HW  HW  EP  OW  HW  
HW  EP  OW  HW  HW  EP  OW  HW  HW  EP  OW  HW  HW  EP  OW  HW  HW  EP  OW  HW  
HW  EP  OW  HW  HW  EP  OW  HW  HW  EP  OW  HW  HW  EP  OW  HW  HW  EP  OW  HW  
HW  EP  OW  HW  HW  EP  OW  HW  HW  EP  OW  HW  HW  EP  OW  HW  HW  EP  OW  HW  
HW  EP  OW  HW  HW  EP  OW  HW  HW  EP  OW  HW  HW  EP  OW  HW  HW  EP  OW  HW  
HW  EP  OW  HW  HW  EP  OW  HW  HW  EP  OW  HW  HW  EP  OW  HW  HW  EP  OW  HW  
HW  EP  OW  HW  HW  EP  OW  HW  HW  EP  OW  HW  HW  EP  OW  HW  HW  EP  OW  HW  
HW  EP  OW  HW  HW  EP  OW  HW  HW  EP  OW  HW  HW  EP  OW  HW  HW  EP  OW  HW  
HW  EP  OW  HW  HW  EP  OW  HW  HW  EP  OW  HW  HW  EP  OW  HW  HW  EP  OW  HW  
HW  EP  OW  HW  HW  EP  OW  HW  HW  EP  OW  HW  HW  EP  OW  HW  HW  EP  OW  HW  
HW  EP  OW  HW  HW  EP  OW  HW  HW  EP  OW  HW  HW  EP  OW  HW  HW  EP  OW  HW  
HW  EP  OW  HW  HW  EP  OW  HW  HW  EP  OW  HW  HW  EP  OW  HW  HW  EP  OW  HW  
HW  EP  OW  HW  HW  EP  OW  HW  HW  EP  OW  HW  HW  EP  OW  HW  HW  EP  OW  HW  
HW  EP  OW  HW  HW  EP  OW  HW  HW  EP  OW  HW  HW  EP  OW  HW  HW  EP  OW  HW  
HW  EP  OW  HW  HW  EP  OW  HW  HW  EP  OW  HW  HW  EP  OW  HW  HW  EP  OW  HW  
HW  EP  OW  HW  HW  EP  OW  HW  HW  EP  OW  HW  HW  EP  OW  HW  HW  EP  OW  HW  
HW  EP  OW  HW  HW  EP  OW  HW  HW  EP  OW  HW  HW  EP  OW  HW  HW  EP  OW  HW  
HW  EP  OW  HW  HW  EP  OW  HW  HW  EP  OW  HW  HW  EP  OW  HW  HW  EP  OW  HW  
HW  EP  OW  HW  HW  EP  OW  HW  HW  EP  OW  HW  HW  EP  OW  HW  HW  EP  OW  HW  
HW  EP  OW  HW  HW  EP  OW  HW  HW  EP  OW  HW  HW  EP  OW  HW  HW  EP  OW  HW  
HW  EP  OW  HW  HW  EP  OW  HW  HW  EP  OW  HW  HW  EP  OW  HW  HW  EP  OW  HW  
HW  EP  OW  HW  HW  EP  OW  HW  HW  EP  OW  HW  HW  EP  OW  HW  HW  EP  OW  HW  
HW  EP  OW  HW  HW  EP  OW  HW  HW  EP  OW  HW  HW  EP  OW  HW  HW  EP  OW  HW  
HW  EP  OW  HW  HW  EP  OW  HW  HW  EP  OW  HW  HW  EP  OW  HW  HW  EP  OW  HW  
HW  EP  OW  HW  HW  EP  OW  HW  HW  EP  OW  HW  HW  EP  OW  HW  HW  EP  OW  HW  
HW  EP  OW  HW  HW  EP  OW  HW  HW  EP  OW  HW  HW  EP  OW  HW  HW  EP  OW  HW  
HW  EP  OW  HW  HW  EP  OW  HW  HW  EP  OW  HW  HW  EP  OW  HW  HW  EP  OW  HW  
HW  EP  OW  HW  HW  EP  OW  HW  HW  EP  OW  HW  HW  EP  OW  HW  HW  EP  OW  HW  
HW  EP  OW  HW  HW  EP  OW  HW  HW  EP  OW  HW  HW  EP  OW  HW  HW  EP  OW  HW  
HW  EP  OW  HW  HW  EP  OW  HW  HW  EP  OW  HW  HW  EP  OW  HW  HW  EP  OW  HW  
HW  EP  OW  HW  HW  EP  OW  HW  HW  EP  OW  HW  HW  EP  OW  HW  HW  EP  OW  HW  
HW  EP  OW  HW  HW  EP  OW  HW  HW  EP  OW  HW  HW  EP  OW  HW  HW  EP  OW  HW  
HW  EP  OW  HW  HW  EP  OW  HW  HW  EP  OW  HW  HW  EP  OW  HW  HW  EP  OW  HW  
HW  EP  OW  HW  HW  EP  OW  HW  HW  EP  OW  HW  HW  EP  OW  HW  HW  EP  OW  HW  
HW  EP  OW  HW  HW  EP  OW  HW  HW  EP  OW  HW  HW  EP  OW  HW  HW  EP  OW  HW  
HW  EP  OW  HW  HW  EP  OW  HW  HW  EP  OW  HW  HW  EP  OW  HW  HW  EP  OW  HW  
HW  EP  OW  HW  HW  EP  OW  HW  HW  EP  OW  HW  HW  EP  OW  HW  HW  EP  OW  HW  
HW  EP  OW  HW  HW  EP  OW  HW  HW  EP  OW  HW  HW  EP  OW  HW  HW  EP  OW  HW  
HW  EP  OW  HW  HW  EP  OW  HW  HW  EP  OW  HW  HW  EP  OW  HW  HW  EP  OW  HW  
HW  EP  OW  HW  HW  EP  OW  HW  HW  EP  OW  HW  HW  EP  OW  HW  HW  EP  OW  HW  
HW  EP  OW  HW  HW  EP  OW  HW  HW  EP  OW  HW  HW  EP  OW  HW  HW  EP  OW  HW  
HW  EP  OW  HW  HW  EP  OW  HW  HW  EP  OW  HW  HW  EP  OW  HW  HW  EP  OW  HW  
HW  EP  OW  HW  HW  EP  OW  HW  HW  EP  OW  HW  HW  EP  OW  HW  HW  EP  OW  HW  
HW  EP  OW  HW  HW  EP  OW  HW  HW  EP  OW  HW  HW  EP  OW  HW  HW  EP  OW  HW  
HW  EP  OW  HW  HW  EP  OW  HW  HW  EP  OW  HW  HW  EP  OW  HW  HW  EP  OW  HW  
HW  EP  OW  HW  HW  EP  OW  HW  HW  EP  OW  HW  HW  EP  OW  HW  HW  EP  OW  HW  
HW  EP  OW  HW  HW  EP  OW  HW  HW  EP  OW  HW  HW  EP  OW  HW  HW  EP  OW  HW  
HW  EP  OW  HW  HW  EP  OW  HW  HW  EP  OW  HW  HW  EP  OW  HW  HW  EP  OW  HW  
HW  EP  OW  HW  HW  EP  OW  HW  HW  EP  OW  HW  HW  EP  OW  HW  HW  EP  OW  HW  
HW  EP  OW  HW  HW  EP  OW  HW  HW  EP  OW  HW  HW  EP  OW  HW  HW  EP  OW  HW  
HW  EP  OW  HW  HW  EP  OW  HW  HW  EP  OW  HW  HW  EP  OW  HW  HW  EP  OW  HW  
HW  EP  OW  HW  HW  EP  OW  HW  HW  EP  OW  HW  HW  EP  OW  HW  HW  EP  OW  HW  
HW  EP  OW  HW  HW  EP  OW  HW  HW  EP  OW  HW  HW  EP  OW  HW  HW  EP  OW  HW  
HW  EP  OW  HW  HW  EP  OW  HW  HW  EP  OW  HW  HW  EP  OW  HW  HW  EP  OW  HW  
HW  EP  OW  HW  HW  EP  OW  HW  HW  EP  OW  HW  HW  EP  OW  HW  HW  EP  OW  HW  
HW  EP  OW  HW  HW  EP  OW  HW  HW  EP  OW  HW  HW  EP  OW  HW  HW  EP  OW  HW  
HW  EP  OW  HW  HW  EP  OW  HW  HW  EP  OW  HW  HW  EP  OW  HW  HW  EP  OW  HW  
HW  EP  OW  HW  HW  EP  OW  HW  HW  EP  OW  HW  HW  EP  OW  HW  HW  EP  OW  HW  
HW  EP  OW  HW  HW  EP  OW  HW  HW  EP  OW  HW  HW  EP  OW  HW  HW  EP  OW  HW  
HW  EP  OW  HW  HW  EP  OW  HW  HW  EP  OW  HW  HW  EP  OW  HW  HW  EP  OW  HW  
HW  EP  OW  HW  HW  EP  OW  HW  HW  EP  OW  HW  HW  EP  OW  HW  HW  EP  OW  HW  
HW  EP  OW  HW  HW  EP  OW  HW  HW  EP  OW  HW  HW  EP  OW  HW  HW  EP  OW  HW  
HW  EP  OW  HW  HW  EP  OW  HW  HW  EP  OW  HW  HW  EP  OW  HW  HW  EP  OW  HW  
HW  EP  OW  HW  HW  EP  OW  HW  HW  EP  OW  HW  HW  EP  OW  HW  HW  EP  OW  HW  
HW  EP  OW  HW  HW  EP  OW  HW  HW  EP  OW  HW  HW  EP  OW  HW  HW  EP  OW  HW  
HW  EP  OW  HW  HW  EP  OW  HW  HW  EP  OW  HW  HW  EP  OW  HW  HW  EP  OW  HW  
HW  EP  OW  HW  HW  EP  OW  HW  HW  EP  OW  HW  HW  EP  OW  HW  HW  EP  OW  HW  
HW  EP  OW  HW  HW  EP  OW  HW  HW  EP  OW  HW  HW  EP  OW  HW  HW  EP  OW  HW  
HW  EP  OW  HW  HW  EP  OW  HW  HW  EP  OW  HW  HW  EP  OW  HW  HW  EP  OW  HW  
HW  EP  OW  HW  HW  EP  OW  HW  HW  EP  OW  HW  HW  EP  OW  HW  HW  EP  OW  HW  
HW  EP  OW  HW  HW  EP  OW  HW  HW  EP  OW  HW  HW  EP  OW  HW  HW  EP  OW  HW  
HW  EP  OW  HW  HW  EP  OW  HW  HW  EP  OW  HW  HW  EP  OW  HW  HW  EP  OW  HW  
HW  EP  OW  HW  HW  EP  OW  HW  HW  EP  OW  HW  HW  EP  OW  HW  HW  EP  OW  HW  
HW  EP  OW  HW  HW  EP  OW  HW  HW  EP  OW  HW  HW  EP  OW  HW  HW  EP  OW  HW  
HW  EP  OW  HW  HW  EP  OW  HW  HW  EP  OW  HW  HW  EP  OW  HW  HW  EP  OW  HW  
HW  EP  OW  HW  HW  EP  OW  HW  HW  EP  OW  HW  HW  EP  OW  HW  HW  EP  OW  HW  
HW  EP  OW  HW  HW  EP  OW  HW  HW  EP  OW  HW  HW  EP  OW  HW  HW  EP  OW  HW  
HW  EP  OW  HW  HW  EP  OW  HW  HW  EP  OW  HW  HW  EP  OW  HW  HW  EP  OW  HW  
HW  EP  OW  HW  HW  EP  OW  HW  HW  EP  OW  HW  HW  EP  OW  HW  HW  EP  OW  HW  
HW  EP  OW  HW  HW  EP  OW  HW  HW  EP  OW  HW  HW  EP  OW  HW  HW  EP  OW  HW  
HW  EP  OW  HW  HW  EP  OW  HW  HW  EP  OW  HW  HW  EP  OW  HW  HW  EP  OW  HW  
HW  EP  OW  HW  HW  EP  OW  HW  HW  EP  OW  HW  HW  EP  OW  HW  HW  EP  OW  HW  
HW  EP  OW  HW  HW  EP  OW  HW  HW  EP  OW  HW  HW  EP  OW  HW  HW  EP  OW  HW  
HW  EP  OW  HW  HW  EP  OW  HW  HW  EP  OW  HW  HW  EP  OW  HW  HW  EP  OW  HW  
HW  EP  OW  HW  HW  EP  OW  HW  HW  EP  OW  HW  HW  EP  OW  HW  HW  EP  OW  HW  
HW  EP  OW  HW  HW  EP  OW  HW  HW  EP  OW  HW  HW  EP  OW  HW  HW  EP  OW  HW  
HW  EP  OW  HW  HW  EP  OW  HW  HW  EP  OW  HW  HW  EP  OW  HW  HW  EP  OW  HW  
HW  EP  OW  HW  HW  EP  OW  HW  HW  EP  OW  HW  HW  EP  OW  HW  HW  EP  OW  HW  
HW  EP  OW  HW  HW  EP  OW  HW  HW  EP  OW  HW  HW  EP  OW  HW  HW  EP  OW  HW  
HW  EP  OW  HW  HW  EP  OW  HW  HW  EP  OW  HW  HW  EP  OW  HW  HW  EP  OW  HW  
HW  EP  OW  HW  HW  EP  OW  HW  HW  EP  OW  HW  HW  EP  OW  HW  HW  EP  OW  HW  
HW  EP  OW  HW  HW  EP  OW  HW  HW  EP  OW  HW  HW  EP  OW  HW  HW  EP  OW  HW  
HW  EP  OW  HW  HW  EP  OW  HW  HW  EP  OW  HW  HW  EP  OW  HW  HW  EP  OW  HW  
HW  EP  OW  HW  HW  EP  OW  HW  HW  EP  OW  HW  HW  EP  OW  HW  HW  EP  OW  HW  
HW  EP  OW  HW  HW  EP  OW  HW  HW  EP  OW  HW  HW  EP  OW  HW  HW  EP  OW  HW  
HW  EP  OW  HW  HW  EP  OW  HW  HW  EP  OW  HW  HW  EP  OW  HW  HW  EP  OW  HW  
HW  EP  OW  HW  HW  EP  OW  HW  HW  EP  OW  HW  HW  EP  OW  HW  HW  EP  OW  HW  
HW  EP  OW  HW  HW  EP  OW  HW  HW  EP  OW  HW  HW  EP  OW  HW  HW  EP  OW  HW  
HW  EP  OW  HW  HW  EP  OW  HW  HW  EP  OW  HW  HW  EP  OW  HW  HW  EP  OW  HW  
HW  EP  OW  HW  HW  EP  OW  HW  HW  EP  OW  HW  HW  EP  OW  HW  HW  EP  OW  HW  
HW  EP  OW  HW  HW  EP  OW  HW  HW  EP  OW  HW  HW  EP  OW  HW  HW  EP  OW  HW  
HW  EP  OW  HW  HW  EP  OW  HW  HW  EP  OW  HW  HW  EP  OW  HW  HW  EP  OW  HW  
HW  EP  OW  HW  HW  EP  OW  HW  HW  EP  OW  HW  HW  EP  OW  HW  HW  EP  OW  HW  
HW  EP  OW  HW  HW  EP  OW  HW  HW  EP  OW  HW  HW  EP  OW  HW  HW  EP  OW  HW  
HW  EP  OW  HW  HW  EP  OW  HW  HW  EP  OW  HW  HW  EP  OW  HW  HW  EP  OW  HW  
HW  EP  OW  HW  HW  EP  OW  HW  HW  EP  OW  HW  HW  EP  OW  HW  HW  EP  OW  HW  
HW  EP  OW  HW  HW  EP  OW  HW  HW  EP  OW  HW  HW  EP  OW  HW  HW  EP  OW  HW  
HW  EP  OW  HW  HW  EP  OW  HW  HW  EP  OW  HW  HW  EP  OW  HW  HW  EP  OW  HW  
HW  EP  OW  HW  HW  EP  OW  HW  HW  EP  OW  HW  HW  EP  OW  HW  HW  EP  OW  HW  
HW  EP  OW  HW  HW  EP  OW  HW  HW  EP  OW  HW  HW  EP  OW  HW  HW  EP  OW  HW  
HW  EP  OW  HW  HW  EP  OW  HW  HW  EP  OW  HW  HW  EP  OW  HW  HW  EP  OW  HW  
HW  EP  
%FLAG TREE_CHAIN_CLASSIFICATION                                                 
%FORMAT(20a4)                                                                   
M   M   E   E   M   E   M   E   M   E   3   E   E   B   B   E   B   E   B   S   
E   S   E   S   E   M   E   M   E   M   E   3   E   E   E   M   E   M   E   M   
E   E   M   E   M   E   M   E   3   E   E   B   B   E   B   E   B   E   S   E   
S   E   M   E   M   E   M   E   E   E   M   S   E   E   M   S   E   E   M   S   
E   E   M   S   E   E   M   S   E   E   M   S   E   E   M   S   E   E   M   S   
E   E   M   S   E   E   M   S   E   E   M   S   E   E   M   S   E   E   M   S   
E   E   M   S   E   E   M   S   E   E   M   S   E   E   M   S   E   E   M   S   
E   E   M   S   E   E   M   S   E   E   M   S   E   E   M   S   E   E   M   S   
E   E   M   S   E   E   M   S   E   E   M   S   E   E   M   S   E   E   M   S   
E   E   M   S   E   E   M   S   E   E   M   S   E   E   M   S   E   E   M   S   
E   E   M   S   E   E   M   S   E   E   M   S   E   E   M   S   E   E   M   S   
E   E   M   S   E   E   M   S   E   E   M   S   E   E   M   S   E   E   M   S   
E   E   M   S   E   E   M   S   E   E   M   S   E   E   M   S   E   E   M   S   
E   E   M   S   E   E   M   S   E   E   M   S   E   E   M   S   E   E   M   S   
E   E   M   S   E   E   M   S   E   E   M   S   E   E   M   S   E   E   M   S   
E   E   M   S   E   E   M   S   E   E   M   S   E   E   M   S   E   E   M   S   
E   E   M   S   E   E   M   S   E   E   M   S   E   E   M   S   E   E   M   S   
E   E   M   S   E   E   M   S   E   E   M   S   E   E   M   S   E   E   M   S   
E   E   M   S   E   E   M   S   E   E   M   S   E   E   M   S   E   E   M   S   
E   E   M   S   E   E   M   S   E   E   M   S   E   E   M   S   E   E   M   S   
E   E   M   S   E   E   M   S   E   E   M   S   E   E   M   S   E   E   M   S   
E   E   M   S   E   E   M   S   E   E   M   S   E   E   M   S   E   E   M   S   
E   E   M   S   E   E   M   S   E   E   M   S   E   E   M   S   E   E   M   S   
E   E   M   S   E   E   M   S   E   E   M   S   E   E   M   S   E   E   M   S   
E   E   M   S   E   E   M   S   E   E   M   S   E   E   M   S   E   E   M   S   
E   E   M   S   E   E   M   S   E   E   M   S   E   E   M   S   E   E   M   S   
E   E   M   S   E   E   M   S   E   E   M   S   E   E   M   S   E   E   M   S   
E   E   M   S   E   E   M   S   E   E   M   S   E   E   M   S   E   E   M   S   
E   E   M   S   E   E   M   S   E   E   M   S   E   E   M   S   E   E   M   S   
E   E   M   S   E   E   M   S   E   E   M   S   E   E   M   S   E   E   M   S   
E   E   M   S   E   E   M   S   E   E   M   S   E   E   M   S   E   E   M   S   
E   E   M   S   E   E   M   S   E   E   M   S   E   E   M   S   E   E   M   S   
E   E   M   S   E   E   M   S   E   E   M   S   E   E   M   S   E   E   M   S   
E   E   M   S   E   E   M   S   E   E   M   S   E   E   M   S   E   E   M   S   
E   E   M   S   E   E   M   S   E   E   M   S   E   E   M   S   E   E   M   S   
E   E   M   S   E   E   M   S   E   E   M   S   E   E   M   S   E   E   M   S   
E   E   M   S   E   E   M   S   E   E   M   S   E   E   M   S   E   E   M   S   
E   E   M   S   E   E   M   S   E   E   M   S   E   E   M   S   E   E   M   S   
E   E   M   S   E   E   M   S   E   E   M   S   E   E   M   S   E   E   M   S   
E   E   M   S   E   E   M   S   E   E   M   S   E   E   M   S   E   E   M   S   
E   E   M   S   E   E   M   S   E   E   M   S   E   E   M   S   E   E   M   S   
E   E   M   S   E   E   M   S   E   E   M   S   E   E   M   S   E   E   M   S   
E   E   M   S   E   E   M   S   E   E   M   S   E   E   M   S   E   E   M   S   
E   E   M   S   E   E   M   S   E   E   M   S   E   E   M   S   E   E   M   S   
E   E   M   S   E   E   M   S   E   E   M   S   E   E   M   S   E   E   M   S   
E   E   M   S   E   E   M   S   E   E   M   S   E   E   M   S   E   E   M   S   
E   E   M   S   E   E   M   S   E   E   M   S   E   E   M   S   E   E   M   S   
E   E   M   S   E   E   M   S   E   E   M   S   E   E   M   S   E   E   M   S   
E   E   M   S   E   E   M   S   E   E   M   S   E   E   M   S   E   E   M   S   
E   E   M   S   E   E   M   S   E   E   M   S   E   E   M   S   E   E   M   S   
E   E   M   S   E   E   M   S   E   E   M   S   E   E   M   S   E   E   M   S   
E   E   M   S   E   E   M   S   E   E   M   S   E   E   M   S   E   E   M   S   
E   E   M   S   E   E   M   S   E   E   M   S   E   E   M   S   E   E   M   S   
E   E   M   S   E   E   M   S   E   E   M   S   E   E   M   S   E   E   M   S   
E   E   M   S   E   E   M   S   E   E   M   S   E   E   M   S   E   E   M   S   
E   E   M   S   E   E   M   S   E   E   M   S   E   E   M   S   E   E   M   S   
E   E   M   S   E   E   M   S   E   E   M   S   E   E   M   S   E   E   M   S   
E   E   M   S   E   E   M   S   E   E   M   S   E   E   M   S   E   E   M   S   
E   E   M   S   E   E   M   S   E   E   M   S   E   E   M   S   E   E   M   S   
E   E   M   S   E   E   M   S   E   E   M   S   E   E   M   S   E   E   M   S   
E   E   M   S   E   E   M   S   E   E   M   S   E   E   M   S   E   E   M   S   
E   E   M   S   E   E   M   S   E   E   M   S   E   E   M   S   E   E   M   S   
E   E   M   S   E   E   M   S   E   E   M   S   E   E   M   S   E   E   M   S   
E   E   M   S   E   E   M   S   E   E   M   S   E   E   M   S   E   E   M   S   
E   E   M   S   E   E   M   S   E   E   M   S   E   E   M   S   E   E   M   S   
E   E   M   S   E   E   M   S   E   E   M   S   E   E   M   S   E   E   M   S   
E   E   M   S   E   E   M   S   E   E   M   S   E   E   M   S   E   E   M   S   
E   E   M   S   E   E   M   S   E   E   M   S   E   E   M   S   E   E   M   S   
E   E   M   S   E   E   M   S   E   E   M   S   E   E   M   S   E   E   M   S   
E   E   M   S   E   E   M   S   E   E   M   S   E   E   M   S   E   E   M   S   
E   E   M   S   E   E   M   S   E   E   M   S   E   E   M   S   E   E   M   S   
E   E   M   S   E   E   M   S   E   E   M   S   E   E   M   S   E   E   M   S   
E   E   M   S   E   E   M   S   E   E   M   S   E   E   M   S   E   E   M   S   
E   E   M   S   E   E   M   S   E   E   M   S   E   E   M   S   E   E   M   S   
E   E   M   S   E   E   M   S   E   E   M   S   E   E   M   S   E   E   M   S   
E   E   M   S   E   E   M   S   E   E   M   S   E   E   M   S   E   E   M   S   
E   E   M   S   E   E   M   S   E   E   M   S   E   E   M   S   E   E   M   S   
E   E   M   S   E   E   M   S   E   E   M   S   E   E   M   S   E   E   M   S   
E   E   M   S   E   E   M   S   E   E   M   S   E   E   M   S   E   E   M   S   
E   E   M   S   E   E   M   S   E   E   M   S   E   E   M   S   E   E   M   S   
E   E   M   S   E   E   M   S   E   E   M   S   E   E   M   S   E   E   M   S   
E   E   M   S   E   E   M   S   E   E   M   S   E   E   M   S   E   E   M   S   
E   E   M   S   E   E   M   S   E   E   M   S   E   E   M   S   E   E   M   S   
E   E   M   S   E   E   M   S   E   E   M   S   E   E   M   S   E   E   M   S   
E   E   M   S   E   E   M   S   E   E   M   S   E   E   M   S   E   E   M   S   
E   E   M   S   E   E   M   S   E   E   M   S   E   E   M   S   E   E   M   S   
E   E   M   S   E   E   M   S   E   E   M   S   E   E   M   S   E   E   M   S   
E   E   M   S   E   E   M   S   E   E   M   S   E   E   M   S   E   E   M   S   
E   E   M   S   E   E   M   S   E   E   M   S   E   E   M   S   E   E   M   S   
E   E   M   S   E   E   M   S   E   E   M   S   E   E   M   S   E   E   M   S   
E   E   M   S   E   E   M   S   E   E   M   S   E   E   M   S   E   E   M   S   
E   E   M   S   E   E   M   S   E   E   M   S   E   E   M   S   E   E   M   S   
E   E   M   S   E   E   M   S   E   E   M   S   E   E   M   S   E   E   M   S   
E   E   M   S   E   E   M   S   E   E   M   S   E   E   M   S   E   E   M   S   
E   E   M   S   E   E   M   S   E   E   M   S   E   E   M   S   E   E   M   S   
E   E   M   S   E   E   M   S   E   E   M   S   E   E   M   S   E   E   M   S   
E   E   M   S   E   E   M   S   E   E   M   S   E   E   M   S   E   E   M   S   
E   E   M   S   E   E   M   S   E   E   M   S   E   E   M   S   E   E   M   S   
E   E   M   S   E   E   M   S   E   E   M   S   E   E   M   S   E   E   M   S   
E   E   M   S   E   E   M   S   E   E   M   S   E   E   M   S   E   E   M   S   
E   E   M   S   E   E   M   S   E   E   M   S   E   E   M   S   E   E   M   S   
E   E   M   S   E   E   M   S   E   E   M   S   E   E   M   S   E   E   M   S   
E   E   M   S   E   E   M   S   E   E   M   S   E   E   M   S   E   E   M   S   
E   E   M   S   E   E   M   S   E   E   M   S   E   E   M   S   E   E   M   S   
E   E   M   S   E   E   M   S   E   E   M   S   E   E   M   S   E   E   M   S   
E   E   M   S   E   E   M   S   E   E   M   S   E   E   M   S   E   E   M   S   
E   E   M   S   E   E   M   S   E   E   M   S   E   E   M   S   E   E   M   S   
E   E   M   S   E   E   M   S   E   E   M   S   E   E   M   S   E   E   M   S   
E   E   M   S   E   E   M   S   E   E   M   S   E   E   M   S   E   E   M   S   
E   E   M   S   E   E   M   S   E   E   M   S   E   E   M   S   E   E   M   S   
E   E   M   S   E   E   M   S   E   E   M   S   E   E   M   S   E   E   M   S   
E   E   M   S   E   E   M   S   E   E   M   S   E   E   M   S   E   E   M   S   
E   E   M   S   E   E   M   S   E   E   M   S   E   E   M   S   E   E   M   S   
E   E   M   S   E   E   M   S   E   E   M   S   E   E   M   S   E   E   M   S   
E   E   M   S   E   E   M   S   E   E   M   S   E   E   M   S   E   E   M   S   
E   E   M   S   E   E   M   S   E   E   M   S   E   E   M   S   E   E   M   S   
E   E   M   S   E   E   M   S   E   E   M   S   E   E   M   S   E   E   M   S   
E   E   M   S   E   E   M   S   E   E   M   S   E   E   M   S   E   E   M   S   
E   E   M   S   E   E   M   S   E   E   M   S   E   E   M   S   E   E   M   S   
E   E   M   S   E   E   M   S   E   E   M   S   E   E   M   S   E   E   M   S   
E   E   M   S   E   E   M   S   E   E   M   S   E   E   M   S   E   E   M   S   
E   E   M   S   E   E   M   S   E   E   M   S   E   E   M   S   E   E   M   S   
E   E   M   S   E   E   M   S   E   E   M   S   E   E   M   S   E   E   M   S   
E   E   M   S   E   E   M   S   E   E   M   S   E   E   M   S   E   E   M   S   
E   E   M   S   E   E   M   S   E   E   M   S   E   E   M   S   E   E   M   S   
E   E   M   S   E   E   M   S   E   E   M   S   E   E   M   S   E   E   M   S   
E   E   M   S   E   E   M   S   E   E   M   S   E   E   M   S   E   E   M   S   
E   E   M   S   E   E   M   S   E   E   M   S   E   E   M   S   E   E   M   S   
E   E   M   S   E   E   M   S   E   E   M   S   E   E   M   S   E   E   M   S   
E   E   M   S   E   E   M   S   E   E   M   S   E   E   M   S   E   E   M   S   
E   E   M   S   E   E   M   S   E   E   M   S   E   E   M   S   E   E   M   S   
E   E   M   S   E   E   M   S   E   E   M   S   E   E   M   S   E   E   M   S   
E   E   M   S   E   E   M   S   E   E   M   S   E   E   M   S   E   E   M   S   
E   E   M   S   E   E   M   S   E   E   M   S   E   E   M   S   E   E   M   S   
E   E   M   S   E   E   M   S   E   E   M   S   E   E   M   S   E   E   M   S   
E   E   M   S   E   E   M   S   E   E   M   S   E   E   M   S   E   E   M   S   
E   E   M   S   E   E   M   S   E   E   M   S   E   E   M   S   E   E   M   S   
E   E   M   S   E   E   M   S   E   E   M   S   E   E   M   S   E   E   M   S   
E   E   M   S   E   E   M   S   E   E   M   S   E   E   M   S   E   E   M   S   
E   E   M   S   E   E   M   S   E   E   M   S   E   E   M   S   E   E   M   S   
E   E   M   S   E   E   M   S   E   E   M   S   E   E   M   S   E   E   M   S   
E   E   M   S   E   E   M   S   E   E   M   S   E   E   M   S   E   E   M   S   
E   E   M   S   E   E   M   S   E   E   M   S   E   E   M   S   E   E   M   S   
E   E   M   S   E   E   M   S   E   E   M   S   E   E   M   S   E   E   M   S   
E   E   M   S   E   E   M   S   E   E   M   S   E   E   M   S   E   E   M   S   
E   E   M   S   E   E   M   S   E   E   M   S   E   E   M   S   E   E   M   S   
E   E   M   S   E   E   M   S   E   E   M   S   E   E   M   S   E   E   M   S   
E   E   M   S   E   E   M   S   E   E   M   S   E   E   M   S   E   E   M   S   
E   E   M   S   E   E   M   S   E   E   M   S   E   E   M   S   E   E   M   S   
E   E   M   S   E   E   M   S   E   E   M   S   E   E   M   S   E   E   M   S   
E   E   M   S   E   E   M   S   E   E   M   S   E   E   M   S   E   E   M   S   
E   E   M   S   E   E   M   S   E   E   M   S   E   E   M   S   E   E   M   S   
E   E   M   S   E   E   M   S   E   E   M   S   E   E   M   S   E   E   M   S   
E   E   M   S   E   E   M   S   E   E   M   S   E   E   M   S   E   E   M   S   
E   E   M   S   E   E   M   S   E   E   M   S   E   E   M   S   E   E   M   S   
E   E   M   S   E   E   M   S   E   E   M   S   E   E   M   S   E   E   M   S   
E   E   M   S   E   E   M   S   E   E   M   S   E   E   M   S   E   E   M   S   
E   E   M   S   E   E   M   S   E   E   M   S   E   E   M   S   E   E   M   S   
E   E   M   S   E   E   M   S   E   E   M   S   E   E   M   S   E   E   M   S   
E   E   M   S   E   E   M   S   E   E   M   S   E   E   M   S   E   E   M   S   
E   E   M   S   E   E   M   S   E   E   M   S   E   E   M   S   E   E   M   S   
E   E   M   S   E   E   M   S   E   E   M   S   E   E   M   S   E   E   M   S   
E   E   M   S   E   E   M   S   E   E   M   S   E   E   M   S   E   E   M   S   
E   E   M   S   E   E   M   S   E   E   M   S   E   E   M   S   E   E   M   S   
E   E   M   S   E   E   M   S   E   E   M   S   E   E   M   S   E   E   M   S   
E   E   M   S   E   E   M   S   E   E   M   S   E   E   M   S   E   E   M   S   
E   E   M   S   E   E   M   S   E   E   M   S   E   E   M   S   E   E   M   S   
E   E   M   S   E   E   M   S   E   E   M   S   E   E   M   S   E   E   M   S   
E   E   M   S   E   E   M   S   E   E   M   S   E   E   M   S   E   E   M   S   
E   E   M   S   E   E   M   S   E   E   M   S   E   E   M   S   E   E   M   S   
E   E   M   S   E   E   M   S   E   E   M   S   E   E   M   S   E   E   M   S   
E   E   M   S   E   E   M   S   E   E   M   S   E   E   M   S   E   E   M   S   
E   E   M   S   E   E   M   S   E   E   M   S   E   E   M   S   E   E   M   S   
E   E   M   S   E   E   M   S   E   E   M   S   E   E   M   S   E   E   M   S   
E   E   M   S   E   E   M   S   E   E   M   S   E   E   M   S   E   E   M   S   
E   E   M   S   E   E   M   S   E   E   M   S   E   E   M   S   E   E   M   S   
E   E   M   S   E   E   M   S   E   E   M   S   E   E   M   S   E   E   M   S   
E   E   M   S   E   E   M   S   E   E   M   S   E   E   M   S   E   E   M   S   
E   E   M   S   E   E   M   S   E   E   M   S   E   E   M   S   E   E   M   S   
E   E   M   S   E   E   M   S   E   E   M   S   E   E   M   S   E   E   M   S   
E   E   M   S   E   E   M   S   E   E   M   S   E   E   M   S   E   E   M   S   
E   E   M   S   E   E   M   S   E   E   M   S   E   E   M   S   E   E   M   S   
E   E   M   S   E   E   M   S   E   E   M   S   E   E   M   S   E   E   M   S   
E   E   M   S   E   E   M   S   E   E   M   S   E   E   M   S   E   E   M   S   
E   E   M   S   E   E   M   S   E   E   M   S   E   E   M   S   E   E   M   S   
E   E   M   S   E   E   M   S   E   E   M   S   E   E   M   S   E   E   M   S   
E   E   M   S   E   E   M   S   E   E   M   S   E   E   M   S   E   E   M   S   
E   E   M   S   E   E   M   S   E   E   M   S   E   E   M   S   E   E   M   S   
E   E   M   S   E   E   M   S   E   E   M   S   E   E   M   S   E   E   M   S   
E   E   M   S   E   E   M   S   E   E   M   S   E   E   M   S   E   E   M   S   
E   E   M   S   E   E   M   S   E   E   M   S   E   E   M   S   E   E   M   S   
E   E   M   S   E   E   M   S   E   E   M   S   E   E   M   S   E   E   M   S   
E   E   M   S   E   E   M   S   E   E   M   S   E   E   M   S   E   E   M   S   
E   E   M   S   E   E   M   S   E   E   M   S   E   E   M   S   E   E   M   S   
E   E   M   S   E   E   M   S   E   E   M   S   E   E   M   S   E   E   M   S   
E   E   M   S   E   E   M   S   E   E   M   S   E   E   M   S   E   E   M   S   
E   E   M   S   E   E   M   S   E   E   M   S   E   E   M   S   E   E   M   S   
E   E   M   S   E   E   M   S   E   E   M   S   E   E   M   S   E   E   M   S   
E   E   M   S   E   E   M   S   E   E   M   S   E   E   M   S   E   E   M   S   
E   E   M   S   E   E   M   S   E   E   M   S   E   E   M   S   E   E   M   S   
E   E   M   S   E   E   M   S   E   E   M   S   E   E   M   S   E   E   M   S   
E   E   M   S   E   E   M   S   E   E   M   S   E   E   M   S   E   E   M   S   
E   E   M   S   E   E   M   S   E   E   M   S   E   E   M   S   E   E   M   S   
E   E   M   S   E   E   M   S   E   E   M   S   E   E   M   S   E   E   M   S   
E   E   M   S   E   E   M   S   E   E   M   S   E   E   M   S   E   E   M   S   
E   E   M   S   E   E   M   S   E   E   M   S   E   E   M   S   E   E   M   S   
E   E   M   S   E   E   M   S   E   E   M   S   E   E   M   S   E   E   M   S   
E   E   M   S   E   E   M   S   E   E   M   S   E   E   M   S   E   E   M   S   
E   E   M   S   E   E   M   S   E   E   M   S   E   E   M   S   E   E   M   S   
E   E   M   S   E   E   M   S   E   E   M   S   E   E   M   S   E   E   M   S   
E   E   M   S   E   E   M   S   E   E   M   S   E   E   M   S   E   E   M   S   
E   E   M   S   E   E   M   S   E   E   M   S   E   E   M   S   E   E   M   S   
E   E   M   S   E   E   M   S   E   E   M   S   E   E   M   S   E   E   M   S   
E   E   M   S   E   E   M   S   E   E   M   S   E   E   M   S   E   E   M   S   
E   E   M   S   E   E   M   S   E   E   M   S   E   E   M   S   E   E   M   S   
E   E   M   S   E   E   M   S   E   E   M   S   E   E   M   S   E   E   M   S   
E   E   M   S   E   E   M   S   E   E   M   S   E   E   M   S   E   E   M   S   
E   E   M   S   E   E   M   S   E   E   M   S   E   E   M   S   E   E   M   S   
E   E   M   S   E   E   M   S   E   E   M   S   E   E   M   S   E   E   M   S   
E   E   M   S   E   E   M   S   E   E   M   S   E   E   M   S   E   E   M   S   
E   E   M   S   E   E   M   S   E   E   M   S   E   E   M   S   E   E   M   S   
E   E   M   S   E   E   M   S   E   E   M   S   E   E   M   S   E   E   M   S   
E   E   M   S   E   E   M   S   E   E   M   S   E   E   M   S   E   E   M   S   
E   E   M   S   E   E   M   S   E   E   M   S   E   E   M   S   E   E   M   S   
E   E   M   S   E   E   M   S   E   E   M   S   E   E   M   S   E   E   M   S   
E   E   M   S   E   E   M   S   E   E   M   S   E   E   M   S   E   E   M   S   
E   E   M   S   E   E   M   S   E   E   M   S   E   E   M   S   E   E   M   S   
E   E   M   S   E   E   M   S   E   E   M   S   E   E   M   S   E   E   M   S   
E   E   M   S   E   E   M   S   E   E   M   S   E   E   M   S   E   E   M   S   
E   E   M   S   E   E   M   S   E   E   M   S   E   E   M   S   E   E   M   S   
E   E   M   S   E   E   M   S   E   E   M   S   E   E   M   S   E   E   M   S   
E   E   M   S   E   E   M   S   E   E   M   S   E   E   M   S   E   E   M   S   
E   E   M   S   E   E   M   S   E   E   M   S   E   E   M   S   E   E   M   S   
E   E   M   S   E   E   M   S   E   E   M   S   E   E   M   S   E   E   M   S   
E   E   M   S   E   E   M   S   E   E   M   S   E   E   M   S   E   E   M   S   
E   E   M   S   E   E   M   S   E   E   M   S   E   E   M   S   E   E   M   S   
E   E   M   S   E   E   M   S   E   E   M   S   E   E   M   S   E   E   M   S   
E   E   M   S   E   E   M   S   E   E   M   S   E   E   M   S   E   E   M   S   
E   E   M   S   E   E   M   S   E   E   M   S   E   E   M   S   E   E   M   S   
E   E   M   S   E   E   M   S   E   E   M   S   E   E   M   S   E   E   M   S   
E   E   M   S   E   E   M   S   E   E   M   S   E   E   M   S   E   E   M   S   
E   E   M   S   E   E   M   S   E   E   M   S   E   E   M   S   E   E   M   S   
E   E   M   S   E   E   M   S   E   E   M   S   E   E   M   S   E   E   M   S   
E   E   M   S   E   E   M   S   E   E   M   S   E   E   M   S   E   E   M   S   
E   E   M   S   E   E   M   S   E   E   M   S   E   E   M   S   E   E   M   S   
E   E   M   S   E   E   M   S   E   E   M   S   E   E   M   S   E   E   M   S   
E   E   M   S   E   E   M   S   E   E   M   S   E   E   M   S   E   E   M   S   
E   E   M   S   E   E   M   S   E   E   M   S   E   E   M   S   E   E   M   S   
E   E   M   S   E   E   M   S   E   E   M   S   E   E   M   S   E   E   M   S   
E   E   M   S   E   E   M   S   E   E   M   S   E   E   M   S   E   E   M   S   
E   E   M   S   E   E   M   S   E   E   M   S   E   E   M   S   E   E   M   S   
E   E   M   S   E   E   M   S   E   E   M   S   E   E   M   S   E   E   M   S   
E   E   M   S   E   E   M   S   E   E   M   S   E   E   M   S   E   E   M   S   
E   E   M   S   E   E   M   S   E   E   M   S   E   E   M   S   E   E   M   S   
E   E   M   S   E   E   M   S   E   E   M   S   E   E   M   S   E   E   M   S   
E   E   M   S   E   E   M   S   E   E   M   S   E   E   M   S   E   E   M   S   
E   E   M   S   E   E   M   S   E   E   M   S   E   E   M   S   E   E   M   S   
E   E   M   S   E   E   M   S   E   E   M   S   E   E   M   S   E   E   M   S   
E   E   M   S   E   E   M   S   E   E   M   S   E   E   M   S   E   E   M   S   
E   E   M   S   E   E   M   S   E   E   M   S   E   E   M   S   E   E   M   S   
E   E   M   S   E   E   M   S   E   E   M   S   E   E   M   S   E   E   M   S   
E   E   M   S   E   E   M   S   E   E   M   S   E   E   M   S   E   E   M   S   
E   E   M   S   E   E   M   S   E   E   M   S   E   E   M   S   E   E   M   S   
E   E   M   S   E   E   M   S   E   E   M   S   E   E   M   S   E   E   M   S   
E   E   M   S   E   E   M   S   E   E   M   S   E   E   M   S   E   E   M   S   
E   E   M   S   E   E   M   S   E   E   M   S   E   E   M   S   E   E   M   S   
E   E   M   S   E   E   M   S   E   E   M   S   E   E   M   S   E   E   M   S   
E   E   M   S   E   E   M   S   E   E   M   S   E   E   M   S   E   E   M   S   
E   E   M   S   E   E   M   S   E   E   M   S   E   E   M   S   E   E   M   S   
E   E   M   S   E   E   M   S   E   E   M   S   E   E   M   S   E   E   M   S   
E   E   M   S   E   E   M   S   E   E   M   S   E   E   M   S   E   E   M   S   
E   E   M   S   E   E   M   S   E   E   M   S   E   E   M   S   E   E   M   S   
E   E   M   S   E   E   M   S   E   E   M   S   E   E   M   S   E   E   M   S   
E   E   M   S   E   E   M   S   E   E   M   S   E   E   M   S   E   E   M   S   
E   E   M   S   E   E   M   S   E   E   M   S   E   E   M   S   E   E   M   S   
E   E   M   S   E   E   M   S   E   E   M   S   E   E   M   S   E   E   M   S   
E   E   M   S   E   E   M   S   E   E   M   S   E   E   M   S   E   E   M   S   
E   E   M   S   E   E   M   S   E   E   M   S   E   E   M   S   E   E   M   S   
E   E   M   S   E   E   M   S   E   E   M   S   E   E   M   S   E   E   M   S   
E   E   M   S   E   E   M   S   E   E   M   S   E   E   M   S   E   E   M   S   
E   E   M   S   E   E   M   S   E   E   M   S   E   E   M   S   E   E   M   S   
E   E   M   S   E   E   M   S   E   E   M   S   E   E   M   S   E   E   M   S   
E   E   M   S   E   E   M   S   E   E   M   S   E   E   M   S   E   E   M   S   
E   E   M   S   E   E   M   S   E   E   M   S   E   E   M   S   E   E   M   S   
E   E   M   S   E   E   M   S   E   E   M   S   E   E   M   S   E   E   M   S   
E   E   M   S   E   E   M   S   E   E   M   S   E   E   M   S   E   E   M   S   
E   E   M   S   E   E   M   S   E   E   M   S   E   E   M   S   E   E   M   S   
E   E   M   S   E   E   M   S   E   E   M   S   E   E   M   S   E   E   M   S   
E   E   M   S   E   E   M   S   E   E   M   S   E   E   M   S   E   E   M   S   
E   E   M   S   E   E   M   S   E   E   M   S   E   E   M   S   E   E   M   S   
E   E   M   S   E   E   M   S   E   E   M   S   E   E   M   S   E   E   M   S   
E   E   M   S   E   E   M   S   E   E   M   S   E   E   M   S   E   E   M   S   
E   E   M   S   E   E   M   S   E   E   M   S   E   E   M   S   E   E   M   S   
E   E   M   S   E   E   M   S   E   E   M   S   E   E   M   S   E   E   M   S   
E   E   M   S   E   E   M   S   E   E   M   S   E   E   M   S   E   E   M   S   
E   E   M   S   E   E   M   S   E   E   M   S   E   E   M   S   E   E   M   S   
E   E   M   S   E   E   M   S   E   E   M   S   E   E   M   S   E   E   M   S   
E   E   M   S   E   E   M   S   E   E   M   S   E   E   M   S   E   E   M   S   
E   E   M   S   E   E   M   S   E   E   M   S   E   E   M   S   E   E   M   S   
E   E   M   S   E   E   M   S   E   E   M   S   E   E   M   S   E   E   M   S   
E   E   M   S   E   E   M   S   E   E   M   S   E   E   M   S   E   E   M   S   
E   E   M   S   E   E   M   S   E   E   M   S   E   E   M   S   E   E   M   S   
E   E   M   S   E   E   M   S   E   E   M   S   E   E   M   S   E   E   M   S   
E   E   M   S   E   E   M   S   E   E   M   S   E   E   M   S   E   E   M   S   
E   E   M   S   E   E   M   S   E   E   M   S   E   E   M   S   E   E   M   S   
E   E   M   S   E   E   M   S   E   E   M   S   E   E   M   S   E   E   M   S   
E   E   M   S   E   E   M   S   E   E   M   S   E   E   M   S   E   E   M   S   
E   E   M   S   E   E   M   S   E   E   M   S   E   E   M   S   E   E   M   S   
E   E   M   S   E   E   M   S   E   E   M   S   E   E   M   S   E   E   M   S   
E   E   M   S   E   E   M   S   E   E   M   S   E   E   M   S   E   E   M   S   
E   E   M   S   E   E   M   S   E   E   M   S   E   E   M   S   E   E   M   S   
E   E   M   S   E   E   M   S   E   E   M   S   E   E   M   S   E   E   M   S   
E   E   M   S   E   E   M   S   E   E   M   S   E   E   M   S   E   E   M   S   
E   E   M   S   E   E   M   S   E   E   M   S   E   E   M   S   E   E   M   S   
E   E   M   S   E   E   M   S   E   E   M   S   E   E   M   S   E   E   M   S   
E   E   M   S   E   E   M   S   E   E   M   S   E   E   M   S   E   E   M   S   
E   E   M   S   E   E   M   S   E   E   M   S   E   E   M   S   E   E   M   S   
E   E   M   S   E   E   M   S   E   E   M   S   E   E   M   S   E   E   M   S   
E   E   M   S   E   E   M   S   E   E   M   S   E   E   M   S   E   E   M   S   
E   E   M   S   E   E   M   S   E   E   M   S   E   E   M   S   E   E   M   S   
E   E   M   S   E   E   M   S   E   E   M   S   E   E   M   S   E   E   M   S   
E   E   M   S   E   E   M   S   E   E   M   S   E   E   M   S   E   E   M   S   
E   E   M   S   E   E   M   S   E   E   M   S   E   E   M   S   E   E   M   S   
E   E   M   S   E   E   M   S   E   E   M   S   E   E   M   S   E   E   M   S   
E   E   M   S   E   E   M   S   E   E   M   S   E   E   M   S   E   E   M   S   
E   E   M   S   E   E   M   S   E   E   M   S   E   E   M   S   E   E   M   S   
E   E   M   S   E   E   M   S   E   E   M   S   E   E   M   S   E   E   M   S   
E   E   M   S   E   E   M   S   E   E   M   S   E   E   M   S   E   E   M   S   
E   E   M   S   E   E   M   S   E   E   M   S   E   E   M   S   E   E   M   S   
E   E   M   S   E   E   M   S   E   E   M   S   E   E   M   S   E   E   M   S   
E   E   M   S   E   E   M   S   E   E   M   S   E   E   M   S   E   E   M   S   
E   E   M   S   E   E   M   S   E   E   M   S   E   E   M   S   E   E   M   S   
E   E   M   S   E   E   M   S   E   E   M   S   E   E   M   S   E   E   M   S   
E   E   M   S   E   E   M   S   E   E   M   S   E   E   M   S   E   E   M   S   
E   E   M   S   E   E   M   S   E   E   M   S   E   E   M   S   E   E   M   S   
E   E   M   S   E   E   M   S   E   E   M   S   E   E   M   S   E   E   M   S   
E   E   M   S   E   E   M   S   E   E   M   S   E   E   M   S   E   E   M   S   
E   E   M   S   E   E   M   S   E   E   M   S   E   E   M   S   E   E   M   S   
E   E   M   S   E   E   M   S   E   E   M   S   E   E   M   S   E   E   M   S   
E   E   M   S   E   E   M   S   E   E   M   S   E   E   M   S   E   E   M   S   
E   E   M   S   E   E   M   S   E   E   M   S   E   E   M   S   E   E   M   S   
E   E   M   S   E   E   M   S   E   E   M   S   E   E   M   S   E   E   M   S   
E   E   M   S   E   E   M   S   E   E   M   S   E   E   M   S   E   E   M   S   
E   E   M   S   E   E   M   S   E   E   M   S   E   E   M   S   E   E   M   S   
E   E   M   S   E   E   M   S   E   E   M   S   E   E   M   S   E   E   M   S   
E   E   M   S   E   E   M   S   E   E   M   S   E   E   M   S   E   E   M   S   
E   E   M   S   E   E   M   S   E   E   M   S   E   E   M   S   E   E   M   S   
E   E   M   S   E   E   M   S   E   E   M   S   E   E   M   S   E   E   M   S   
E   E   M   S   E   E   M   S   E   E   M   S   E   E   M   S   E   E   M   S   
E   E   M   S   E   E   M   S   E   E   M   S   E   E   M   S   E   E   M   S   
E   E   M   S   E   E   M   S   E   E   M   S   E   E   M   S   E   E   M   S   
E   E   M   S   E   E   M   S   E   E   M   S   E   E   M   S   E   E   M   S   
E   E   M   S   E   E   M   S   E   E   M   S   E   E   M   S   E   E   M   S   
E   E   M   S   E   E   M   S   E   E   M   S   E   E   M   S   E   E   M   S   
E   E   M   S   E   E   M   S   E   E   M   S   E   E   M   S   E   E   M   S   
E   E   M   S   E   E   M   S   E   E   M   S   E   E   M   S   E   E   M   S   
E   E   M   S   E   E   M   S   E   E   M   S   E   E   M   S   E   E   M   S   
E   E   M   S   E   E   M   S   E   E   M   S   E   E   M   S   E   E   M   S   
E   E   M   S   E   E   M   S   E   E   M   S   E   E   M   S   E   E   M   S   
E   E   M   S   E   E   M   S   E   E   M   S   E   E   M   S   E   E   M   S   
E   E   M   S   E   E   M   S   E   E   M   S   E   E   M   S   E   E   M   S   
E   E   M   S   E   E   M   S   E   E   M   S   E   E   M   S   E   E   M   S   
E   E   M   S   E   E   M   S   E   E   M   S   E   E   M   S   E   E   M   S   
E   E   M   S   E   E   M   S   E   E   M   S   E   E   M   S   E   E   M   S   
E   E   M   S   E   E   M   S   E   E   M   S   E   E   M   S   E   E   M   S   
E   E   M   S   E   E   M   S   E   E   M   S   E   E   M   S   E   E   M   S   
E   E   M   S   E   E   M   S   E   E   M   S   E   E   M   S   E   E   M   S   
E   E   M   S   E   E   M   S   E   E   M   S   E   E   M   S   E   E   M   S   
E   E   M   S   E   E   M   S   E   E   M   S   E   E   M   S   E   E   M   S   
E   E   M   S   E   E   M   S   E   E   M   S   E   E   M   S   E   E   M   S   
E   E   M   S   E   E   M   S   E   E   M   S   E   E   M   S   E   E   M   S   
E   E   M   S   E   E   M   S   E   E   M   S   E   E   M   S   E   E   M   S   
E   E   M   S   E   E   M   S   E   E   M   S   E   E   M   S   E   E   M   S   
E   E   M   S   E   E   M   S   E   E   M   S   E   E   M   S   E   E   M   S   
E   E   M   S   E   E   M   S   E   E   M   S   E   E   M   S   E   E   M   S   
E   E   M   S   E   E   M   S   E   E   M   S   E   E   M   S   E   E   M   S   
E   E   M   S   E   E   M   S   E   E   M   S   E   E   M   S   E   E   M   S   
E   E   M   S   E   E   M   S   E   E   M   S   E   E   M   S   E   E   M   S   
E   E   M   S   E   E   M   S   E   E   M   S   E   E   M   S   E   E   M   S   
E   E   M   S   E   E   M   S   E   E   M   S   E   E   M   S   E   E   M   S   
E   E   M   S   E   E   M   S   E   E   M   S   E   E   M   S   E   E   M   S   
E   E   M   S   E   E   M   S   E   E   M   S   E   E   M   S   E   E   M   S   
E   E   M   S   E   E   M   S   E   E   M   S   E   E   M   S   E   E   M   S   
E   E   M   S   E   E   M   S   E   E   M   S   E   E   M   S   E   E   M   S   
E   E   M   S   E   E   M   S   E   E   M   S   E   E   M   S   E   E   M   S   
E   E   M   S   E   E   M   S   E   E   M   S   E   E   M   S   E   E   M   S   
E   E   M   S   E   E   M   S   E   E   M   S   E   E   M   S   E   E   M   S   
E   E   M   S   E   E   M   S   E   E   M   S   E   E   M   S   E   E   M   S   
E   E   M   S   E   E   M   S   E   E   M   S   E   E   M   S   E   E   M   S   
E   E   M   S   E   E   M   S   E   E   M   S   E   E   M   S   E   E   M   S   
E   E   M   S   E   E   M   S   E   E   M   S   E   E   M   S   E   E   M   S   
E   E   M   S   E   E   M   S   E   E   M   S   E   E   M   S   E   E   M   S   
E   E   M   S   E   E   M   S   E   E   M   S   E   E   M   S   E   E   M   S   
E   E   M   S   E   E   M   S   E   E   M   S   E   E   M   S   E   E   M   S   
E   E   M   S   E   E   M   S   E   E   M   S   E   E   M   S   E   E   M   S   
E   E   M   S   E   E   M   S   E   E   M   S   E   E   M   S   E   E   M   S   
E   E   M   S   E   E   M   S   E   E   M   S   E   E   M   S   E   E   M   S   
E   E   M   S   E   E   M   S   E   E   M   S   E   E   M   S   E   E   M   S   
E   E   M   S   E   E   M   S   E   E   M   S   E   E   M   S   E   E   M   S   
E   E   M   S   E   E   M   S   E   E   M   S   E   E   M   S   E   E   M   S   
E   E   M   S   E   E   M   S   E   E   M   S   E   E   M   S   E   E   M   S   
E   E   M   S   E   E   M   S   E   E   M   S   E   E   M   S   E   E   M   S   
E   E   M   S   E   E   M   S   E   E   M   S   E   E   M   S   E   E   M   S   
E   E   M   S   E   E   M   S   E   E   M   S   E   E   M   S   E   E   M   S   
E   E   M   S   E   E   M   S   E   E   M   S   E   E   M   S   E   E   M   S   
E   E   M   S   E   E   M   S   E   E   M   S   E   E   M   S   E   E   M   S   
E   E   M   S   E   E   M   S   E   E   M   S   E   E   M   S   E   E   M   S   
E   E   M   S   E   E   M   S   E   E   M   S   E   E   M   S   E   E   M   S   
E   E   M   S   E   E   M   S   E   E   M   S   E   E   M   S   E   E   M   S   
E   E   M   S   E   E   M   S   E   E   M   S   E   E   M   S   E   E   M   S   
E   E   M   S   E   E   M   S   E   E   M   S   E   E   M   S   E   E   M   S   
E   E   M   S   E   E   M   S   E   E   M   S   E   E   M   S   E   E   M   S   
E   E   M   S   E   E   M   S   E   E   M   S   E   E   M   S   E   E   M   S   
E   E   M   S   E   E   M   S   E   E   M   S   E   E   M   S   E   E   M   S   
E   E   M   S   E   E   M   S   E   E   M   S   E   E   M   S   E   E   M   S   
E   E   M   S   E   E   M   S   E   E   M   S   E   E   M   S   E   E   M   S   
E   E   M   S   E   E   M   S   E   E   M   S   E   E   M   S   E   E   M   S   
E   E   M   S   E   E   M   S   E   E   M   S   E   E   M   S   E   E   M   S   
E   E   M   S   E   E   M   S   E   E   M   S   E   E   M   S   E   E   M   S   
E   E   M   S   E   E   M   S   E   E   M   S   E   E   M   S   E   E   M   S   
E   E   M   S   E   E   M   S   E   E   M   S   E   E   M   S   E   E   M   S   
E   E   M   S   E   E   M   S   E   E   M   S   E   E   M   S   E   E   M   S   
E   E   M   S   E   E   M   S   E   E   M   S   E   E   M   S   E   E   M   S   
E   E   M   S   E   E   M   S   E   E   M   S   E   E   M   S   E   E   M   S   
E   E   M   S   E   E   M   S   E   E   M   S   E   E   M   S   E   E   M   S   
E   E   M   S   E   E   M   S   E   E   M   S   E   E   M   S   E   E   M   S   
E   E   M   S   E   E   M   S   E   E   M   S   E   E   M   S   E   E   M   S   
E   E   M   S   E   E   M   S   E   E   M   S   E   E   M   S   E   E   M   S   
E   E   M   S   E   E   M   S   E   E   M   S   E   E   M   S   E   E   M   S   
E   E   M   S   E   E   M   S   E   E   M   S   E   E   M   S   E   E   M   S   
E   E   M   S   E   E   M   S   E   E   M   S   E   E   M   S   E   E   M   S   
E   E   M   S   E   E   M   S   E   E   M   S   E   E   M   S   E   E   M   S   
E   E   M   S   E   E   M   S   E   E   M   S   E   E   M   S   E   E   M   S   
E   E   M   S   E   E   M   S   E   E   M   S   E   E   M   S   E   E   M   S   
E   E   M   S   E   E   M   S   E   E   M   S   E   E   M   S   E   E   M   S   
E   E   M   S   E   E   M   S   E   E   M   S   E   E   M   S   E   E   M   S   
E   E   M   S   E   E   M   S   E   E   M   S   E   E   M   S   E   E   M   S   
E   E   M   S   E   E   M   S   E   E   M   S   E   E   M   S   E   E   M   S   
E   E   M   S   E   E   M   S   E   E   M   S   E   E   M   S   E   E   M   S   
E   E   M   S   E   E   M   S   E   E   M   S   E   E   M   S   E   E   M   S   
E   E   M   S   E   E   M   S   E   E   M   S   E   E   M   S   E   E   M   S   
E   E   M   S   E   E   M   S   E   E   M   S   E   E   M   S   E   E   M   S   
E   E   M   S   E   E   M   S   E   E   M   S   E   E   M   S   E   E   M   S   
E   E   M   S   E   E   M   S   E   E   M   S   E   E   M   S   E   E   M   S   
E   E   M   S   E   E   M   S   E   E   M   S   E   E   M   S   E   E   M   S   
E   E   M   S   E   E   M   S   E   E   M   S   E   E   M   S   E   E   M   S   
E   E   M   S   E   E   M   S   E   E   M   S   E   E   M   S   E   E   M   S   
E   E   M   S   E   E   M   S   E   E   M   S   E   E   M   S   E   E   M   S   
E   E   
%FLAG JOIN_ARRAY                                                                
%FORMAT(10I8)                                                                   
       0       0       0       0       0       0       0       0       0       0
       0       0       0       0       0       0       0       0       0       0
       0       0       0       0       0       0       0       0       0       0
       0       0       0       0       0       0       0       0       0       0
       0       0       0       0       0       0       0       0       0       0
       0       0       0       0       0       0       0       0       0       0
       0       0       0       0       0       0       0       0       0       0
       0       0       0       0       0       0       0       0       0       0
       0       0       0       0       0       0       0       0       0       0
       0       0       0       0       0       0       0       0       0       0
       0       0       0       0       0       0       0       0       0       0
       0       0       0       0       0       0       0       0       0       0
       0       0       0       0       0       0       0       0       0       0
       0       0       0       0       0       0       0       0       0       0
       0       0       0       0       0       0       0       0       0       0
       0       0       0       0       0       0       0       0       0       0
       0       0       0       0       0       0       0       0       0       0
       0       0       0       0       0       0       0       0       0       0
       0       0       0       0       0       0       0       0       0       0
       0       0       0       0       0       0       0       0       0       0
       0       0       0       0       0       0       0       0       0       0
       0       0       0       0       0       0       0       0       0       0
       0       0       0       0       0       0       0       0       0       0
       0       0       0       0       0       0       0       0       0       0
       0       0       0       0       0       0       0       0       0       0
       0       0       0       0       0       0       0       0       0       0
       0       0       0       0       0       0       0       0       0       0
       0       0       0       0       0       0       0       0       0       0
       0       0       0       0       0       0       0       0       0       0
       0       0       0       0       0       0       0       0       0       0
       0       0       0       0       0       0       0       0       0       0
       0       0       0       0       0       0       0       0       0       0
       0       0       0       0       0       0       0       0       0       0
       0       0       0       0       0       0       0       0       0       0
       0       0       0       0       0       0       0       0       0       0
       0       0       0       0       0       0       0       0       0       0
       0       0       0       0       0       0       0       0       0       0
       0       0       0       0       0       0       0       0       0       0
       0       0       0       0       0       0       0       0       0       0
       0       0       0       0       0       0       0       0       0       0
       0       0       0       0       0       0       0       0       0       0
       0       0       0       0       0       0       0       0       0       0
       0       0       0       0       0       0       0       0       0       0
       0       0       0       0       0       0       0       0       0       0
       0       0       0       0       0       0       0       0       0       0
       0       0       0       0       0       0       0       0       0       0
       0       0       0       0       0       0       0       0       0       0
       0       0       0       0       0       0       0       0       0       0
       0       0       0       0       0       0       0       0       0       0
       0       0       0       0       0       0       0       0       0       0
       0       0       0       0       0       0       0       0       0       0
       0       0       0       0       0       0       0       0       0       0
       0       0       0       0       0       0       0       0       0       0
       0       0       0       0       0       0       0       0       0       0
       0       0       0       0       0       0       0       0       0       0
       0       0       0       0       0       0       0       0       0       0
       0       0       0       0       0       0       0       0       0       0
       0       0       0       0       0       0       0       0       0       0
       0       0       0       0       0       0       0       0       0       0
       0       0       0       0       0       0       0       0       0       0
       0       0       0       0       0       0       0       0       0       0
       0       0       0       0       0       0       0       0       0       0
       0       0       0       0       0       0       0       0       0       0
       0       0       0       0       0       0       0       0       0       0
       0       0       0       0       0       0       0       0       0       0
       0       0       0       0       0       0       0       0       0       0
       0       0       0       0       0       0       0       0       0       0
       0       0       0       0       0       0       0       0       0       0
       0       0       0       0       0       0       0       0       0       0
       0       0       0       0       0       0       0       0       0       0
       0       0       0       0       0       0       0       0       0       0
       0       0       0       0       0       0       0       0       0       0
       0       0       0       0       0       0       0       0       0       0
       0       0       0       0       0       0       0       0       0       0
       0       0       0       0       0       0       0       0       0       0
       0       0       0       0       0       0       0       0       0       0
       0       0       0       0       0       0       0       0       0       0
       0       0       0       0       0       0       0       0       0       0
       0       0       0       0       0       0       0       0       0       0
       0       0       0       0       0       0       0       0       0       0
       0       0       0       0       0       0       0       0       0       0
       0       0       0       0       0       0       0       0       0       0
       0       0       0       0       0       0       0       0       0       0
       0       0       0       0       0       0       0       0       0       0
       0       0       0       0       0       0       0       0       0       0
       0       0       0       0       0       0       0       0       0       0
       0       0       0       0       0       0       0       0       0       0
       0       0       0       0       0       0       0       0       0       0
       0       0       0       0       0       0       0       0       0       0
       0       0       0       0       0       0       0       0       0       0
       0       0       0       0       0       0       0       0       0       0
       0       0       0       0       0       0       0       0       0       0
       0       0       0       0       0       0       0       0       0       0
       0       0       0       0       0       0       0       0       0       0
       0       0       0       0       0       0       0       0       0       0
       0       0       0       0       0       0       0       0       0       0
       0       0       0       0       0       0       0       0       0       0
       0       0       0       0       0       0       0       0       0       0
       0       0       0       0       0       0       0       0       0       0
       0       0       0       0       0       0       0       0       0       0
       0       0       0       0       0       0       0       0       0       0
       0       0       0       0       0       0       0       0       0       0
       0       0       0       0       0       0       0       0       0       0
       0       0       0       0       0       0       0       0       0       0
       0       0       0       0       0       0       0       0       0       0
       0       0       0       0       0       0       0       0       0       0
       0       0       0       0       0       0       0       0       0       0
       0       0       0       0       0       0       0       0       0       0
       0       0       0       0       0       0       0       0       0       0
       0       0       0       0       0       0       0       0       0       0
       0       0       0       0       0       0       0       0       0       0
       0       0       0       0       0       0       0       0       0       0
       0       0       0       0       0       0       0       0       0       0
       0       0       0       0       0       0       0       0       0       0
       0       0       0       0       0       0       0       0       0       0
       0       0       0       0       0       0       0       0       0       0
       0       0       0       0       0       0       0       0       0       0
       0       0       0       0       0       0       0       0       0       0
       0       0       0       0       0       0       0       0       0       0
       0       0       0       0       0       0       0       0       0       0
       0       0       0       0       0       0       0       0       0       0
       0       0       0       0       0       0       0       0       0       0
       0       0       0       0       0       0       0       0       0       0
       0       0       0       0       0       0       0       0       0       0
       0       0       0       0       0       0       0       0       0       0
       0       0       0       0       0       0       0       0       0       0
       0       0       0       0       0       0       0       0       0       0
       0       0       0       0       0       0       0       0       0       0
       0       0       0       0       0       0       0       0       0       0
       0       0       0       0       0       0       0       0       0       0
       0       0       0       0       0       0       0       0       0       0
       0       0       0       0       0       0       0       0       0       0
       0       0       0       0       0       0       0       0       0       0
       0       0       0       0       0       0       0       0       0       0
       0       0       0       0       0       0       0       0       0       0
       0       0       0       0       0       0       0       0       0       0
       0       0       0       0       0       0       0       0       0       0
       0       0       0       0       0       0       0       0       0       0
       0       0       0       0       0       0       0       0       0       0
       0       0       0       0       0       0       0       0       0       0
       0       0       0       0       0       0       0       0       0       0
       0       0       0       0       0       0       0       0       0       0
       0       0       0       0       0       0       0       0       0       0
       0       0       0       0       0       0       0       0       0       0
       0       0       0       0       0       0       0       0       0       0
       0       0       0       0       0       0       0       0       0       0
       0       0       0       0       0       0       0       0       0       0
       0       0       0       0       0       0       0       0       0       0
       0       0       0       0       0       0       0       0       0       0
       0       0       0       0       0       0       0       0       0       0
       0       0       0       0       0       0       0       0       0       0
       0       0       0       0       0       0       0       0       0       0
       0       0       0       0       0       0       0       0       0       0
       0       0       0       0       0       0       0       0       0       0
       0       0       0       0       0       0       0       0       0       0
       0       0       0       0       0       0       0       0       0       0
       0       0       0       0       0       0       0       0       0       0
       0       0       0       0       0       0       0       0       0       0
       0       0       0       0       0       0       0       0       0       0
       0       0       0       0       0       0       0       0       0       0
       0       0       0       0       0       0       0       0       0       0
       0       0       0       0       0       0       0       0       0       0
       0       0       0       0       0       0       0       0       0       0
       0       0       0       0       0       0       0       0       0       0
       0       0       0       0       0       0       0       0       0       0
       0       0       0       0       0       0       0       0       0       0
       0       0       0       0       0       0       0       0       0       0
       0       0       0       0       0       0       0       0       0       0
       0       0       0       0       0       0       0       0       0       0
       0       0       0       0       0       0       0       0       0       0
       0       0       0       0       0       0       0       0       0       0
       0       0       0       0       0       0       0       0       0       0
       0       0       0       0       0       0       0       0       0       0
       0       0       0       0       0       0       0       0       0       0
       0       0       0       0       0       0       0       0       0       0
       0       0       0       0       0       0       0       0       0       0
       0       0       0       0       0       0       0       0       0       0
       0       0       0       0       0       0       0       0       0       0
       0       0       0       0       0       0       0       0       0       0
       0       0       0       0       0       0       0       0       0       0
       0       0       0       0       0       0       0       0       0       0
       0       0       0       0       0       0       0       0       0       0
       0       0       0       0       0       0       0       0       0       0
       0       0       0       0       0       0       0       0       0       0
       0       0       0       0       0       0       0       0       0       0
       0       0       0       0       0       0       0       0       0       0
       0       0       0       0       0       0       0       0       0       0
       0       0       0       0       0       0       0       0       0       0
       0       0       0       0       0       0       0       0       0       0
       0       0       0       0       0       0       0       0       0       0
       0       0       0       0       0       0       0       0       0       0
       0       0       0       0       0       0       0       0       0       0
       0       0       0       0       0       0       0       0       0       0
       0       0       0       0       0       0       0       0       0       0
       0       0       0       0       0       0       0       0       0       0
       0       0       0       0       0       0       0       0       0       0
       0       0       0       0       0       0       0       0       0       0
       0       0       0       0       0       0       0       0       0       0
       0       0       0       0       0       0       0       0       0       0
       0       0       0       0       0       0       0       0       0       0
       0       0       0       0       0       0       0       0       0       0
       0       0       0       0       0       0       0       0       0       0
       0       0       0       0       0       0       0       0       0       0
       0       0       0       0       0       0       0       0       0       0
       0       0       0       0       0       0       0       0       0       0
       0       0       0       0       0       0       0       0       0       0
       0       0       0       0       0       0       0       0       0       0
       0       0       0       0       0       0       0       0       0       0
       0       0       0       0       0       0       0       0       0       0
       0       0       0       0       0       0       0       0       0       0
       0       0       0       0       0       0       0       0       0       0
       0       0       0       0       0       0       0       0       0       0
       0       0       0       0       0       0       0       0       0       0
       0       0       0       0       0       0       0       0       0       0
       0       0       0       0       0       0       0       0       0       0
       0       0       0       0       0       0       0       0       0       0
       0       0       0       0       0       0       0       0       0       0
       0       0       0       0       0       0       0       0       0       0
       0       0       0       0       0       0       0       0       0       0
       0       0       0       0       0       0       0       0       0       0
       0       0       0       0       0       0       0       0       0       0
       0       0       0       0       0       0       0       0       0       0
       0       0       0       0       0       0       0       0       0       0
       0       0       0       0       0       0       0       0       0       0
       0       0       0       0       0       0       0       0       0       0
       0       0       0       0       0       0       0       0       0       0
       0       0       0       0       0       0       0       0       0       0
       0       0       0       0       0       0       0       0       0       0
       0       0       0       0       0       0       0       0       0       0
       0       0       0       0       0       0       0       0       0       0
       0       0       0       0       0       0       0       0       0       0
       0       0       0       0       0       0       0       0       0       0
       0       0       0       0       0       0       0       0       0       0
       0       0       0       0       0       0       0       0       0       0
       0       0       0       0       0       0       0       0       0       0
       0       0       0       0       0       0       0       0       0       0
       0       0       0       0       0       0       0       0       0       0
       0       0       0       0       0       0       0       0       0       0
       0       0       0       0       0       0       0       0       0       0
       0       0       0       0       0       0       0       0       0       0
       0       0       0       0       0       0       0       0       0       0
       0       0       0       0       0       0       0       0       0       0
       0       0       0       0       0       0       0       0       0       0
       0       0       0       0       0       0       0       0       0       0
       0       0       0       0       0       0       0       0       0       0
       0       0       0       0       0       0       0       0       0       0
       0       0       0       0       0       0       0       0       0       0
       0       0       0       0       0       0       0       0       0       0
       0       0       0       0       0       0       0       0       0       0
       0       0       0       0       0       0       0       0       0       0
       0       0       0       0       0       0       0       0       0       0
       0       0       0       0       0       0       0       0       0       0
       0       0       0       0       0       0       0       0       0       0
       0       0       0       0       0       0       0       0       0       0
       0       0       0       0       0       0       0       0       0       0
       0       0       0       0       0       0       0       0       0       0
       0       0       0       0       0       0       0       0       0       0
       0       0       0       0       0       0       0       0       0       0
       0       0       0       0       0       0       0       0       0       0
       0       0       0       0       0       0       0       0       0       0
       0       0       0       0       0       0       0       0       0       0
       0       0       0       0       0       0       0       0       0       0
       0       0       0       0       0       0       0       0       0       0
       0       0       0       0       0       0       0       0       0       0
       0       0       0       0       0       0       0       0       0       0
       0       0       0       0       0       0       0       0       0       0
       0       0       0       0       0       0       0       0       0       0
       0       0       0       0       0       0       0       0       0       0
       0       0       0       0       0       0       0       0       0       0
       0       0       0       0       0       0       0       0       0       0
       0       0       0       0       0       0       0       0       0       0
       0       0       0       0       0       0       0       0       0       0
       0       0       0       0       0       0       0       0       0       0
       0       0       0       0       0       0       0       0       0       0
       0       0       0       0       0       0       0       0       0       0
       0       0       0       0       0       0       0       0       0       0
       0       0       0       0       0       0       0       0       0       0
       0       0       0       0       0       0       0       0       0       0
       0       0       0       0       0       0       0       0       0       0
       0       0       0       0       0       0       0       0       0       0
       0       0       0       0       0       0       0       0       0       0
       0       0       0       0       0       0       0       0       0       0
       0       0       0       0       0       0       0       0       0       0
       0       0       0       0       0       0       0       0       0       0
       0       0       0       0       0       0       0       0       0       0
       0       0       0       0       0       0       0       0       0       0
       0       0       0       0       0       0       0       0       0       0
       0       0       0       0       0       0       0       0       0       0
       0       0       0       0       0       0       0       0       0       0
       0       0       0       0       0       0       0       0       0       0
       0       0       0       0       0       0       0       0       0       0
       0       0       0       0       0       0       0       0       0       0
       0       0       0       0       0       0       0       0       0       0
       0       0       0       0       0       0       0       0       0       0
       0       0       0       0       0       0       0       0       0       0
       0       0       0       0       0       0       0       0       0       0
       0       0       0       0       0       0       0       0       0       0
       0       0       0       0       0       0       0       0       0       0
       0       0       0       0       0       0       0       0       0       0
       0       0       0       0       0       0       0       0       0       0
       0       0       0       0       0       0       0       0       0       0
       0       0       0       0       0       0       0       0       0       0
       0       0       0       0       0       0       0       0       0       0
       0       0       0       0       0       0       0       0       0       0
       0       0       0       0       0       0       0       0       0       0
       0       0       0       0       0       0       0       0       0       0
       0       0       0       0       0       0       0       0       0       0
       0       0       0       0       0       0       0       0       0       0
       0       0       0       0       0       0       0       0       0       0
       0       0       0       0       0       0       0       0       0       0
       0       0       0       0       0       0       0       0       0       0
       0       0       0       0       0       0       0       0       0       0
       0       0       0       0       0       0       0       0       0       0
       0       0       0       0       0       0       0       0       0       0
       0       0       0       0       0       0       0       0       0       0
       0       0       0       0       0       0       0       0       0       0
       0       0       0       0       0       0       0       0       0       0
       0       0       0       0       0       0       0       0       0       0
       0       0       0       0       0       0       0       0       0       0
       0       0       0       0       0       0       0       0       0       0
       0       0       0       0       0       0       0       0       0       0
       0       0       0       0       0       0       0       0       0       0
       0       0       0       0       0       0       0       0       0       0
       0       0       0       0       0       0       0       0       0       0
       0       0       0       0       0       0       0       0       0       0
       0       0       0       0       0       0       0       0       0       0
       0       0       0       0       0       0       0       0       0       0
       0       0       0       0       0       0       0       0       0       0
       0       0       0       0       0       0       0       0       0       0
       0       0       0       0       0       0       0       0       0       0
       0       0       0       0       0       0       0       0       0       0
       0       0       0       0       0       0       0       0       0       0
       0       0       0       0       0       0       0       0       0       0
       0       0       0       0       0       0       0       0       0       0
       0       0       0       0       0       0       0       0       0       0
       0       0       0       0       0       0       0       0       0       0
       0       0       0       0       0       0       0       0       0       0
       0       0       0       0       0       0       0       0       0       0
       0       0       0       0       0       0       0       0       0       0
       0       0       0       0       0       0       0       0       0       0
       0       0       0       0       0       0       0       0       0       0
       0       0       0       0       0       0       0       0       0       0
       0       0       0       0       0       0       0       0       0       0
       0       0       0       0       0       0       0       0       0       0
       0       0       0       0       0       0       0       0       0       0
       0       0       0       0       0       0       0       0       0       0
       0       0       0       0       0       0       0       0       0       0
       0       0       0       0       0       0       0       0       0       0
       0       0       0       0       0       0       0       0       0       0
       0       0       0       0       0       0       0       0       0       0
       0       0       0       0       0       0       0       0       0       0
       0       0       0       0       0       0       0       0       0       0
       0       0       0       0       0       0       0       0       0       0
       0       0       0       0       0       0       0       0       0       0
       0       0       0       0       0       0       0       0       0       0
       0       0       0       0       0       0       0       0       0       0
       0       0       0       0       0       0       0       0       0       0
       0       0       0       0       0       0       0       0       0       0
       0       0       0       0       0       0       0       0       0       0
       0       0       0       0       0       0       0       0       0       0
       0       0       0       0       0       0       0       0       0       0
       0       0       0       0       0       0       0       0       0       0
       0       0       0       0       0       0       0       0       0       0
       0       0       0       0       0       0       0       0       0       0
       0       0       0       0       0       0       0       0       0       0
       0       0       0       0       0       0       0       0       0       0
       0       0       0       0       0       0       0       0       0       0
       0       0       0       0       0       0       0       0       0       0
       0       0       0       0       0       0       0       0       0       0
       0       0       0       0       0       0       0       0       0       0
       0       0       0       0       0       0       0       0       0       0
       0       0       0       0       0       0       0       0       0       0
       0       0       0       0       0       0       0       0       0       0
       0       0       0       0       0       0       0       0       0       0
       0       0       0       0       0       0       0       0       0       0
       0       0       0       0       0       0       0       0       0       0
       0       0       0       0       0       0       0       0       0       0
       0       0       0       0       0       0       0       0       0       0
       0       0       0       0       0       0       0       0       0       0
       0       0       0       0       0       0       0       0       0       0
       0       0       0       0       0       0       0       0       0       0
       0       0       0       0       0       0       0       0       0       0
       0       0       0       0       0       0       0       0       0       0
       0       0       0       0       0       0       0       0       0       0
       0       0       0       0       0       0       0       0       0       0
       0       0       0       0       0       0       0       0       0       0
       0       0       0       0       0       0       0       0       0       0
       0       0       0       0       0       0       0       0       0       0
       0       0       0       0       0       0       0       0       0       0
       0       0       0       0       0       0       0       0       0       0
       0       0       0       0       0       0       0       0       0       0
       0       0       0       0       0       0       0       0       0       0
       0       0       0       0       0       0       0       0       0       0
       0       0       0       0       0       0       0       0       0       0
       0       0       0       0       0       0       0       0       0       0
       0       0       0       0       0       0       0       0       0       0
       0       0       0       0       0       0       0       0       0       0
       0       0       0       0       0       0       0       0       0       0
       0       0       0       0       0       0       0       0       0       0
       0       0       0       0       0       0       0       0       0       0
       0       0       0       0       0       0       0       0       0       0
       0       0       0       0       0       0       0       0       0       0
       0       0       0       0       0       0       0       0       0       0
       0       0       0       0       0       0       0       0       0       0
       0       0       0       0       0       0       0       0       0       0
       0       0       0       0       0       0       0       0       0       0
       0       0       0       0       0       0       0       0       0       0
       0       0       0       0       0       0       0       0       0       0
       0       0       0       0       0       0       0       0       0       0
       0       0       0       0       0       0       0       0       0       0
       0       0       0       0       0       0       0       0       0       0
       0       0       0       0       0       0       0       0       0       0
       0       0       0       0       0       0       0       0       0       0
       0       0       0       0       0       0       0       0       0       0
       0       0       0       0       0       0       0       0       0       0
       0       0       0       0       0       0       0       0       0       0
       0       0       0       0       0       0       0       0       0       0
       0       0       0       0       0       0       0       0       0       0
       0       0       0       0       0       0       0       0       0       0
       0       0       0       0       0       0       0       0       0       0
       0       0       0       0       0       0       0       0       0       0
       0       0       0       0       0       0       0       0       0       0
       0       0       0       0       0       0       0       0       0       0
       0       0       0       0       0       0       0       0       0       0
       0       0       0       0       0       0       0       0       0       0
       0       0       0       0       0       0       0       0       0       0
       0       0       0       0       0       0       0       0       0       0
       0       0       0       0       0       0       0       0       0       0
       0       0       0       0       0       0       0       0       0       0
       0       0       0       0       0       0       0       0       0       0
       0       0       0       0       0       0       0       0       0       0
       0       0       0       0       0       0       0       0       0       0
       0       0       0       0       0       0       0       0       0       0
       0       0       0       0       0       0       0       0       0       0
       0       0       0       0       0       0       0       0       0       0
       0       0       0       0       0       0       0       0       0       0
       0       0       0       0       0       0       0       0       0       0
       0       0       0       0       0       0       0       0       0       0
       0       0       0       0       0       0       0       0       0       0
       0       0       0       0       0       0       0       0       0       0
       0       0       0       0       0       0       0       0       0       0
       0       0       0       0       0       0       0       0       0       0
       0       0       0       0       0       0       0       0       0       0
       0       0       0       0       0       0       0       0       0       0
       0       0       0       0       0       0       0       0       0       0
       0       0       0       0       0       0       0       0       0       0
       0       0       0       0       0       0       0       0       0       0
       0       0       0       0       0       0       0       0       0       0
       0       0       0       0       0       0       0       0       0       0
       0       0       0       0       0       0       0       0       0       0
       0       0       0       0       0       0       0       0       0       0
       0       0       0       0       0       0       0       0       0       0
       0       0       0       0       0       0       0       0       0       0
       0       0       0       0       0       0       0       0       0       0
       0       0       0       0       0       0       0       0       0       0
       0       0       0       0       0       0       0       0       0       0
       0       0       0       0       0       0       0       0       0       0
       0       0       0       0       0       0       0       0       0       0
       0       0       0       0       0       0       0       0       0       0
       0       0       0       0       0       0       0       0       0       0
       0       0       0       0       0       0       0       0       0       0
       0       0       0       0       0       0       0       0       0       0
       0       0       0       0       0       0       0       0       0       0
       0       0       0       0       0       0       0       0       0       0
       0       0       0       0       0       0       0       0       0       0
       0       0       0       0       0       0       0       0       0       0
       0       0       0       0       0       0       0       0       0       0
       0       0       0       0       0       0       0       0       0       0
       0       0       0       0       0       0       0       0       0       0
       0       0       0       0       0       0       0       0       0       0
       0       0       0       0       0       0       0       0       0       0
       0       0       0       0       0       0       0       0       0       0
       0       0       0       0       0       0       0       0       0       0
       0       0       0       0       0       0       0       0       0       0
       0       0       0       0       0       0       0       0       0       0
       0       0       0       0       0       0       0       0       0       0
       0       0       0       0       0       0       0       0       0       0
       0       0       0       0       0       0       0       0       0       0
       0       0       0       0       0       0       0       0       0       0
       0       0       0       0       0       0       0       0       0       0
       0       0       0       0       0       0       0       0       0       0
       0       0       0       0       0       0       0       0       0       0
       0       0       0       0       0       0       0       0       0       0
       0       0       0       0       0       0       0       0       0       0
       0       0       0       0       0       0       0       0       0       0
       0       0       0       0       0       0       0       0       0       0
       0       0       0       0       0       0       0       0       0       0
       0       0       0       0       0       0       0       0       0       0
       0       0       0       0       0       0       0       0       0       0
       0       0       0       0       0       0       0       0       0       0
       0       0       0       0       0       0       0       0       0       0
       0       0       0       0       0       0       0       0       0       0
       0       0       0       0       0       0       0       0       0       0
       0       0       0       0       0       0       0       0       0       0
       0       0       0       0       0       0       0       0       0       0
       0       0       0       0       0       0       0       0       0       0
       0       0       0       0       0       0       0       0       0       0
       0       0       0       0       0       0       0       0       0       0
       0       0       0       0       0       0       0       0       0       0
       0       0       0       0       0       0       0       0       0       0
       0       0       0       0       0       0       0       0       0       0
       0       0       0       0       0       0       0       0       0       0
       0       0       0       0       0       0       0       0       0       0
       0       0       0       0       0       0       0       0       0       0
       0       0       0       0       0       0       0       0       0       0
       0       0       0       0       0       0       0       0       0       0
       0       0       0       0       0       0       0       0       0       0
       0       0       0       0       0       0       0       0       0       0
       0       0       0       0       0       0       0       0       0       0
       0       0       0       0       0       0       0       0       0       0
       0       0       0       0       0       0       0       0       0       0
       0       0       0       0       0       0       0       0       0       0
       0       0       0       0       0       0       0       0       0       0
       0       0       0       0       0       0       0       0       0       0
       0       0       0       0       0       0       0       0       0       0
       0       0       0       0       0       0       0       0       0       0
       0       0       0       0       0       0       0       0       0       0
       0       0       0       0       0       0       0       0       0       0
       0       0       0       0       0       0       0       0       0       0
       0       0       0       0       0       0       0       0       0       0
       0       0       0       0       0       0       0       0       0       0
       0       0       0       0       0       0       0       0       0       0
       0       0       0       0       0       0       0       0       0       0
       0       0       0       0       0       0       0       0       0       0
       0       0       0       0       0       0       0       0       0       0
       0       0       0       0       0       0       0       0       0       0
       0       0       0       0       0       0       0       0       0       0
       0       0       0       0       0       0       0       0       0       0
       0       0       0       0       0       0       0       0       0       0
       0       0       0       0       0       0       0       0       0       0
       0       0       0       0       0       0       0       0       0       0
       0       0       0       0       0       0       0       0       0       0
       0       0       0       0       0       0       0       0       0       0
       0       0       0       0       0       0       0       0       0       0
       0       0       0       0       0       0       0       0       0       0
       0       0       0       0       0       0       0       0       0       0
       0       0       0       0       0       0       0       0       0       0
       0       0       0       0       0       0       0       0       0       0
       0       0       0       0       0       0       0       0       0       0
       0       0       0       0       0       0       0       0       0       0
       0       0       0       0       0       0       0       0       0       0
       0       0       0       0       0       0       0       0       0       0
       0       0       0       0       0       0       0       0       0       0
       0       0       0       0       0       0       0       0       0       0
       0       0       0       0       0       0       0       0       0       0
       0       0       0       0       0       0       0       0       0       0
       0       0       0       0       0       0       0       0       0       0
       0       0       0       0       0       0       0       0       0       0
       0       0       0       0       0       0       0       0       0       0
       0       0       0       0       0       0       0       0       0       0
       0       0       0       0       0       0       0       0       0       0
       0       0       0       0       0       0       0       0       0       0
       0       0       0       0       0       0       0       0       0       0
       0       0       0       0       0       0       0       0       0       0
       0       0       0       0       0       0       0       0       0       0
       0       0       0       0       0       0       0       0       0       0
       0       0       0       0       0       0       0       0       0       0
       0       0       0       0       0       0       0       0       0       0
       0       0       0       0       0       0       0       0       0       0
       0       0       0       0       0       0       0       0       0       0
       0       0       0       0       0       0       0       0       0       0
       0       0       0       0       0       0       0       0       0       0
       0       0       0       0       0       0       0       0       0       0
       0       0       0       0       0       0       0       0       0       0
       0       0       0       0       0       0       0       0       0       0
       0       0       0       0       0       0       0       0       0       0
       0       0       0       0       0       0       0       0       0       0
       0       0       0       0       0       0       0       0       0       0
       0       0       0       0       0       0       0       0       0       0
       0       0       0       0       0       0       0       0       0       0
       0       0       0       0       0       0       0       0       0       0
       0       0       0       0       0       0       0       0       0       0
       0       0       0       0       0       0       0       0       0       0
       0       0       0       0       0       0       0       0       0       0
       0       0       0       0       0       0       0       0       0       0
       0       0       0       0       0       0       0       0       0       0
       0       0       0       0       0       0       0       0       0       0
       0       0       0       0       0       0       0       0       0       0
       0       0       0       0       0       0       0       0       0       0
       0       0       0       0       0       0       0       0       0       0
       0       0       0       0       0       0       0       0       0       0
       0       0       0       0       0       0       0       0       0       0
       0       0       0       0       0       0       0       0       0       0
       0       0       0       0       0       0       0       0       0       0
       0       0       0       0       0       0       0       0       0       0
       0       0       0       0       0       0       0       0       0       0
       0       0       0       0       0       0       0       0       0       0
       0       0       0       0       0       0       0       0       0       0
       0       0       0       0       0       0       0       0       0       0
       0       0       0       0       0       0       0       0       0       0
       0       0       0       0       0       0       0       0       0       0
       0       0       0       0       0       0       0       0       0       0
       0       0       0       0       0       0       0       0       0       0
       0       0       0       0       0       0       0       0       0       0
       0       0       0       0       0       0       0       0       0       0
       0       0       0       0       0       0       0       0       0       0
       0       0       0       0       0       0       0       0       0       0
       0       0       0       0       0       0       0       0       0       0
       0       0       0       0       0       0       0       0       0       0
       0       0       0       0       0       0       0       0       0       0
       0       0       0       0       0       0       0       0       0       0
       0       0       0       0       0       0       0       0       0       0
       0       0       0       0       0       0       0       0       0       0
       0       0       0       0       0       0       0       0       0       0
       0       0       0       0       0       0       0       0       0       0
       0       0       0       0       0       0       0       0       0       0
       0       0       0       0       0       0       0       0       0       0
       0       0       0       0       0       0       0       0       0       0
       0       0       0       0       0       0       0       0       0       0
       0       0       0       0       0       0       0       0       0       0
       0       0       0       0       0       0       0       0       0       0
       0       0       0       0       0       0       0       0       0       0
       0       0       0       0       0       0       0       0       0       0
       0       0       0       0       0       0       0       0       0       0
       0       0       0       0       0       0       0       0       0       0
       0       0       0       0       0       0       0       0       0       0
       0       0       0       0       0       0       0       0       0       0
       0       0       0       0       0       0       0       0       0       0
       0       0       0       0       0       0       0       0       0       0
       0       0       0       0       0       0       0       0       0       0
       0       0       0       0       0       0       0       0       0       0
       0       0       0       0       0       0       0       0       0       0
       0       0       0       0       0       0       0       0       0       0
       0       0       0       0       0       0       0       0       0       0
       0       0       0       0       0       0       0       0       0       0
       0       0       0       0       0       0       0       0       0       0
       0       0       0       0       0       0       0       0       0       0
       0       0       0       0       0       0       0       0       0       0
       0       0       0       0       0       0       0       0       0       0
       0       0       0       0       0       0       0       0       0       0
       0       0       0       0       0       0       0       0       0       0
       0       0       0       0       0       0       0       0       0       0
       0       0       0       0       0       0       0       0       0       0
       0       0       0       0       0       0       0       0       0       0
       0       0       0       0       0       0       0       0       0       0
       0       0       0       0       0       0       0       0       0       0
       0       0       0       0       0       0       0       0       0       0
       0       0       0       0       0       0       0       0       0       0
       0       0       0       0       0       0       0       0       0       0
       0       0       0       0       0       0       0       0       0       0
       0       0       0       0       0       0       0       0       0       0
       0       0       0       0       0       0       0       0       0       0
       0       0       0       0       0       0       0       0       0       0
       0       0       0       0       0       0       0       0       0       0
       0       0       0       0       0       0       0       0       0       0
       0       0       0       0       0       0       0       0       0       0
       0       0       0       0       0       0       0       0       0       0
       0       0       0       0       0       0       0       0       0       0
       0       0       0       0       0       0       0       0       0       0
       0       0       0       0       0       0       0       0       0       0
       0       0       0       0       0       0       0       0       0       0
       0       0       0       0       0       0       0       0       0       0
       0       0       0       0       0       0       0       0       0       0
       0       0       0       0       0       0       0       0       0       0
       0       0       0       0       0       0       0       0       0       0
       0       0       0       0       0       0       0       0       0       0
       0       0       0       0       0       0       0       0       0       0
       0       0       0       0       0       0       0       0       0       0
       0       0       0       0       0       0       0       0       0       0
       0       0       0       0       0       0       0       0       0       0
       0       0       0       0       0       0       0       0       0       0
       0       0       0       0       0       0       0       0       0       0
       0       0       0       0       0       0       0       0       0       0
       0       0       0       0       0       0       0       0       0       0
       0       0       0       0       0       0       0       0       0       0
       0       0       0       0       0       0       0       0       0       0
       0       0       0       0       0       0       0       0       0       0
       0       0       0       0       0       0       0       0       0       0
       0       0       0       0       0       0       0       0       0       0
       0       0       0       0       0       0       0       0       0       0
       0       0       0       0       0       0       0       0       0       0
       0       0       0       0       0       0       0       0       0       0
       0       0       0       0       0       0       0       0       0       0
       0       0       0       0       0       0       0       0       0       0
       0       0       0       0       0       0       0       0       0       0
       0       0       0       0       0       0       0       0       0       0
       0       0       0       0       0       0       0       0       0       0
       0       0       0       0       0       0       0       0       0       0
       0       0       0       0       0       0       0       0       0       0
       0       0       0       0       0       0       0       0       0       0
       0       0       0       0       0       0       0       0       0       0
       0       0       0       0       0       0       0       0       0       0
       0       0       0       0       0       0       0       0       0       0
       0       0       0       0       0       0       0       0       0       0
       0       0       0       0       0       0       0       0       0       0
       0       0       0       0       0       0       0       0       0       0
       0       0       0       0       0       0       0       0       0       0
       0       0       0       0       0       0       0       0       0       0
       0       0       0       0       0       0       0       0       0       0
       0       0       0       0       0       0       0       0       0       0
       0       0       0       0       0       0       0       0       0       0
       0       0       0       0       0       0       0       0       0       0
       0       0       0       0       0       0       0       0       0       0
       0       0       0       0       0       0       0       0       0       0
       0       0       0       0       0       0       0       0       0       0
       0       0       0       0       0       0       0       0       0       0
       0       0       0       0       0       0       0       0       0       0
       0       0       0       0       0       0       0       0       0       0
       0       0       0       0       0       0       0       0       0       0
       0       0       0       0       0       0       0       0       0       0
       0       0       0       0       0       0       0       0       0       0
       0       0       0       0       0       0       0       0       0       0
       0       0       0       0       0       0       0       0       0       0
       0       0       0       0       0       0       0       0       0       0
       0       0       0       0       0       0       0       0       0       0
       0       0       0       0       0       0       0       0       0       0
       0       0       0       0       0       0       0       0       0       0
       0       0       0       0       0       0       0       0       0       0
       0       0       0       0       0       0       0       0       0       0
       0       0       0       0       0       0       0       0       0       0
       0       0       0       0       0       0       0       0       0       0
       0       0       0       0       0       0       0       0       0       0
       0       0       0       0       0       0       0       0       0       0
       0       0       0       0       0       0       0       0       0       0
       0       0       0       0       0       0       0       0       0       0
       0       0       0       0       0       0       0       0       0       0
       0       0       0       0       0       0       0       0       0       0
       0       0       0       0       0       0       0       0       0       0
       0       0       0       0       0       0       0       0       0       0
       0       0       0       0       0       0       0       0       0       0
       0       0       0       0       0       0       0       0       0       0
       0       0       0       0       0       0       0       0       0       0
       0       0       0       0       0       0       0       0       0       0
       0       0       0       0       0       0       0       0       0       0
       0       0       0       0       0       0       0       0       0       0
       0       0       0       0       0       0       0       0       0       0
       0       0       0       0       0       0       0       0       0       0
       0       0       0       0       0       0       0       0       0       0
       0       0       0       0       0       0       0       0       0       0
       0       0       0       0       0       0       0       0       0       0
       0       0       0       0       0       0       0       0       0       0
       0       0       0       0       0       0       0       0       0       0
       0       0       0       0       0       0       0       0       0       0
       0       0       0       0       0       0       0       0       0       0
       0       0       0       0       0       0       0       0       0       0
       0       0       0       0       0       0       0       0       0       0
       0       0       0       0       0       0       0       0       0       0
       0       0       0       0       0       0       0       0       0       0
       0       0       0       0       0       0       0       0       0       0
       0       0       0       0       0       0       0       0       0       0
       0       0       0       0       0       0       0       0       0       0
       0       0       0       0       0       0       0       0       0       0
       0       0       0       0       0       0       0       0       0       0
       0       0       0       0       0       0       0       0       0       0
       0       0       0       0       0       0       0       0       0       0
       0       0       0       0       0       0       0       0       0       0
       0       0       0       0       0       0       0       0       0       0
       0       0       0       0       0       0       0       0       0       0
       0       0       0       0       0       0       0       0       0       0
       0       0       0       0       0       0       0       0       0       0
       0       0       0       0       0       0       0       0       0       0
       0       0       0       0       0       0       0       0       0       0
       0       0       0       0       0       0       0       0       0       0
       0       0       0       0       0       0       0       0       0       0
       0       0       0       0       0       0       0       0       0       0
       0       0       0       0       0       0       0       0       0       0
       0       0       0       0       0       0       0       0       0       0
       0       0       0       0       0       0       0       0       0       0
       0       0       0       0       0       0       0       0       0       0
       0       0       0       0       0       0       0       0       0       0
       0       0       0       0       0       0       0       0       0       0
       0       0       0       0       0       0       0       0       0       0
       0       0       0       0       0       0       0       0       0       0
       0       0       0       0       0       0       0       0       0       0
       0       0       0       0       0       0       0       0       0       0
       0       0       0       0       0       0       0       0       0       0
       0       0       0       0       0       0       0       0       0       0
       0       0       0       0       0       0       0       0       0       0
       0       0       0       0       0       0       0       0       0       0
       0       0       0       0       0       0       0       0       0       0
       0       0       0       0       0       0       0       0       0       0
       0       0       0       0       0       0       0       0       0       0
       0       0       0       0       0       0       0       0       0       0
       0       0       0       0       0       0       0       0       0       0
       0       0       0       0       0       0       0       0       0       0
       0       0       0       0       0       0       0       0       0       0
       0       0       0       0       0       0       0       0       0       0
       0       0       0       0       0       0       0       0       0       0
       0       0       0       0       0       0       0       0       0       0
       0       0       0       0       0       0       0       0       0       0
       0       0       0       0       0       0       0       0       0       0
       0       0       0       0       0       0       0       0       0       0
       0       0       0       0       0       0       0       0       0       0
       0       0       0       0       0       0       0       0       0       0
       0       0       0       0       0       0       0       0       0       0
       0       0       0       0       0       0       0       0       0       0
       0       0       0       0       0       0       0       0       0       0
       0       0       0       0       0       0       0       0       0       0
       0       0       0       0       0       0       0       0       0       0
       0       0       0       0       0       0       0       0       0       0
       0       0       0       0       0       0       0       0       0       0
       0       0       0       0       0       0       0       0       0       0
       0       0       0       0       0       0       0       0       0       0
       0       0       0       0       0       0       0       0       0       0
       0       0       0       0       0       0       0       0       0       0
       0       0       0       0       0       0       0       0       0       0
       0       0       0       0       0       0       0       0       0       0
       0       0       0       0       0       0       0       0       0       0
       0       0       0       0       0       0       0       0       0       0
       0       0       0       0       0       0       0       0       0       0
       0       0       0       0       0       0       0       0       0       0
       0       0       0       0       0       0       0       0       0       0
       0       0       0       0       0       0       0       0       0       0
       0       0       0       0       0       0       0       0       0       0
       0       0       0       0       0       0       0       0       0       0
       0       0       0       0       0       0       0       0       0       0
       0       0       0       0       0       0       0       0       0       0
       0       0       0       0       0       0       0       0       0       0
       0       0       0       0       0       0       0       0       0       0
       0       0       0       0       0       0       0       0       0       0
       0       0       0       0       0       0       0       0       0       0
       0       0       0       0       0       0       0       0       0       0
       0       0       0       0       0       0       0       0       0       0
       0       0       0       0       0       0       0       0       0       0
       0       0       0       0       0       0       0       0       0       0
       0       0       0       0       0       0       0       0       0       0
       0       0       0       0       0       0       0       0       0       0
       0       0       0       0       0       0       0       0       0       0
       0       0       0       0       0       0       0       0       0       0
       0       0       0       0       0       0       0       0       0       0
       0       0       0       0       0       0       0       0       0       0
       0       0       0       0       0       0       0       0       0       0
       0       0       0       0       0       0       0       0       0       0
       0       0       0       0       0       0       0       0       0       0
       0       0       0       0       0       0       0       0       0       0
       0       0       0       0       0       0       0       0       0       0
       0       0       0       0       0       0       0       0       0       0
       0       0       0       0       0       0       0       0       0       0
       0       0       0       0       0       0       0       0       0       0
       0       0       0       0       0       0       0       0       0       0
       0       0       0       0       0       0       0       0       0       0
       0       0       0       0       0       0       0       0       0       0
       0       0       0       0       0       0       0       0       0       0
       0       0       0       0       0       0       0       0       0       0
       0       0       0       0       0       0       0       0       0       0
       0       0       0       0       0       0       0       0       0       0
       0       0       0       0       0       0       0       0       0       0
       0       0       0       0       0       0       0       0       0       0
       0       0       0       0       0       0       0       0       0       0
       0       0       0       0       0       0       0       0       0       0
       0       0       0       0       0       0       0       0       0       0
       0       0       0       0       0       0       0       0       0       0
       0       0       0       0       0       0       0       0       0       0
       0       0       0       0       0       0       0       0       0       0
       0       0       0       0       0       0       0       0       0       0
       0       0       0       0       0       0       0       0       0       0
       0       0       0       0       0       0       0       0       0       0
       0       0       0       0       0       0       0       0       0       0
       0       0       0       0       0       0       0       0       0       0
       0       0       0       0       0       0       0       0       0       0
       0       0       0       0       0       0       0       0       0       0
       0       0       0       0       0       0       0       0       0       0
       0       0       0       0       0       0       0       0       0       0
       0       0       0       0       0       0       0       0       0       0
       0       0       0       0       0       0       0       0       0       0
       0       0       0       0       0       0       0       0       0       0
       0       0       0       0       0       0       0       0       0       0
       0       0       0       0       0       0       0       0       0       0
       0       0       0       0       0       0       0       0       0       0
       0       0       0       0       0       0       0       0       0       0
       0       0       0       0       0       0       0       0       0       0
       0       0       0       0       0       0       0       0       0       0
       0       0       0       0       0       0       0       0       0       0
       0       0       0       0       0       0       0       0       0       0
       0       0       0       0       0       0       0       0       0       0
       0       0       0       0       0       0       0       0       0       0
       0       0       0       0       0       0       0       0       0       0
       0       0       0       0       0       0       0       0       0       0
       0       0       0       0       0       0       0       0       0       0
       0       0       0       0       0       0       0       0       0       0
       0       0       0       0       0       0       0       0       0       0
       0       0       0       0       0       0       0       0       0       0
       0       0       0       0       0       0       0       0       0       0
       0       0       0       0       0       0       0       0       0       0
       0       0       0       0       0       0       0       0       0       0
       0       0       0       0       0       0       0       0       0       0
       0       0       0       0       0       0       0       0       0       0
       0       0       0       0       0       0       0       0       0       0
       0       0       0       0       0       0       0       0       0       0
       0       0       0       0       0       0       0       0       0       0
       0       0       0       0       0       0       0       0       0       0
       0       0       0       0       0       0       0       0       0       0
       0       0       0       0       0       0       0       0       0       0
       0       0       0       0       0       0       0       0       0       0
       0       0       0       0       0       0       0       0       0       0
       0       0       0       0       0       0       0       0       0       0
       0       0       0       0       0       0       0       0       0       0
       0       0       0       0       0       0       0       0       0       0
       0       0       0       0       0       0       0       0       0       0
       0       0       0       0       0       0       0       0       0       0
       0       0       0       0       0       0       0       0       0       0
       0       0       0       0       0       0       0       0       0       0
       0       0       0       0       0       0       0       0       0       0
       0       0       0       0       0       0       0       0       0       0
       0       0       0       0       0       0       0       0       0       0
       0       0       0       0       0       0       0       0       0       0
       0       0
%FLAG IROTAT                                                                    
%FORMAT(10I8)                                                                   
       0       0       0       0       0       0       0       0       0       0
       0       0       0       0       0       0       0       0       0       0
       0       0       0       0       0       0       0       0       0       0
       0       0       0       0       0       0       0       0       0       0
       0       0       0       0       0       0       0       0       0       0
       0       0       0       0       0       0       0       0       0       0
       0       0       0       0       0       0       0       0       0       0
       0       0       0       0       0       0       0       0       0       0
       0       0       0       0       0       0       0       0       0       0
       0       0       0       0       0       0       0       0       0       0
       0       0       0       0       0       0       0       0       0       0
       0       0       0       0       0       0       0       0       0       0
       0       0       0       0       0       0       0       0       0       0
       0       0       0       0       0       0       0       0       0       0
       0       0       0       0       0       0       0       0       0       0
       0       0       0       0       0       0       0       0       0       0
       0       0       0       0       0       0       0       0       0       0
       0       0       0       0       0       0       0       0       0       0
       0       0       0       0       0       0       0       0       0       0
       0       0       0       0       0       0       0       0       0       0
       0       0       0       0       0       0       0       0       0       0
       0       0       0       0       0       0       0       0       0       0
       0       0       0       0       0       0       0       0       0       0
       0       0       0       0       0       0       0       0       0       0
       0       0       0       0       0       0       0       0       0       0
       0       0       0       0       0       0       0       0       0       0
       0       0       0       0       0       0       0       0       0       0
       0       0       0       0       0       0       0       0       0       0
       0       0       0       0       0       0       0       0       0       0
       0       0       0       0       0       0       0       0       0       0
       0       0       0       0       0       0       0       0       0       0
       0       0       0       0       0       0       0       0       0       0
       0       0       0       0       0       0       0       0       0       0
       0       0       0       0       0       0       0       0       0       0
       0       0       0       0       0       0       0       0       0       0
       0       0       0       0       0       0       0       0       0       0
       0       0       0       0       0       0       0       0       0       0
       0       0       0       0       0       0       0       0       0       0
       0       0       0       0       0       0       0       0       0       0
       0       0       0       0       0       0       0       0       0       0
       0       0       0       0       0       0       0       0       0       0
       0       0       0       0       0       0       0       0       0       0
       0       0       0       0       0       0       0       0       0       0
       0       0       0       0       0       0       0       0       0       0
       0       0       0       0       0       0       0       0       0       0
       0       0       0       0       0       0       0       0       0       0
       0       0       0       0       0       0       0       0       0       0
       0       0       0       0       0       0       0       0       0       0
       0       0       0       0       0       0       0       0       0       0
       0       0       0       0       0       0       0       0       0       0
       0       0       0       0       0       0       0       0       0       0
       0       0       0       0       0       0       0       0       0       0
       0       0       0       0       0       0       0       0       0       0
       0       0       0       0       0       0       0       0       0       0
       0       0       0       0       0       0       0       0       0       0
       0       0       0       0       0       0       0       0       0       0
       0       0       0       0       0       0       0       0       0       0
       0       0       0       0       0       0       0       0       0       0
       0       0       0       0       0       0       0       0       0       0
       0       0       0       0       0       0       0       0       0       0
       0       0       0       0       0       0       0       0       0       0
       0       0       0       0       0       0       0       0       0       0
       0       0       0       0       0       0       0       0       0       0
       0       0       0       0       0       0       0       0       0       0
       0       0       0       0       0       0       0       0       0       0
       0       0       0       0       0       0       0       0       0       0
       0       0       0       0       0       0       0       0       0       0
       0       0       0       0       0       0       0       0       0       0
       0       0       0       0       0       0       0       0       0       0
       0       0       0       0       0       0       0       0       0       0
       0       0       0       0       0       0       0       0       0       0
       0       0       0       0       0       0       0       0       0       0
       0       0       0       0       0       0       0       0       0       0
       0       0       0       0       0       0       0       0       0       0
       0       0       0       0       0       0       0       0       0       0
       0       0       0       0       0       0       0       0       0       0
       0       0       0       0       0       0       0       0       0       0
       0       0       0       0       0       0       0       0       0       0
       0       0       0       0       0       0       0       0       0       0
       0       0       0       0       0       0       0       0       0       0
       0       0       0       0       0       0       0       0       0       0
       0       0       0       0       0       0       0       0       0       0
       0       0       0       0       0       0       0       0       0       0
       0       0       0       0       0       0       0       0       0       0
       0       0       0       0       0       0       0       0       0       0
       0       0       0       0       0       0       0       0       0       0
       0       0       0       0       0       0       0       0       0       0
       0       0       0       0       0       0       0       0       0       0
       0       0       0       0       0       0       0       0       0       0
       0       0       0       0       0       0       0       0       0       0
       0       0       0       0       0       0       0       0       0       0
       0       0       0       0       0       0       0       0       0       0
       0       0       0       0       0       0       0       0       0       0
       0       0       0       0       0       0       0       0       0       0
       0       0       0       0       0       0       0       0       0       0
       0       0       0       0       0       0       0       0       0       0
       0       0       0       0       0       0       0       0       0       0
       0       0       0       0       0       0       0       0       0       0
       0       0       0       0       0       0       0       0       0       0
       0       0       0       0       0       0       0       0       0       0
       0       0       0       0       0       0       0       0       0       0
       0       0       0       0       0       0       0       0       0       0
       0       0       0       0       0       0       0       0       0       0
       0       0       0       0       0       0       0       0       0       0
       0       0       0       0       0       0       0       0       0       0
       0       0       0       0       0       0       0       0       0       0
       0       0       0       0       0       0       0       0       0       0
       0       0       0       0       0       0       0       0       0       0
       0       0       0       0       0       0       0       0       0       0
       0       0       0       0       0       0       0       0       0       0
       0       0       0       0       0       0       0       0       0       0
       0       0       0       0       0       0       0       0       0       0
       0       0       0       0       0       0       0       0       0       0
       0       0       0       0       0       0       0       0       0       0
       0       0       0       0       0       0       0       0       0       0
       0       0       0       0       0       0       0       0       0       0
       0       0       0       0       0       0       0       0       0       0
       0       0       0       0       0       0       0       0       0       0
       0       0       0       0       0       0       0       0       0       0
       0       0       0       0       0       0       0       0       0       0
       0       0       0       0       0       0       0       0       0       0
       0       0       0       0       0       0       0       0       0       0
       0       0       0       0       0       0       0       0       0       0
       0       0       0       0       0       0       0       0       0       0
       0       0       0       0       0       0       0       0       0       0
       0       0       0       0       0       0       0       0       0       0
       0       0       0       0       0       0       0       0       0       0
       0       0       0       0       0       0       0       0       0       0
       0       0       0       0       0       0       0       0       0       0
       0       0       0       0       0       0       0       0       0       0
       0       0       0       0       0       0       0       0       0       0
       0       0       0       0       0       0       0       0       0       0
       0       0       0       0       0       0       0       0       0       0
       0       0       0       0       0       0       0       0       0       0
       0       0       0       0       0       0       0       0       0       0
       0       0       0       0       0       0       0       0       0       0
       0       0       0       0       0       0       0       0       0       0
       0       0       0       0       0       0       0       0       0       0
       0       0       0       0       0       0       0       0       0       0
       0       0       0       0       0       0       0       0       0       0
       0       0       0       0       0       0       0       0       0       0
       0       0       0       0       0       0       0       0       0       0
       0       0       0       0       0       0       0       0       0       0
       0       0       0       0       0       0       0       0       0       0
       0       0       0       0       0       0       0       0       0       0
       0       0       0       0       0       0       0       0       0       0
       0       0       0       0       0       0       0       0       0       0
       0       0       0       0       0       0       0       0       0       0
       0       0       0       0       0       0       0       0       0       0
       0       0       0       0       0       0       0       0       0       0
       0       0       0       0       0       0       0       0       0       0
       0       0       0       0       0       0       0       0       0       0
       0       0       0       0       0       0       0       0       0       0
       0       0       0       0       0       0       0       0       0       0
       0       0       0       0       0       0       0       0       0       0
       0       0       0       0       0       0       0       0       0       0
       0       0       0       0       0       0       0       0       0       0
       0       0       0       0       0       0       0       0       0       0
       0       0       0       0       0       0       0       0       0       0
       0       0       0       0       0       0       0       0       0       0
       0       0       0       0       0       0       0       0       0       0
       0       0       0       0       0       0       0       0       0       0
       0       0       0       0       0       0       0       0       0       0
       0       0       0       0       0       0       0       0       0       0
       0       0       0       0       0       0       0       0       0       0
       0       0       0       0       0       0       0       0       0       0
       0       0       0       0       0       0       0       0       0       0
       0       0       0       0       0       0       0       0       0       0
       0       0       0       0       0       0       0       0       0       0
       0       0       0       0       0       0       0       0       0       0
       0       0       0       0       0       0       0       0       0       0
       0       0       0       0       0       0       0       0       0       0
       0       0       0       0       0       0       0       0       0       0
       0       0       0       0       0       0       0       0       0       0
       0       0       0       0       0       0       0       0       0       0
       0       0       0       0       0       0       0       0       0       0
       0       0       0       0       0       0       0       0       0       0
       0       0       0       0       0       0       0       0       0       0
       0       0       0       0       0       0       0       0       0       0
       0       0       0       0       0       0       0       0       0       0
       0       0       0       0       0       0       0       0       0       0
       0       0       0       0       0       0       0       0       0       0
       0       0       0       0       0       0       0       0       0       0
       0       0       0       0       0       0       0       0       0       0
       0       0       0       0       0       0       0       0       0       0
       0       0       0       0       0       0       0       0       0       0
       0       0       0       0       0       0       0       0       0       0
       0       0       0       0       0       0       0       0       0       0
       0       0       0       0       0       0       0       0       0       0
       0       0       0       0       0       0       0       0       0       0
       0       0       0       0       0       0       0       0       0       0
       0       0       0       0       0       0       0       0       0       0
       0       0       0       0       0       0       0       0       0       0
       0       0       0       0       0       0       0       0       0       0
       0       0       0       0       0       0       0       0       0       0
       0       0       0       0       0       0       0       0       0       0
       0       0       0       0       0       0       0       0       0       0
       0       0       0       0       0       0       0       0       0       0
       0       0       0       0       0       0       0       0       0       0
       0       0       0       0       0       0       0       0       0       0
       0       0       0       0       0       0       0       0       0       0
       0       0       0       0       0       0       0       0       0       0
       0       0       0       0       0       0       0       0       0       0
       0       0       0       0       0       0       0       0       0       0
       0       0       0       0       0       0       0       0       0       0
       0       0       0       0       0       0       0       0       0       0
       0       0       0       0       0       0       0       0       0       0
       0       0       0       0       0       0       0       0       0       0
       0       0       0       0       0       0       0       0       0       0
       0       0       0       0       0       0       0       0       0       0
       0       0       0       0       0       0       0       0       0       0
       0       0       0       0       0       0       0       0       0       0
       0       0       0       0       0       0       0       0       0       0
       0       0       0       0       0       0       0       0       0       0
       0       0       0       0       0       0       0       0       0       0
       0       0       0       0       0       0       0       0       0       0
       0       0       0       0       0       0       0       0       0       0
       0       0       0       0       0       0       0       0       0       0
       0       0       0       0       0       0       0       0       0       0
       0       0       0       0       0       0       0       0       0       0
       0       0       0       0       0       0       0       0       0       0
       0       0       0       0       0       0       0       0       0       0
       0       0       0       0       0       0       0       0       0       0
       0       0       0       0       0       0       0       0       0       0
       0       0       0       0       0       0       0       0       0       0
       0       0       0       0       0       0       0       0       0       0
       0       0       0       0       0       0       0       0       0       0
       0       0       0       0       0       0       0       0       0       0
       0       0       0       0       0       0       0       0       0       0
       0       0       0       0       0       0       0       0       0       0
       0       0       0       0       0       0       0       0       0       0
       0       0       0       0       0       0       0       0       0       0
       0       0       0       0       0       0       0       0       0       0
       0       0       0       0       0       0       0       0       0       0
       0       0       0       0       0       0       0       0       0       0
       0       0       0       0       0       0       0       0       0       0
       0       0       0       0       0       0       0       0       0       0
       0       0       0       0       0       0       0       0       0       0
       0       0       0       0       0       0       0       0       0       0
       0       0       0       0       0       0       0       0       0       0
       0       0       0       0       0       0       0       0       0       0
       0       0       0       0       0       0       0       0       0       0
       0       0       0       0       0       0       0       0       0       0
       0       0       0       0       0       0       0       0       0       0
       0       0       0       0       0       0       0       0       0       0
       0       0       0       0       0       0       0       0       0       0
       0       0       0       0       0       0       0       0       0       0
       0       0       0       0       0       0       0       0       0       0
       0       0       0       0       0       0       0       0       0       0
       0       0       0       0       0       0       0       0       0       0
       0       0       0       0       0       0       0       0       0       0
       0       0       0       0       0       0       0       0       0       0
       0       0       0       0       0       0       0       0       0       0
       0       0       0       0       0       0       0       0       0       0
       0       0       0       0       0       0       0       0       0       0
       0       0       0       0       0       0       0       0       0       0
       0       0       0       0       0       0       0       0       0       0
       0       0       0       0       0       0       0       0       0       0
       0       0       0       0       0       0       0       0       0       0
       0       0       0       0       0       0       0       0       0       0
       0       0       0       0       0       0       0       0       0       0
       0       0       0       0       0       0       0       0       0       0
       0       0       0       0       0       0       0       0       0       0
       0       0       0       0       0       0       0       0       0       0
       0       0       0       0       0       0       0       0       0       0
       0       0       0       0       0       0       0       0       0       0
       0       0       0       0       0       0       0       0       0       0
       0       0       0       0       0       0       0       0       0       0
       0       0       0       0       0       0       0       0       0       0
       0       0       0       0       0       0       0       0       0       0
       0       0       0       0       0       0       0       0       0       0
       0       0       0       0       0       0       0       0       0       0
       0       0       0       0       0       0       0       0       0       0
       0       0       0       0       0       0       0       0       0       0
       0       0       0       0       0       0       0       0       0       0
       0       0       0       0       0       0       0       0       0       0
       0       0       0       0       0       0       0       0       0       0
       0       0       0       0       0       0       0       0       0       0
       0       0       0       0       0       0       0       0       0       0
       0       0       0       0       0       0       0       0       0       0
       0       0       0       0       0       0       0       0       0       0
       0       0       0       0       0       0       0       0       0       0
       0       0       0       0       0       0       0       0       0       0
       0       0       0       0       0       0       0       0       0       0
       0       0       0       0       0       0       0       0       0       0
       0       0       0       0       0       0       0       0       0       0
       0       0       0       0       0       0       0       0       0       0
       0       0       0       0       0       0       0       0       0       0
       0       0       0       0       0       0       0       0       0       0
       0       0       0       0       0       0       0       0       0       0
       0       0       0       0       0       0       0       0       0       0
       0       0       0       0       0       0       0       0       0       0
       0       0       0       0       0       0       0       0       0       0
       0       0       0       0       0       0       0       0       0       0
       0       0       0       0       0       0       0       0       0       0
       0       0       0       0       0       0       0       0       0       0
       0       0       0       0       0       0       0       0       0       0
       0       0       0       0       0       0       0       0       0       0
       0       0       0       0       0       0       0       0       0       0
       0       0       0       0       0       0       0       0       0       0
       0       0       0       0       0       0       0       0       0       0
       0       0       0       0       0       0       0       0       0       0
       0       0       0       0       0       0       0       0       0       0
       0       0       0       0       0       0       0       0       0       0
       0       0       0       0       0       0       0       0       0       0
       0       0       0       0       0       0       0       0       0       0
       0       0       0       0       0       0       0       0       0       0
       0       0       0       0       0       0       0       0       0       0
       0       0       0       0       0       0       0       0       0       0
       0       0       0       0       0       0       0       0       0       0
       0       0       0       0       0       0       0       0       0       0
       0       0       0       0       0       0       0       0       0       0
       0       0       0       0       0       0       0       0       0       0
       0       0       0       0       0       0       0       0       0       0
       0       0       0       0       0       0       0       0       0       0
       0       0       0       0       0       0       0       0       0       0
       0       0       0       0       0       0       0       0       0       0
       0       0       0       0       0       0       0       0       0       0
       0       0       0       0       0       0       0       0       0       0
       0       0       0       0       0       0       0       0       0       0
       0       0       0       0       0       0       0       0       0       0
       0       0       0       0       0       0       0       0       0       0
       0       0       0       0       0       0       0       0       0       0
       0       0       0       0       0       0       0       0       0       0
       0       0       0       0       0       0       0       0       0       0
       0       0       0       0       0       0       0       0       0       0
       0       0       0       0       0       0       0       0       0       0
       0       0       0       0       0       0       0       0       0       0
       0       0       0       0       0       0       0       0       0       0
       0       0       0       0       0       0       0       0       0       0
       0       0       0       0       0       0       0       0       0       0
       0       0       0       0       0       0       0       0       0       0
       0       0       0       0       0       0       0       0       0       0
       0       0       0       0       0       0       0       0       0       0
       0       0       0       0       0       0       0       0       0       0
       0       0       0       0       0       0       0       0       0       0
       0       0       0       0       0       0       0       0       0       0
       0       0       0       0       0       0       0       0       0       0
       0       0       0       0       0       0       0       0       0       0
       0       0       0       0       0       0       0       0       0       0
       0       0       0       0       0       0       0       0       0       0
       0       0       0       0       0       0       0       0       0       0
       0       0       0       0       0       0       0       0       0       0
       0       0       0       0       0       0       0       0       0       0
       0       0       0       0       0       0       0       0       0       0
       0       0       0       0       0       0       0       0       0       0
       0       0       0       0       0       0       0       0       0       0
       0       0       0       0       0       0       0       0       0       0
       0       0       0       0       0       0       0       0       0       0
       0       0       0       0       0       0       0       0       0       0
       0       0       0       0       0       0       0       0       0       0
       0       0       0       0       0       0       0       0       0       0
       0       0       0       0       0       0       0       0       0       0
       0       0       0       0       0       0       0       0       0       0
       0       0       0       0       0       0       0       0       0       0
       0       0       0       0       0       0       0       0       0       0
       0       0       0       0       0       0       0       0       0       0
       0       0       0       0       0       0       0       0       0       0
       0       0       0       0       0       0       0       0       0       0
       0       0       0       0       0       0       0       0       0       0
       0       0       0       0       0       0       0       0       0       0
       0       0       0       0       0       0       0       0       0       0
       0       0       0       0       0       0       0       0       0       0
       0       0       0       0       0       0       0       0       0       0
       0       0       0       0       0       0       0       0       0       0
       0       0       0       0       0       0       0       0       0       0
       0       0       0       0       0       0       0       0       0       0
       0       0       0       0       0       0       0       0       0       0
       0       0       0       0       0       0       0       0       0       0
       0       0       0       0       0       0       0       0       0       0
       0       0       0       0       0       0       0       0       0       0
       0       0       0       0       0       0       0       0       0       0
       0       0       0       0       0       0       0       0       0       0
       0       0       0       0       0       0       0       0       0       0
       0       0       0       0       0       0       0       0       0       0
       0       0       0       0       0       0       0       0       0       0
       0       0       0       0       0       0       0       0       0       0
       0       0       0       0       0       0       0       0       0       0
       0       0       0       0       0       0       0       0       0       0
       0       0       0       0       0       0       0       0       0       0
       0       0       0       0       0       0       0       0       0       0
       0       0       0       0       0       0       0       0       0       0
       0       0       0       0       0       0       0       0       0       0
       0       0       0       0       0       0       0       0       0       0
       0       0       0       0       0       0       0       0       0       0
       0       0       0       0       0       0       0       0       0       0
       0       0       0       0       0       0       0       0       0       0
       0       0       0       0       0       0       0       0       0       0
       0       0       0       0       0       0       0       0       0       0
       0       0       0       0       0       0       0       0       0       0
       0       0       0       0       0       0       0       0       0       0
       0       0       0       0       0       0       0       0       0       0
       0       0       0       0       0       0       0       0       0       0
       0       0       0       0       0       0       0       0       0       0
       0       0       0       0       0       0       0       0       0       0
       0       0       0       0       0       0       0       0       0       0
       0       0       0       0       0       0       0       0       0       0
       0       0       0       0       0       0       0       0       0       0
       0       0       0       0       0       0       0       0       0       0
       0       0       0       0       0       0       0       0       0       0
       0       0       0       0       0       0       0       0       0       0
       0       0       0       0       0       0       0       0       0       0
       0       0       0       0       0       0       0       0       0       0
       0       0       0       0       0       0       0       0       0       0
       0       0       0       0       0       0       0       0       0       0
       0       0       0       0       0       0       0       0       0       0
       0       0       0       0       0       0       0       0       0       0
       0       0       0       0       0       0       0       0       0       0
       0       0       0       0       0       0       0       0       0       0
       0       0       0       0       0       0       0       0       0       0
       0       0       0       0       0       0       0       0       0       0
       0       0       0       0       0       0       0       0       0       0
       0       0       0       0       0       0       0       0       0       0
       0       0       0       0       0       0       0       0       0       0
       0       0       0       0       0       0       0       0       0       0
       0       0       0       0       0       0       0       0       0       0
       0       0       0       0       0       0       0       0       0       0
       0       0       0       0       0       0       0       0       0       0
       0       0       0       0       0       0       0       0       0       0
       0       0       0       0       0       0       0       0       0       0
       0       0       0       0       0       0       0       0       0       0
       0       0       0       0       0       0       0       0       0       0
       0       0       0       0       0       0       0       0       0       0
       0       0       0       0       0       0       0       0       0       0
       0       0       0       0       0       0       0       0       0       0
       0       0       0       0       0       0       0       0       0       0
       0       0       0       0       0       0       0       0       0       0
       0       0       0       0       0       0       0       0       0       0
       0       0       0       0       0       0       0       0       0       0
       0       0       0       0       0       0       0       0       0       0
       0       0       0       0       0       0       0       0       0       0
       0       0       0       0       0       0       0       0       0       0
       0       0       0       0       0       0       0       0       0       0
       0       0       0       0       0       0       0       0       0       0
       0       0       0       0       0       0       0       0       0       0
       0       0       0       0       0       0       0       0       0       0
       0       0       0       0       0       0       0       0       0       0
       0       0       0       0       0       0       0       0       0       0
       0       0       0       0       0       0       0       0       0       0
       0       0       0       0       0       0       0       0       0       0
       0       0       0       0       0       0       0       0       0       0
       0       0       0       0       0       0       0       0       0       0
       0       0       0       0       0       0       0       0       0       0
       0       0       0       0       0       0       0       0       0       0
       0       0       0       0       0       0       0       0       0       0
       0       0       0       0       0       0       0       0       0       0
       0       0       0       0       0       0       0       0       0       0
       0       0       0       0       0       0       0       0       0       0
       0       0       0       0       0       0       0       0       0       0
       0       0       0       0       0       0       0       0       0       0
       0       0       0       0       0       0       0       0       0       0
       0       0       0       0       0       0       0       0       0       0
       0       0       0       0       0       0       0       0       0       0
       0       0       0       0       0       0       0       0       0       0
       0       0       0       0       0       0       0       0       0       0
       0       0       0       0       0       0       0       0       0       0
       0       0       0       0       0       0       0       0       0       0
       0       0       0       0       0       0       0       0       0       0
       0       0       0       0       0       0       0       0       0       0
       0       0       0       0       0       0       0       0       0       0
       0       0       0       0       0       0       0       0       0       0
       0       0       0       0       0       0       0       0       0       0
       0       0       0       0       0       0       0       0       0       0
       0       0       0       0       0       0       0       0       0       0
       0       0       0       0       0       0       0       0       0       0
       0       0       0       0       0       0       0       0       0       0
       0       0       0       0       0       0       0       0       0       0
       0       0       0       0       0       0       0       0       0       0
       0       0       0       0       0       0       0       0       0       0
       0       0       0       0       0       0       0       0       0       0
       0       0       0       0       0       0       0       0       0       0
       0       0       0       0       0       0       0       0       0       0
       0       0       0       0       0       0       0       0       0       0
       0       0       0       0       0       0       0       0       0       0
       0       0       0       0       0       0       0       0       0       0
       0       0       0       0       0       0       0       0       0       0
       0       0       0       0       0       0       0       0       0       0
       0       0       0       0       0       0       0       0       0       0
       0       0       0       0       0       0       0       0       0       0
       0       0       0       0       0       0       0       0       0       0
       0       0       0       0       0       0       0       0       0       0
       0       0       0       0       0       0       0       0       0       0
       0       0       0       0       0       0       0       0       0       0
       0       0       0       0       0       0       0       0       0       0
       0       0       0       0       0       0       0       0       0       0
       0       0       0       0       0       0       0       0       0       0
       0       0       0       0       0       0       0       0       0       0
       0       0       0       0       0       0       0       0       0       0
       0       0       0       0       0       0       0       0       0       0
       0       0       0       0       0       0       0       0       0       0
       0       0       0       0       0       0       0       0       0       0
       0       0       0       0       0       0       0       0       0       0
       0       0       0       0       0       0       0       0       0       0
       0       0       0       0       0       0       0       0       0       0
       0       0       0       0       0       0       0       0       0       0
       0       0       0       0       0       0       0       0       0       0
       0       0       0       0       0       0       0       0       0       0
       0       0       0       0       0       0       0       0       0       0
       0       0       0       0       0       0       0       0       0       0
       0       0       0       0       0       0       0       0       0       0
       0       0       0       0       0       0       0       0       0       0
       0       0       0       0       0       0       0       0       0       0
       0       0       0       0       0       0       0       0       0       0
       0       0       0       0       0       0       0       0       0       0
       0       0       0       0       0       0       0       0       0       0
       0       0       0       0       0       0       0       0       0       0
       0       0       0       0       0       0       0       0       0       0
       0       0       0       0       0       0       0       0       0       0
       0       0       0       0       0       0       0       0       0       0
       0       0       0       0       0       0       0       0       0       0
       0       0       0       0       0       0       0       0       0       0
       0       0       0       0       0       0       0       0       0       0
       0       0       0       0       0       0       0       0       0       0
       0       0       0       0       0       0       0       0       0       0
       0       0       0       0       0       0       0       0       0       0
       0       0       0       0       0       0       0       0       0       0
       0       0       0       0       0       0       0       0       0       0
       0       0       0       0       0       0       0       0       0       0
       0       0       0       0       0       0       0       0       0       0
       0       0       0       0       0       0       0       0       0       0
       0       0       0       0       0       0       0       0       0       0
       0       0       0       0       0       0       0       0       0       0
       0       0       0       0       0       0       0       0       0       0
       0       0       0       0       0       0       0       0       0       0
       0       0       0       0       0       0       0       0       0       0
       0       0       0       0       0       0       0       0       0       0
       0       0       0       0       0       0       0       0       0       0
       0       0       0       0       0       0       0       0       0       0
       0       0       0       0       0       0       0       0       0       0
       0       0       0       0       0       0       0       0       0       0
       0       0       0       0       0       0       0       0       0       0
       0       0       0       0       0       0       0       0       0       0
       0       0       0       0       0       0       0       0       0       0
       0       0       0       0       0       0       0       0       0       0
       0       0       0       0       0       0       0       0       0       0
       0       0       0       0       0       0       0       0       0       0
       0       0       0       0       0       0       0       0       0       0
       0       0       0       0       0       0       0       0       0       0
       0       0       0       0       0       0       0       0       0       0
       0       0       0       0       0       0       0       0       0       0
       0       0       0       0       0       0       0       0       0       0
       0       0       0       0       0       0       0       0       0       0
       0       0       0       0       0       0       0       0       0       0
       0       0       0       0       0       0       0       0       0       0
       0       0       0       0       0       0       0       0       0       0
       0       0       0       0       0       0       0       0       0       0
       0       0       0       0       0       0       0       0       0       0
       0       0       0       0       0       0       0       0       0       0
       0       0       0       0       0       0       0       0       0       0
       0       0       0       0       0       0       0       0       0       0
       0       0       0       0       0       0       0       0       0       0
       0       0       0       0       0       0       0       0       0       0
       0       0       0       0       0       0       0       0       0       0
       0       0       0       0       0       0       0       0       0       0
       0       0       0       0       0       0       0       0       0       0
       0       0       0       0       0       0       0       0       0       0
       0       0       0       0       0       0       0       0       0       0
       0       0       0       0       0       0       0       0       0       0
       0       0       0       0       0       0       0       0       0       0
       0       0       0       0       0       0       0       0       0       0
       0       0       0       0       0       0       0       0       0       0
       0       0       0       0       0       0       0       0       0       0
       0       0       0       0       0       0       0       0       0       0
       0       0       0       0       0       0       0       0       0       0
       0       0       0       0       0       0       0       0       0       0
       0       0       0       0       0       0       0       0       0       0
       0       0       0       0       0       0       0       0       0       0
       0       0       0       0       0       0       0       0       0       0
       0       0       0       0       0       0       0       0       0       0
       0       0       0       0       0       0       0       0       0       0
       0       0       0       0       0       0       0       0       0       0
       0       0       0       0       0       0       0       0       0       0
       0       0       0       0       0       0       0       0       0       0
       0       0       0       0       0       0       0       0       0       0
       0       0       0       0       0       0       0       0       0       0
       0       0       0       0       0       0       0       0       0       0
       0       0       0       0       0       0       0       0       0       0
       0       0       0       0       0       0       0       0       0       0
       0       0       0       0       0       0       0       0       0       0
       0       0       0       0       0       0       0       0       0       0
       0       0       0       0       0       0       0       0       0       0
       0       0       0       0       0       0       0       0       0       0
       0       0       0       0       0       0       0       0       0       0
       0       0       0       0       0       0       0       0       0       0
       0       0       0       0       0       0       0       0       0       0
       0       0       0       0       0       0       0       0       0       0
       0       0       0       0       0       0       0       0       0       0
       0       0       0       0       0       0       0       0       0       0
       0       0       0       0       0       0       0       0       0       0
       0       0       0       0       0       0       0       0       0       0
       0       0       0       0       0       0       0       0       0       0
       0       0       0       0       0       0       0       0       0       0
       0       0       0       0       0       0       0       0       0       0
       0       0       0       0       0       0       0       0       0       0
       0       0       0       0       0       0       0       0       0       0
       0       0       0       0       0       0       0       0       0       0
       0       0       0       0       0       0       0       0       0       0
       0       0       0       0       0       0       0       0       0       0
       0       0       0       0       0       0       0       0       0       0
       0       0       0       0       0       0       0       0       0       0
       0       0       0       0       0       0       0       0       0       0
       0       0       0       0       0       0       0       0       0       0
       0       0       0       0       0       0       0       0       0       0
       0       0       0       0       0       0       0       0       0       0
       0       0       0       0       0       0       0       0       0       0
       0       0       0       0       0       0       0       0       0       0
       0       0       0       0       0       0       0       0       0       0
       0       0       0       0       0       0       0       0       0       0
       0       0       0       0       0       0       0       0       0       0
       0       0       0       0       0       0       0       0       0       0
       0       0       0       0       0       0       0       0       0       0
       0       0       0       0       0       0       0       0       0       0
       0       0       0       0       0       0       0       0       0       0
       0       0       0       0       0       0       0       0       0       0
       0       0       0       0       0       0       0       0       0       0
       0       0       0       0       0       0       0       0       0       0
       0       0       0       0       0       0       0       0       0       0
       0       0       0       0       0       0       0       0       0       0
       0       0       0       0       0       0       0       0       0       0
       0       0       0       0       0       0       0       0       0       0
       0       0       0       0       0       0       0       0       0       0
       0       0       0       0       0       0       0       0       0       0
       0       0       0       0       0       0       0       0       0       0
       0       0       0       0       0       0       0       0       0       0
       0       0       0       0       0       0       0       0       0       0
       0       0       0       0       0       0       0       0       0       0
       0       0       0       0       0       0       0       0       0       0
       0       0       0       0       0       0       0       0       0       0
       0       0       0       0       0       0       0       0       0       0
       0       0       0       0       0       0       0       0       0       0
       0       0       0       0       0       0       0       0       0       0
       0       0       0       0       0       0       0       0       0       0
       0       0       0       0       0       0       0       0       0       0
       0       0       0       0       0       0       0       0       0       0
       0       0       0       0       0       0       0       0       0       0
       0       0       0       0       0       0       0       0       0       0
       0       0       0       0       0       0       0       0       0       0
       0       0       0       0       0       0       0       0       0       0
       0       0       0       0       0       0       0       0       0       0
       0       0       0       0       0       0       0       0       0       0
       0       0       0       0       0       0       0       0       0       0
       0       0       0       0       0       0       0       0       0       0
       0       0       0       0       0       0       0       0       0       0
       0       0       0       0       0       0       0       0       0       0
       0       0       0       0       0       0       0       0       0       0
       0       0       0       0       0       0       0       0       0       0
       0       0       0       0       0       0       0       0       0       0
       0       0       0       0       0       0       0       0       0       0
       0       0       0       0       0       0       0       0       0       0
       0       0       0       0       0       0       0       0       0       0
       0       0       0       0       0       0       0       0       0       0
       0       0       0       0       0       0       0       0       0       0
       0       0       0       0       0       0       0       0       0       0
       0       0       0       0       0       0       0       0       0       0
       0       0       0       0       0       0       0       0       0       0
       0       0       0       0       0       0       0       0       0       0
       0       0       0       0       0       0       0       0       0       0
       0       0       0       0       0       0       0       0       0       0
       0       0       0       0       0       0       0       0       0       0
       0       0       0       0       0       0       0       0       0       0
       0       0       0       0       0       0       0       0       0       0
       0       0       0       0       0       0       0       0       0       0
       0       0       0       0       0       0       0       0       0       0
       0       0       0       0       0       0       0       0       0       0
       0       0       0       0       0       0       0       0       0       0
       0       0       0       0       0       0       0       0       0       0
       0       0       0       0       0       0       0       0       0       0
       0       0       0       0       0       0       0       0       0       0
       0       0       0       0       0       0       0       0       0       0
       0       0       0       0       0       0       0       0       0       0
       0       0       0       0       0       0       0       0       0       0
       0       0       0       0       0       0       0       0       0       0
       0       0       0       0       0       0       0       0       0       0
       0       0       0       0       0       0       0       0       0       0
       0       0       0       0       0       0       0       0       0       0
       0       0       0       0       0       0       0       0       0       0
       0       0       0       0       0       0       0       0       0       0
       0       0       0       0       0       0       0       0       0       0
       0       0       0       0       0       0       0       0       0       0
       0       0       0       0       0       0       0       0       0       0
       0       0       0       0       0       0       0       0       0       0
       0       0       0       0       0       0       0       0       0       0
       0       0       0       0       0       0       0       0       0       0
       0       0       0       0       0       0       0       0       0       0
       0       0       0       0       0       0       0       0       0       0
       0       0       0       0       0       0       0       0       0       0
       0       0       0       0       0       0       0       0       0       0
       0       0       0       0       0       0       0       0       0       0
       0       0       0       0       0       0       0       0       0       0
       0       0       0       0       0       0       0       0       0       0
       0       0       0       0       0       0       0       0       0       0
       0       0       0       0       0       0       0       0       0       0
       0       0       0       0       0       0       0       0       0       0
       0       0       0       0       0       0       0       0       0       0
       0       0       0       0       0       0       0       0       0       0
       0       0       0       0       0       0       0       0       0       0
       0       0       0       0       0       0       0       0       0       0
       0       0       0       0       0       0       0       0       0       0
       0       0       0       0       0       0       0       0       0       0
       0       0       0       0       0       0       0       0       0       0
       0       0       0       0       0       0       0       0       0       0
       0       0       0       0       0       0       0       0       0       0
       0       0       0       0       0       0       0       0       0       0
       0       0       0       0       0       0       0       0       0       0
       0       0       0       0       0       0       0       0       0       0
       0       0       0       0       0       0       0       0       0       0
       0       0       0       0       0       0       0       0       0       0
       0       0       0       0       0       0       0       0       0       0
       0       0       0       0       0       0       0       0       0       0
       0       0       0       0       0       0       0       0       0       0
       0       0       0       0       0       0       0       0       0       0
       0       0       0       0       0       0       0       0       0       0
       0       0       0       0       0       0       0       0       0       0
       0       0       0       0       0       0       0       0       0       0
       0       0       0       0       0       0       0       0       0       0
       0       0       0       0       0       0       0       0       0       0
       0       0       0       0       0       0       0       0       0       0
       0       0       0       0       0       0       0       0       0       0
       0       0       0       0       0       0       0       0       0       0
       0       0       0       0       0       0       0       0       0       0
       0       0       0       0       0       0       0       0       0       0
       0       0       0       0       0       0       0       0       0       0
       0       0       0       0       0       0       0       0       0       0
       0       0       0       0       0       0       0       0       0       0
       0       0       0       0       0       0       0       0       0       0
       0       0       0       0       0       0       0       0       0       0
       0       0       0       0       0       0       0       0       0       0
       0       0       0       0       0       0       0       0       0       0
       0       0       0       0       0       0       0       0       0       0
       0       0       0       0       0       0       0       0       0       0
       0       0       0       0       0       0       0       0       0       0
       0       0       0       0       0       0       0       0       0       0
       0       0       0       0       0       0       0       0       0       0
       0       0       0       0       0       0       0       0       0       0
       0       0       0       0       0       0       0       0       0       0
       0       0       0       0       0       0       0       0       0       0
       0       0       0       0       0       0       0       0       0       0
       0       0       0       0       0       0       0       0       0       0
       0       0       0       0       0       0       0       0       0       0
       0       0       0       0       0       0       0       0       0       0
       0       0       0       0       0       0       0       0       0       0
       0       0       0       0       0       0       0       0       0       0
       0       0       0       0       0       0       0       0       0       0
       0       0       0       0       0       0       0       0       0       0
       0       0       0       0       0       0       0       0       0       0
       0       0       0       0       0       0       0       0       0       0
       0       0       0       0       0       0       0       0       0       0
       0       0       0       0       0       0       0       0       0       0
       0       0       0       0       0       0       0       0       0       0
       0       0       0       0       0       0       0       0       0       0
       0       0       0       0       0       0       0       0       0       0
       0       0       0       0       0       0       0       0       0       0
       0       0       0       0       0       0       0       0       0       0
       0       0       0       0       0       0       0       0       0       0
       0       0       0       0       0       0       0       0       0       0
       0       0       0       0       0       0       0       0       0       0
       0       0       0       0       0       0       0       0       0       0
       0       0       0       0       0       0       0       0       0       0
       0       0       0       0       0       0       0       0       0       0
       0       0       0       0       0       0       0       0       0       0
       0       0       0       0       0       0       0       0       0       0
       0       0       0       0       0       0       0       0       0       0
       0       0       0       0       0       0       0       0       0       0
       0       0       0       0       0       0       0       0       0       0
       0       0       0       0       0       0       0       0       0       0
       0       0       0       0       0       0       0       0       0       0
       0       0       0       0       0       0       0       0       0       0
       0       0       0       0       0       0       0       0       0       0
       0       0       0       0       0       0       0       0       0       0
       0       0       0       0       0       0       0       0       0       0
       0       0       0       0       0       0       0       0       0       0
       0       0       0       0       0       0       0       0       0       0
       0       0       0       0       0       0       0       0       0       0
       0       0       0       0       0       0       0       0       0       0
       0       0       0       0       0       0       0       0       0       0
       0       0       0       0       0       0       0       0       0       0
       0       0       0       0       0       0       0       0       0       0
       0       0       0       0       0       0       0       0       0       0
       0       0       0       0       0       0       0       0       0       0
       0       0       0       0       0       0       0       0       0       0
       0       0       0       0       0       0       0       0       0       0
       0       0       0       0       0       0       0       0       0       0
       0       0       0       0       0       0       0       0       0       0
       0       0       0       0       0       0       0       0       0       0
       0       0       0       0       0       0       0       0       0       0
       0       0       0       0       0       0       0       0       0       0
       0       0       0       0       0       0       0       0       0       0
       0       0       0       0       0       0       0       0       0       0
       0       0       0       0       0       0       0       0       0       0
       0       0       0       0       0       0       0       0       0       0
       0       0       0       0       0       0       0       0       0       0
       0       0       0       0       0       0       0       0       0       0
       0       0       0       0       0       0       0       0       0       0
       0       0       0       0       0       0       0       0       0       0
       0       0       0       0       0       0       0       0       0       0
       0       0       0       0       0       0       0       0       0       0
       0       0       0       0       0       0       0       0       0       0
       0       0       0       0       0       0       0       0       0       0
       0       0       0       0       0       0       0       0       0       0
       0       0       0       0       0       0       0       0       0       0
       0       0       0       0       0       0       0       0       0       0
       0       0       0       0       0       0       0       0       0       0
       0       0       0       0       0       0       0       0       0       0
       0       0       0       0       0       0       0       0       0       0
       0       0       0       0       0       0       0       0       0       0
       0       0       0       0       0       0       0       0       0       0
       0       0       0       0       0       0       0       0       0       0
       0       0       0       0       0       0       0       0       0       0
       0       0       0       0       0       0       0       0       0       0
       0       0       0       0       0       0       0       0       0       0
       0       0       0       0       0       0       0       0       0       0
       0       0       0       0       0       0       0       0       0       0
       0       0       0       0       0       0       0       0       0       0
       0       0       0       0       0       0       0       0       0       0
       0       0       0       0       0       0       0       0       0       0
       0       0       0       0       0       0       0       0       0       0
       0       0       0       0       0       0       0       0       0       0
       0       0       0       0       0       0       0       0       0       0
       0       0       0       0       0       0       0       0       0       0
       0       0       0       0       0       0       0       0       0       0
       0       0       0       0       0       0       0       0       0       0
       0       0       0       0       0       0       0       0       0       0
       0       0       0       0       0       0       0       0       0       0
       0       0       0       0       0       0       0       0       0       0
       0       0       0       0       0       0       0       0       0       0
       0       0       0       0       0       0       0       0       0       0
       0       0       0       0       0       0       0       0       0       0
       0       0       0       0       0       0       0       0       0       0
       0       0       0       0       0       0       0       0       0       0
       0       0       0       0       0       0       0       0       0       0
       0       0       0       0       0       0       0       0       0       0
       0       0       0       0       0       0       0       0       0       0
       0       0       0       0       0       0       0       0       0       0
       0       0       0       0       0       0       0       0       0       0
       0       0       0       0       0       0       0       0       0       0
       0       0       0       0       0       0       0       0       0       0
       0       0       0       0       0       0       0       0       0       0
       0       0       0       0       0       0       0       0       0       0
       0       0       0       0       0       0       0       0       0       0
       0       0       0       0       0       0       0       0       0       0
       0       0       0       0       0       0       0       0       0       0
       0       0       0       0       0       0       0       0       0       0
       0       0       0       0       0       0       0       0       0       0
       0       0       0       0       0       0       0       0       0       0
       0       0       0       0       0       0       0       0       0       0
       0       0       0       0       0       0       0       0       0       0
       0       0       0       0       0       0       0       0       0       0
       0       0       0       0       0       0       0       0       0       0
       0       0       0       0       0       0       0       0       0       0
       0       0       0       0       0       0       0       0       0       0
       0       0       0       0       0       0       0       0       0       0
       0       0       0       0       0       0       0       0       0       0
       0       0       0       0       0       0       0       0       0       0
       0       0       0       0       0       0       0       0       0       0
       0       0       0       0       0       0       0       0       0       0
       0       0       0       0       0       0       0       0       0       0
       0       0       0       0       0       0       0       0       0       0
       0       0       0       0       0       0       0       0       0       0
       0       0       0       0       0       0       0       0       0       0
       0       0       0       0       0       0       0       0       0       0
       0       0       0       0       0       0       0       0       0       0
       0       0       0       0       0       0       0       0       0       0
       0       0       0       0       0       0       0       0       0       0
       0       0       0       0       0       0       0       0       0       0
       0       0       0       0       0       0       0       0       0       0
       0       0       0       0       0       0       0       0       0       0
       0       0       0       0       0       0       0       0       0       0
       0       0       0       0       0       0       0       0       0       0
       0       0       0       0       0       0       0       0       0       0
       0       0       0       0       0       0       0       0       0       0
       0       0       0       0       0       0       0       0       0       0
       0       0       0       0       0       0       0       0       0       0
       0       0       0       0       0       0       0       0       0       0
       0       0       0       0       0       0       0       0       0       0
       0       0       0       0       0       0       0       0       0       0
       0       0       0       0       0       0       0       0       0       0
       0       0       0       0       0       0       0       0       0       0
       0       0       0       0       0       0       0       0       0       0
       0       0       0       0       0       0       0       0       0       0
       0       0       0       0       0       0       0       0       0       0
       0       0       0       0       0       0       0       0       0       0
       0       0       0       0       0       0       0       0       0       0
       0       0       0       0       0       0       0       0       0       0
       0       0       0       0       0       0       0       0       0       0
       0       0       0       0       0       0       0       0       0       0
       0       0       0       0       0       0       0       0       0       0
       0       0       0       0       0       0       0       0       0       0
       0       0       0       0       0       0       0       0       0       0
       0       0       0       0       0       0       0       0       0       0
       0       0       0       0       0       0       0       0       0       0
       0       0       0       0       0       0       0       0       0       0
       0       0       0       0       0       0       0       0       0       0
       0       0       0       0       0       0       0       0       0       0
       0       0       0       0       0       0       0       0       0       0
       0       0       0       0       0       0       0       0       0       0
       0       0       0       0       0       0       0       0       0       0
       0       0
%FLAG SOLVENT_POINTERS                                                          
%FORMAT(3I8)                                                                    
       6    2224       2
%FLAG ATOMS_PER_MOLECULE                                                        
%FORMAT(10I8)                                                                   
      70       4       4       4       4       4       4       4       4       4
       4       4       4       4       4       4       4       4       4       4
       4       4       4       4       4       4       4       4       4       4
       4       4       4       4       4       4       4       4       4       4
       4       4       4       4       4       4       4       4       4       4
       4       4       4       4       4       4       4       4       4       4
       4       4       4       4       4       4       4       4       4       4
       4       4       4       4       4       4       4       4       4       4
       4       4       4       4       4       4       4       4       4       4
       4       4       4       4       4       4       4       4       4       4
       4       4       4       4       4       4       4       4       4       4
       4       4       4       4       4       4       4       4       4       4
       4       4       4       4       4       4       4       4       4       4
       4       4       4       4       4       4       4       4       4       4
       4       4       4       4       4       4       4       4       4       4
       4       4       4       4       4       4       4       4       4       4
       4       4       4       4       4       4       4       4       4       4
       4       4       4       4       4       4       4       4       4       4
       4       4       4       4       4       4       4       4       4       4
       4       4       4       4       4       4       4       4       4       4
       4       4       4       4       4       4       4       4       4       4
       4       4       4       4       4       4       4       4       4       4
       4       4       4       4       4       4       4       4       4       4
       4       4       4       4       4       4       4       4       4       4
       4       4       4       4       4       4       4       4       4       4
       4       4       4       4       4       4       4       4       4       4
       4       4       4       4       4       4       4       4       4       4
       4       4       4       4       4       4       4       4       4       4
       4       4       4       4       4       4       4       4       4       4
       4       4       4       4       4       4       4       4       4       4
       4       4       4       4       4       4       4       4       4       4
       4       4       4       4       4       4       4       4       4       4
       4       4       4       4       4       4       4       4       4       4
       4       4       4       4       4       4       4       4       4       4
       4       4       4       4       4       4       4       4       4       4
       4       4       4       4       4       4       4       4       4       4
       4       4       4       4       4       4       4       4       4       4
       4       4       4       4       4       4       4       4       4       4
       4       4       4       4       4       4       4       4       4       4
       4       4       4       4       4       4       4       4       4       4
       4       4       4       4       4       4       4       4       4       4
       4       4       4       4       4       4       4       4       4       4
       4       4       4       4       4       4       4       4       4       4
       4       4       4       4       4       4       4       4       4       4
       4       4       4       4       4       4       4       4       4       4
       4       4       4       4       4       4       4       4       4       4
       4       4       4       4       4       4       4       4       4       4
       4       4       4       4       4       4       4       4       4       4
       4       4       4       4       4       4       4       4       4       4
       4       4       4       4       4       4       4       4       4       4
       4       4       4       4       4       4       4       4       4       4
       4       4       4       4       4       4       4       4       4       4
       4       4       4       4       4       4       4       4       4       4
       4       4       4       4       4       4       4       4       4       4
       4       4       4       4       4       4       4       4       4       4
       4       4       4       4       4       4       4       4       4       4
       4       4       4       4       4       4       4       4       4       4
       4       4       4       4       4       4       4       4       4       4
       4       4       4       4       4       4       4       4       4       4
       4       4       4       4       4       4       4       4       4       4
       4       4       4       4       4       4       4       4       4       4
       4       4       4       4       4       4       4       4       4       4
       4       4       4       4       4       4       4       4       4       4
       4       4       4       4       4       4       4       4       4       4
       4       4       4       4       4       4       4       4       4       4
       4       4       4       4       4       4       4       4       4       4
       4       4       4       4       4       4       4       4       4       4
       4       4       4       4       4       4       4       4       4       4
       4       4       4       4       4       4       4       4       4       4
       4       4       4       4       4       4       4       4       4       4
       4       4       4       4       4       4       4       4       4       4
       4       4       4       4       4       4       4       4       4       4
       4       4       4       4       4       4       4       4       4       4
       4       4       4       4       4       4       4       4       4       4
       4       4       4       4       4       4       4       4       4       4
       4       4       4       4       4       4       4       4       4       4
       4       4       4       4       4       4       4       4       4       4
       4       4       4       4       4       4       4       4       4       4
       4       4       4       4       4       4       4       4       4       4
       4       4       4       4       4       4       4       4       4       4
       4       4       4       4       4       4       4       4       4       4
       4       4       4       4       4       4       4       4       4       4
       4       4       4       4       4       4       4       4       4       4
       4       4       4       4       4       4       4       4       4       4
       4       4       4       4       4       4       4       4       4       4
       4       4       4       4       4       4       4       4       4       4
       4       4       4       4       4       4       4       4       4       4
       4       4       4       4       4       4       4       4       4       4
       4       4       4       4       4       4       4       4       4       4
       4       4       4       4       4       4       4       4       4       4
       4       4       4       4       4       4       4       4       4       4
       4       4       4       4       4       4       4       4       4       4
       4       4       4       4       4       4       4       4       4       4
       4       4       4       4       4       4       4       4       4       4
       4       4       4       4       4       4       4       4       4       4
       4       4       4       4       4       4       4       4       4       4
       4       4       4       4       4       4       4       4       4       4
       4       4       4       4       4       4       4       4       4       4
       4       4       4       4       4       4       4       4       4       4
       4       4       4       4       4       4       4       4       4       4
       4       4       4       4       4       4       4       4       4       4
       4       4       4       4       4       4       4       4       4       4
       4       4       4       4       4       4       4       4       4       4
       4       4       4       4       4       4       4       4       4       4
       4       4       4       4       4       4       4       4       4       4
       4       4       4       4       4       4       4       4       4       4
       4       4       4       4       4       4       4       4       4       4
       4       4       4       4       4       4       4       4       4       4
       4       4       4       4       4       4       4       4       4       4
       4       4       4       4       4       4       4       4       4       4
       4       4       4       4       4       4       4       4       4       4
       4       4       4       4       4       4       4       4       4       4
       4       4       4       4       4       4       4       4       4       4
       4       4       4       4       4       4       4       4       4       4
       4       4       4       4       4       4       4       4       4       4
       4       4       4       4       4       4       4       4       4       4
       4       4       4       4       4       4       4       4       4       4
       4       4       4       4       4       4       4       4       4       4
       4       4       4       4       4       4       4       4       4       4
       4       4       4       4       4       4       4       4       4       4
       4       4       4       4       4       4       4       4       4       4
       4       4       4       4       4       4       4       4       4       4
       4       4       4       4       4       4       4       4       4       4
       4       4       4       4       4       4       4       4       4       4
       4       4       4       4       4       4       4       4       4       4
       4       4       4       4       4       4       4       4       4       4
       4       4       4       4       4       4       4       4       4       4
       4       4       4       4       4       4       4       4       4       4
       4       4       4       4       4       4       4       4       4       4
       4       4       4       4       4       4       4       4       4       4
       4       4       4       4       4       4       4       4       4       4
       4       4       4       4       4       4       4       4       4       4
       4       4       4       4       4       4       4       4       4       4
       4       4       4       4       4       4       4       4       4       4
       4       4       4       4       4       4       4       4       4       4
       4       4       4       4       4       4       4       4       4       4
       4       4       4       4       4       4       4       4       4       4
       4       4       4       4       4       4       4       4       4       4
       4       4       4       4       4       4       4       4       4       4
       4       4       4       4       4       4       4       4       4       4
       4       4       4       4       4       4       4       4       4       4
       4       4       4       4       4       4       4       4       4       4
       4       4       4       4       4       4       4       4       4       4
       4       4       4       4       4       4       4       4       4       4
       4       4       4       4       4       4       4       4       4       4
       4       4       4       4       4       4       4       4       4       4
       4       4       4       4       4       4       4       4       4       4
       4       4       4       4       4       4       4       4       4       4
       4       4       4       4       4       4       4       4       4       4
       4       4       4       4       4       4       4       4       4       4
       4       4       4       4       4       4       4       4       4       4
       4       4       4       4       4       4       4       4       4       4
       4       4       4       4       4       4       4       4       4       4
       4       4       4       4       4       4       4       4       4       4
       4       4       4       4       4       4       4       4       4       4
       4       4       4       4       4       4       4       4       4       4
       4       4       4       4       4       4       4       4       4       4
       4       4       4       4       4       4       4       4       4       4
       4       4       4       4       4       4       4       4       4       4
       4       4       4       4       4       4       4       4       4       4
       4       4       4       4       4       4       4       4       4       4
       4       4       4       4       4       4       4       4       4       4
       4       4       4       4       4       4       4       4       4       4
       4       4       4       4       4       4       4       4       4       4
       4       4       4       4       4       4       4       4       4       4
       4       4       4       4       4       4       4       4       4       4
       4       4       4       4       4       4       4       4       4       4
       4       4       4       4       4       4       4       4       4       4
       4       4       4       4       4       4       4       4       4       4
       4       4       4       4       4       4       4       4       4       4
       4       4       4       4       4       4       4       4       4       4
       4       4       4       4       4       4       4       4       4       4
       4       4       4       4       4       4       4       4       4       4
       4       4       4       4       4       4       4       4       4       4
       4       4       4       4       4       4       4       4       4       4
       4       4       4       4       4       4       4       4       4       4
       4       4       4       4       4       4       4       4       4       4
       4       4       4       4       4       4       4       4       4       4
       4       4       4       4       4       4       4       4       4       4
       4       4       4       4       4       4       4       4       4       4
       4       4       4       4       4       4       4       4       4       4
       4       4       4       4       4       4       4       4       4       4
       4       4       4       4       4       4       4       4       4       4
       4       4       4       4       4       4       4       4       4       4
       4       4       4       4       4       4       4       4       4       4
       4       4       4       4       4       4       4       4       4       4
       4       4       4       4       4       4       4       4       4       4
       4       4       4       4       4       4       4       4       4       4
       4       4       4       4       4       4       4       4       4       4
       4       4       4       4       4       4       4       4       4       4
       4       4       4       4       4       4       4       4       4       4
       4       4       4       4       4       4       4       4       4       4
       4       4       4       4       4       4       4       4       4       4
       4       4       4       4       4       4       4       4       4       4
       4       4       4       4       4       4       4       4       4       4
       4       4       4       4       4       4       4       4       4       4
       4       4       4       4       4       4       4       4       4       4
       4       4       4       4       4       4       4       4       4       4
       4       4       4       4       4       4       4       4       4       4
       4       4       4       4       4       4       4       4       4       4
       4       4       4       4       4       4       4       4       4       4
       4       4       4       4       4       4       4       4       4       4
       4       4       4       4       4       4       4       4       4       4
       4       4       4       4       4       4       4       4       4       4
       4       4       4       4       4       4       4       4       4       4
       4       4       4       4       4       4       4       4       4       4
       4       4       4       4       4       4       4       4       4       4
       4       4       4       4       4       4       4       4       4       4
       4       4       4       4       4       4       4       4       4       4
       4       4       4       4       4       4       4       4       4       4
       4       4       4       4       4       4       4       4       4       4
       4       4       4       4       4       4       4       4       4       4
       4       4       4       4       4       4       4       4       4       4
       4       4       4       4       4       4       4       4       4       4
       4       4       4       4       4       4       4       4       4       4
       4       4       4       4       4       4       4       4       4       4
       4       4       4       4       4       4       4       4       4       4
       4       4       4       4       4       4       4       4       4       4
       4       4       4       4       4       4       4       4       4       4
       4       4       4       4       4       4       4       4       4       4
       4       4       4       4       4       4       4       4       4       4
       4       4       4       4       4       4       4       4       4       4
       4       4       4       4
%FLAG BOX_DIMENSIONS                                                            
%FORMAT(5E16.8)                                                                 
  1.09471219E+02  4.66495463E+01  4.66495463E+01  4.66495463E+01
%FLAG RADIUS_SET                                                                
%FORMAT(1a80)                                                                   
modified Bondi radii (mbondi)                                                   
%FLAG RADII                                                                     
%FORMAT(5E16.8)                                                                 
  1.30000000E+00  1.70000000E+00  1.30000000E+00  1.30000000E+00  1.70000000E+00
  1.50000000E+00  1.55000000E+00  1.30000000E+00  1.70000000E+00  1.30000000E+00
  1.70000000E+00  1.30000000E+00  1.30000000E+00  1.70000000E+00  1.70000000E+00
  1.30000000E+00  1.70000000E+00  1.30000000E+00  1.70000000E+00  1.50000000E+00
  8.00000000E-01  1.70000000E+00  1.30000000E+00  1.70000000E+00  1.30000000E+00
  1.70000000E+00  1.50000000E+00  1.55000000E+00  1.30000000E+00  1.70000000E+00
  1.30000000E+00  1.70000000E+00  1.30000000E+00  1.30000000E+00  1.30000000E+00
  1.70000000E+00  1.50000000E+00  1.55000000E+00  1.30000000E+00  1.70000000E+00
  1.30000000E+00  1.30000000E+00  1.70000000E+00  1.50000000E+00  1.55000000E+00
  1.30000000E+00  1.70000000E+00  1.30000000E+00  1.70000000E+00  1.30000000E+00
  1.30000000E+00  1.70000000E+00  1.70000000E+00  1.30000000E+00  1.70000000E+00
  1.30000000E+00  1.70000000E+00  1.30000000E+00  1.70000000E+00  1.30000000E+00
  1.70000000E+00  1.30000000E+00  1.70000000E+00  1.50000000E+00  1.55000000E+00
  1.30000000E+00  1.70000000E+00  1.30000000E+00  1.30000000E+00  1.30000000E+00
  1.50000000E+00  8.00000000E-01  8.00000000E-01  1.50000000E+00  1.50000000E+00
  8.00000000E-01  8.00000000E-01  1.50000000E+00  1.50000000E+00  8.00000000E-01
  8.00000000E-01  1.50000000E+00  1.50000000E+00  8.00000000E-01  8.00000000E-01
  1.50000000E+00  1.50000000E+00  8.00000000E-01  8.00000000E-01  1.50000000E+00
  1.50000000E+00  8.00000000E-01  8.00000000E-01  1.50000000E+00  1.50000000E+00
  8.00000000E-01  8.00000000E-01  1.50000000E+00  1.50000000E+00  8.00000000E-01
  8.00000000E-01  1.50000000E+00  1.50000000E+00  8.00000000E-01  8.00000000E-01
  1.50000000E+00  1.50000000E+00  8.00000000E-01  8.00000000E-01  1.50000000E+00
  1.50000000E+00  8.00000000E-01  8.00000000E-01  1.50000000E+00  1.50000000E+00
  8.00000000E-01  8.00000000E-01  1.50000000E+00  1.50000000E+00  8.00000000E-01
  8.00000000E-01  1.50000000E+00  1.50000000E+00  8.00000000E-01  8.00000000E-01
  1.50000000E+00  1.50000000E+00  8.00000000E-01  8.00000000E-01  1.50000000E+00
  1.50000000E+00  8.00000000E-01  8.00000000E-01  1.50000000E+00  1.50000000E+00
  8.00000000E-01  8.00000000E-01  1.50000000E+00  1.50000000E+00  8.00000000E-01
  8.00000000E-01  1.50000000E+00  1.50000000E+00  8.00000000E-01  8.00000000E-01
  1.50000000E+00  1.50000000E+00  8.00000000E-01  8.00000000E-01  1.50000000E+00
  1.50000000E+00  8.00000000E-01  8.00000000E-01  1.50000000E+00  1.50000000E+00
  8.00000000E-01  8.00000000E-01  1.50000000E+00  1.50000000E+00  8.00000000E-01
  8.00000000E-01  1.50000000E+00  1.50000000E+00  8.00000000E-01  8.00000000E-01
  1.50000000E+00  1.50000000E+00  8.00000000E-01  8.00000000E-01  1.50000000E+00
  1.50000000E+00  8.00000000E-01  8.00000000E-01  1.50000000E+00  1.50000000E+00
  8.00000000E-01  8.00000000E-01  1.50000000E+00  1.50000000E+00  8.00000000E-01
  8.00000000E-01  1.50000000E+00  1.50000000E+00  8.00000000E-01  8.00000000E-01
  1.50000000E+00  1.50000000E+00  8.00000000E-01  8.00000000E-01  1.50000000E+00
  1.50000000E+00  8.00000000E-01  8.00000000E-01  1.50000000E+00  1.50000000E+00
  8.00000000E-01  8.00000000E-01  1.50000000E+00  1.50000000E+00  8.00000000E-01
  8.00000000E-01  1.50000000E+00  1.50000000E+00  8.00000000E-01  8.00000000E-01
  1.50000000E+00  1.50000000E+00  8.00000000E-01  8.00000000E-01  1.50000000E+00
  1.50000000E+00  8.00000000E-01  8.00000000E-01  1.50000000E+00  1.50000000E+00
  8.00000000E-01  8.00000000E-01  1.50000000E+00  1.50000000E+00  8.00000000E-01
  8.00000000E-01  1.50000000E+00  1.50000000E+00  8.00000000E-01  8.00000000E-01
  1.50000000E+00  1.50000000E+00  8.00000000E-01  8.00000000E-01  1.50000000E+00
  1.50000000E+00  8.00000000E-01  8.00000000E-01  1.50000000E+00  1.50000000E+00
  8.00000000E-01  8.00000000E-01  1.50000000E+00  1.50000000E+00  8.00000000E-01
  8.00000000E-01  1.50000000E+00  1.50000000E+00  8.00000000E-01  8.00000000E-01
  1.50000000E+00  1.50000000E+00  8.00000000E-01  8.00000000E-01  1.50000000E+00
  1.50000000E+00  8.00000000E-01  8.00000000E-01  1.50000000E+00  1.50000000E+00
  8.00000000E-01  8.00000000E-01  1.50000000E+00  1.50000000E+00  8.00000000E-01
  8.00000000E-01  1.50000000E+00  1.50000000E+00  8.00000000E-01  8.00000000E-01
  1.50000000E+00  1.50000000E+00  8.00000000E-01  8.00000000E-01  1.50000000E+00
  1.50000000E+00  8.00000000E-01  8.00000000E-01  1.50000000E+00  1.50000000E+00
  8.00000000E-01  8.00000000E-01  1.50000000E+00  1.50000000E+00  8.00000000E-01
  8.00000000E-01  1.50000000E+00  1.50000000E+00  8.00000000E-01  8.00000000E-01
  1.50000000E+00  1.50000000E+00  8.00000000E-01  8.00000000E-01  1.50000000E+00
  1.50000000E+00  8.00000000E-01  8.00000000E-01  1.50000000E+00  1.50000000E+00
  8.00000000E-01  8.00000000E-01  1.50000000E+00  1.50000000E+00  8.00000000E-01
  8.00000000E-01  1.50000000E+00  1.50000000E+00  8.00000000E-01  8.00000000E-01
  1.50000000E+00  1.50000000E+00  8.00000000E-01  8.00000000E-01  1.50000000E+00
  1.50000000E+00  8.00000000E-01  8.00000000E-01  1.50000000E+00  1.50000000E+00
  8.00000000E-01  8.00000000E-01  1.50000000E+00  1.50000000E+00  8.00000000E-01
  8.00000000E-01  1.50000000E+00  1.50000000E+00  8.00000000E-01  8.00000000E-01
  1.50000000E+00  1.50000000E+00  8.00000000E-01  8.00000000E-01  1.50000000E+00
  1.50000000E+00  8.00000000E-01  8.00000000E-01  1.50000000E+00  1.50000000E+00
  8.00000000E-01  8.00000000E-01  1.50000000E+00  1.50000000E+00  8.00000000E-01
  8.00000000E-01  1.50000000E+00  1.50000000E+00  8.00000000E-01  8.00000000E-01
  1.50000000E+00  1.50000000E+00  8.00000000E-01  8.00000000E-01  1.50000000E+00
  1.50000000E+00  8.00000000E-01  8.00000000E-01  1.50000000E+00  1.50000000E+00
  8.00000000E-01  8.00000000E-01  1.50000000E+00  1.50000000E+00  8.00000000E-01
  8.00000000E-01  1.50000000E+00  1.50000000E+00  8.00000000E-01  8.00000000E-01
  1.50000000E+00  1.50000000E+00  8.00000000E-01  8.00000000E-01  1.50000000E+00
  1.50000000E+00  8.00000000E-01  8.00000000E-01  1.50000000E+00  1.50000000E+00
  8.00000000E-01  8.00000000E-01  1.50000000E+00  1.50000000E+00  8.00000000E-01
  8.00000000E-01  1.50000000E+00  1.50000000E+00  8.00000000E-01  8.00000000E-01
  1.50000000E+00  1.50000000E+00  8.00000000E-01  8.00000000E-01  1.50000000E+00
  1.50000000E+00  8.00000000E-01  8.00000000E-01  1.50000000E+00  1.50000000E+00
  8.00000000E-01  8.00000000E-01  1.50000000E+00  1.50000000E+00  8.00000000E-01
  8.00000000E-01  1.50000000E+00  1.50000000E+00  8.00000000E-01  8.00000000E-01
  1.50000000E+00  1.50000000E+00  8.00000000E-01  8.00000000E-01  1.50000000E+00
  1.50000000E+00  8.00000000E-01  8.00000000E-01  1.50000000E+00  1.50000000E+00
  8.00000000E-01  8.00000000E-01  1.50000000E+00  1.50000000E+00  8.00000000E-01
  8.00000000E-01  1.50000000E+00  1.50000000E+00  8.00000000E-01  8.00000000E-01
  1.50000000E+00  1.50000000E+00  8.00000000E-01  8.00000000E-01  1.50000000E+00
  1.50000000E+00  8.00000000E-01  8.00000000E-01  1.50000000E+00  1.50000000E+00
  8.00000000E-01  8.00000000E-01  1.50000000E+00  1.50000000E+00  8.00000000E-01
  8.00000000E-01  1.50000000E+00  1.50000000E+00  8.00000000E-01  8.00000000E-01
  1.50000000E+00  1.50000000E+00  8.00000000E-01  8.00000000E-01  1.50000000E+00
  1.50000000E+00  8.00000000E-01  8.00000000E-01  1.50000000E+00  1.50000000E+00
  8.00000000E-01  8.00000000E-01  1.50000000E+00  1.50000000E+00  8.00000000E-01
  8.00000000E-01  1.50000000E+00  1.50000000E+00  8.00000000E-01  8.00000000E-01
  1.50000000E+00  1.50000000E+00  8.00000000E-01  8.00000000E-01  1.50000000E+00
  1.50000000E+00  8.00000000E-01  8.00000000E-01  1.50000000E+00  1.50000000E+00
  8.00000000E-01  8.00000000E-01  1.50000000E+00  1.50000000E+00  8.00000000E-01
  8.00000000E-01  1.50000000E+00  1.50000000E+00  8.00000000E-01  8.00000000E-01
  1.50000000E+00  1.50000000E+00  8.00000000E-01  8.00000000E-01  1.50000000E+00
  1.50000000E+00  8.00000000E-01  8.00000000E-01  1.50000000E+00  1.50000000E+00
  8.00000000E-01  8.00000000E-01  1.50000000E+00  1.50000000E+00  8.00000000E-01
  8.00000000E-01  1.50000000E+00  1.50000000E+00  8.00000000E-01  8.00000000E-01
  1.50000000E+00  1.50000000E+00  8.00000000E-01  8.00000000E-01  1.50000000E+00
  1.50000000E+00  8.00000000E-01  8.00000000E-01  1.50000000E+00  1.50000000E+00
  8.00000000E-01  8.00000000E-01  1.50000000E+00  1.50000000E+00  8.00000000E-01
  8.00000000E-01  1.50000000E+00  1.50000000E+00  8.00000000E-01  8.00000000E-01
  1.50000000E+00  1.50000000E+00  8.00000000E-01  8.00000000E-01  1.50000000E+00
  1.50000000E+00  8.00000000E-01  8.00000000E-01  1.50000000E+00  1.50000000E+00
  8.00000000E-01  8.00000000E-01  1.50000000E+00  1.50000000E+00  8.00000000E-01
  8.00000000E-01  1.50000000E+00  1.50000000E+00  8.00000000E-01  8.00000000E-01
  1.50000000E+00  1.50000000E+00  8.00000000E-01  8.00000000E-01  1.50000000E+00
  1.50000000E+00  8.00000000E-01  8.00000000E-01  1.50000000E+00  1.50000000E+00
  8.00000000E-01  8.00000000E-01  1.50000000E+00  1.50000000E+00  8.00000000E-01
  8.00000000E-01  1.50000000E+00  1.50000000E+00  8.00000000E-01  8.00000000E-01
  1.50000000E+00  1.50000000E+00  8.00000000E-01  8.00000000E-01  1.50000000E+00
  1.50000000E+00  8.00000000E-01  8.00000000E-01  1.50000000E+00  1.50000000E+00
  8.00000000E-01  8.00000000E-01  1.50000000E+00  1.50000000E+00  8.00000000E-01
  8.00000000E-01  1.50000000E+00  1.50000000E+00  8.00000000E-01  8.00000000E-01
  1.50000000E+00  1.50000000E+00  8.00000000E-01  8.00000000E-01  1.50000000E+00
  1.50000000E+00  8.00000000E-01  8.00000000E-01  1.50000000E+00  1.50000000E+00
  8.00000000E-01  8.00000000E-01  1.50000000E+00  1.50000000E+00  8.00000000E-01
  8.00000000E-01  1.50000000E+00  1.50000000E+00  8.00000000E-01  8.00000000E-01
  1.50000000E+00  1.50000000E+00  8.00000000E-01  8.00000000E-01  1.50000000E+00
  1.50000000E+00  8.00000000E-01  8.00000000E-01  1.50000000E+00  1.50000000E+00
  8.00000000E-01  8.00000000E-01  1.50000000E+00  1.50000000E+00  8.00000000E-01
  8.00000000E-01  1.50000000E+00  1.50000000E+00  8.00000000E-01  8.00000000E-01
  1.50000000E+00  1.50000000E+00  8.00000000E-01  8.00000000E-01  1.50000000E+00
  1.50000000E+00  8.00000000E-01  8.00000000E-01  1.50000000E+00  1.50000000E+00
  8.00000000E-01  8.00000000E-01  1.50000000E+00  1.50000000E+00  8.00000000E-01
  8.00000000E-01  1.50000000E+00  1.50000000E+00  8.00000000E-01  8.00000000E-01
  1.50000000E+00  1.50000000E+00  8.00000000E-01  8.00000000E-01  1.50000000E+00
  1.50000000E+00  8.00000000E-01  8.00000000E-01  1.50000000E+00  1.50000000E+00
  8.00000000E-01  8.00000000E-01  1.50000000E+00  1.50000000E+00  8.00000000E-01
  8.00000000E-01  1.50000000E+00  1.50000000E+00  8.00000000E-01  8.00000000E-01
  1.50000000E+00  1.50000000E+00  8.00000000E-01  8.00000000E-01  1.50000000E+00
  1.50000000E+00  8.00000000E-01  8.00000000E-01  1.50000000E+00  1.50000000E+00
  8.00000000E-01  8.00000000E-01  1.50000000E+00  1.50000000E+00  8.00000000E-01
  8.00000000E-01  1.50000000E+00  1.50000000E+00  8.00000000E-01  8.00000000E-01
  1.50000000E+00  1.50000000E+00  8.00000000E-01  8.00000000E-01  1.50000000E+00
  1.50000000E+00  8.00000000E-01  8.00000000E-01  1.50000000E+00  1.50000000E+00
  8.00000000E-01  8.00000000E-01  1.50000000E+00  1.50000000E+00  8.00000000E-01
  8.00000000E-01  1.50000000E+00  1.50000000E+00  8.00000000E-01  8.00000000E-01
  1.50000000E+00  1.50000000E+00  8.00000000E-01  8.00000000E-01  1.50000000E+00
  1.50000000E+00  8.00000000E-01  8.00000000E-01  1.50000000E+00  1.50000000E+00
  8.00000000E-01  8.00000000E-01  1.50000000E+00  1.50000000E+00  8.00000000E-01
  8.00000000E-01  1.50000000E+00  1.50000000E+00  8.00000000E-01  8.00000000E-01
  1.50000000E+00  1.50000000E+00  8.00000000E-01  8.00000000E-01  1.50000000E+00
  1.50000000E+00  8.00000000E-01  8.00000000E-01  1.50000000E+00  1.50000000E+00
  8.00000000E-01  8.00000000E-01  1.50000000E+00  1.50000000E+00  8.00000000E-01
  8.00000000E-01  1.50000000E+00  1.50000000E+00  8.00000000E-01  8.00000000E-01
  1.50000000E+00  1.50000000E+00  8.00000000E-01  8.00000000E-01  1.50000000E+00
  1.50000000E+00  8.00000000E-01  8.00000000E-01  1.50000000E+00  1.50000000E+00
  8.00000000E-01  8.00000000E-01  1.50000000E+00  1.50000000E+00  8.00000000E-01
  8.00000000E-01  1.50000000E+00  1.50000000E+00  8.00000000E-01  8.00000000E-01
  1.50000000E+00  1.50000000E+00  8.00000000E-01  8.00000000E-01  1.50000000E+00
  1.50000000E+00  8.00000000E-01  8.00000000E-01  1.50000000E+00  1.50000000E+00
  8.00000000E-01  8.00000000E-01  1.50000000E+00  1.50000000E+00  8.00000000E-01
  8.00000000E-01  1.50000000E+00  1.50000000E+00  8.00000000E-01  8.00000000E-01
  1.50000000E+00  1.50000000E+00  8.00000000E-01  8.00000000E-01  1.50000000E+00
  1.50000000E+00  8.00000000E-01  8.00000000E-01  1.50000000E+00  1.50000000E+00
  8.00000000E-01  8.00000000E-01  1.50000000E+00  1.50000000E+00  8.00000000E-01
  8.00000000E-01  1.50000000E+00  1.50000000E+00  8.00000000E-01  8.00000000E-01
  1.50000000E+00  1.50000000E+00  8.00000000E-01  8.00000000E-01  1.50000000E+00
  1.50000000E+00  8.00000000E-01  8.00000000E-01  1.50000000E+00  1.50000000E+00
  8.00000000E-01  8.00000000E-01  1.50000000E+00  1.50000000E+00  8.00000000E-01
  8.00000000E-01  1.50000000E+00  1.50000000E+00  8.00000000E-01  8.00000000E-01
  1.50000000E+00  1.50000000E+00  8.00000000E-01  8.00000000E-01  1.50000000E+00
  1.50000000E+00  8.00000000E-01  8.00000000E-01  1.50000000E+00  1.50000000E+00
  8.00000000E-01  8.00000000E-01  1.50000000E+00  1.50000000E+00  8.00000000E-01
  8.00000000E-01  1.50000000E+00  1.50000000E+00  8.00000000E-01  8.00000000E-01
  1.50000000E+00  1.50000000E+00  8.00000000E-01  8.00000000E-01  1.50000000E+00
  1.50000000E+00  8.00000000E-01  8.00000000E-01  1.50000000E+00  1.50000000E+00
  8.00000000E-01  8.00000000E-01  1.50000000E+00  1.50000000E+00  8.00000000E-01
  8.00000000E-01  1.50000000E+00  1.50000000E+00  8.00000000E-01  8.00000000E-01
  1.50000000E+00  1.50000000E+00  8.00000000E-01  8.00000000E-01  1.50000000E+00
  1.50000000E+00  8.00000000E-01  8.00000000E-01  1.50000000E+00  1.50000000E+00
  8.00000000E-01  8.00000000E-01  1.50000000E+00  1.50000000E+00  8.00000000E-01
  8.00000000E-01  1.50000000E+00  1.50000000E+00  8.00000000E-01  8.00000000E-01
  1.50000000E+00  1.50000000E+00  8.00000000E-01  8.00000000E-01  1.50000000E+00
  1.50000000E+00  8.00000000E-01  8.00000000E-01  1.50000000E+00  1.50000000E+00
  8.00000000E-01  8.00000000E-01  1.50000000E+00  1.50000000E+00  8.00000000E-01
  8.00000000E-01  1.50000000E+00  1.50000000E+00  8.00000000E-01  8.00000000E-01
  1.50000000E+00  1.50000000E+00  8.00000000E-01  8.00000000E-01  1.50000000E+00
  1.50000000E+00  8.00000000E-01  8.00000000E-01  1.50000000E+00  1.50000000E+00
  8.00000000E-01  8.00000000E-01  1.50000000E+00  1.50000000E+00  8.00000000E-01
  8.00000000E-01  1.50000000E+00  1.50000000E+00  8.00000000E-01  8.00000000E-01
  1.50000000E+00  1.50000000E+00  8.00000000E-01  8.00000000E-01  1.50000000E+00
  1.50000000E+00  8.00000000E-01  8.00000000E-01  1.50000000E+00  1.50000000E+00
  8.00000000E-01  8.00000000E-01  1.50000000E+00  1.50000000E+00  8.00000000E-01
  8.00000000E-01  1.50000000E+00  1.50000000E+00  8.00000000E-01  8.00000000E-01
  1.50000000E+00  1.50000000E+00  8.00000000E-01  8.00000000E-01  1.50000000E+00
  1.50000000E+00  8.00000000E-01  8.00000000E-01  1.50000000E+00  1.50000000E+00
  8.00000000E-01  8.00000000E-01  1.50000000E+00  1.50000000E+00  8.00000000E-01
  8.00000000E-01  1.50000000E+00  1.50000000E+00  8.00000000E-01  8.00000000E-01
  1.50000000E+00  1.50000000E+00  8.00000000E-01  8.00000000E-01  1.50000000E+00
  1.50000000E+00  8.00000000E-01  8.00000000E-01  1.50000000E+00  1.50000000E+00
  8.00000000E-01  8.00000000E-01  1.50000000E+00  1.50000000E+00  8.00000000E-01
  8.00000000E-01  1.50000000E+00  1.50000000E+00  8.00000000E-01  8.00000000E-01
  1.50000000E+00  1.50000000E+00  8.00000000E-01  8.00000000E-01  1.50000000E+00
  1.50000000E+00  8.00000000E-01  8.00000000E-01  1.50000000E+00  1.50000000E+00
  8.00000000E-01  8.00000000E-01  1.50000000E+00  1.50000000E+00  8.00000000E-01
  8.00000000E-01  1.50000000E+00  1.50000000E+00  8.00000000E-01  8.00000000E-01
  1.50000000E+00  1.50000000E+00  8.00000000E-01  8.00000000E-01  1.50000000E+00
  1.50000000E+00  8.00000000E-01  8.00000000E-01  1.50000000E+00  1.50000000E+00
  8.00000000E-01  8.00000000E-01  1.50000000E+00  1.50000000E+00  8.00000000E-01
  8.00000000E-01  1.50000000E+00  1.50000000E+00  8.00000000E-01  8.00000000E-01
  1.50000000E+00  1.50000000E+00  8.00000000E-01  8.00000000E-01  1.50000000E+00
  1.50000000E+00  8.00000000E-01  8.00000000E-01  1.50000000E+00  1.50000000E+00
  8.00000000E-01  8.00000000E-01  1.50000000E+00  1.50000000E+00  8.00000000E-01
  8.00000000E-01  1.50000000E+00  1.50000000E+00  8.00000000E-01  8.00000000E-01
  1.50000000E+00  1.50000000E+00  8.00000000E-01  8.00000000E-01  1.50000000E+00
  1.50000000E+00  8.00000000E-01  8.00000000E-01  1.50000000E+00  1.50000000E+00
  8.00000000E-01  8.00000000E-01  1.50000000E+00  1.50000000E+00  8.00000000E-01
  8.00000000E-01  1.50000000E+00  1.50000000E+00  8.00000000E-01  8.00000000E-01
  1.50000000E+00  1.50000000E+00  8.00000000E-01  8.00000000E-01  1.50000000E+00
  1.50000000E+00  8.00000000E-01  8.00000000E-01  1.50000000E+00  1.50000000E+00
  8.00000000E-01  8.00000000E-01  1.50000000E+00  1.50000000E+00  8.00000000E-01
  8.00000000E-01  1.50000000E+00  1.50000000E+00  8.00000000E-01  8.00000000E-01
  1.50000000E+00  1.50000000E+00  8.00000000E-01  8.00000000E-01  1.50000000E+00
  1.50000000E+00  8.00000000E-01  8.00000000E-01  1.50000000E+00  1.50000000E+00
  8.00000000E-01  8.00000000E-01  1.50000000E+00  1.50000000E+00  8.00000000E-01
  8.00000000E-01  1.50000000E+00  1.50000000E+00  8.00000000E-01  8.00000000E-01
  1.50000000E+00  1.50000000E+00  8.00000000E-01  8.00000000E-01  1.50000000E+00
  1.50000000E+00  8.00000000E-01  8.00000000E-01  1.50000000E+00  1.50000000E+00
  8.00000000E-01  8.00000000E-01  1.50000000E+00  1.50000000E+00  8.00000000E-01
  8.00000000E-01  1.50000000E+00  1.50000000E+00  8.00000000E-01  8.00000000E-01
  1.50000000E+00  1.50000000E+00  8.00000000E-01  8.00000000E-01  1.50000000E+00
  1.50000000E+00  8.00000000E-01  8.00000000E-01  1.50000000E+00  1.50000000E+00
  8.00000000E-01  8.00000000E-01  1.50000000E+00  1.50000000E+00  8.00000000E-01
  8.00000000E-01  1.50000000E+00  1.50000000E+00  8.00000000E-01  8.00000000E-01
  1.50000000E+00  1.50000000E+00  8.00000000E-01  8.00000000E-01  1.50000000E+00
  1.50000000E+00  8.00000000E-01  8.00000000E-01  1.50000000E+00  1.50000000E+00
  8.00000000E-01  8.00000000E-01  1.50000000E+00  1.50000000E+00  8.00000000E-01
  8.00000000E-01  1.50000000E+00  1.50000000E+00  8.00000000E-01  8.00000000E-01
  1.50000000E+00  1.50000000E+00  8.00000000E-01  8.00000000E-01  1.50000000E+00
  1.50000000E+00  8.00000000E-01  8.00000000E-01  1.50000000E+00  1.50000000E+00
  8.00000000E-01  8.00000000E-01  1.50000000E+00  1.50000000E+00  8.00000000E-01
  8.00000000E-01  1.50000000E+00  1.50000000E+00  8.00000000E-01  8.00000000E-01
  1.50000000E+00  1.50000000E+00  8.00000000E-01  8.00000000E-01  1.50000000E+00
  1.50000000E+00  8.00000000E-01  8.00000000E-01  1.50000000E+00  1.50000000E+00
  8.00000000E-01  8.00000000E-01  1.50000000E+00  1.50000000E+00  8.00000000E-01
  8.00000000E-01  1.50000000E+00  1.50000000E+00  8.00000000E-01  8.00000000E-01
  1.50000000E+00  1.50000000E+00  8.00000000E-01  8.00000000E-01  1.50000000E+00
  1.50000000E+00  8.00000000E-01  8.00000000E-01  1.50000000E+00  1.50000000E+00
  8.00000000E-01  8.00000000E-01  1.50000000E+00  1.50000000E+00  8.00000000E-01
  8.00000000E-01  1.50000000E+00  1.50000000E+00  8.00000000E-01  8.00000000E-01
  1.50000000E+00  1.50000000E+00  8.00000000E-01  8.00000000E-01  1.50000000E+00
  1.50000000E+00  8.00000000E-01  8.00000000E-01  1.50000000E+00  1.50000000E+00
  8.00000000E-01  8.00000000E-01  1.50000000E+00  1.50000000E+00  8.00000000E-01
  8.00000000E-01  1.50000000E+00  1.50000000E+00  8.00000000E-01  8.00000000E-01
  1.50000000E+00  1.50000000E+00  8.00000000E-01  8.00000000E-01  1.50000000E+00
  1.50000000E+00  8.00000000E-01  8.00000000E-01  1.50000000E+00  1.50000000E+00
  8.00000000E-01  8.00000000E-01  1.50000000E+00  1.50000000E+00  8.00000000E-01
  8.00000000E-01  1.50000000E+00  1.50000000E+00  8.00000000E-01  8.00000000E-01
  1.50000000E+00  1.50000000E+00  8.00000000E-01  8.00000000E-01  1.50000000E+00
  1.50000000E+00  8.00000000E-01  8.00000000E-01  1.50000000E+00  1.50000000E+00
  8.00000000E-01  8.00000000E-01  1.50000000E+00  1.50000000E+00  8.00000000E-01
  8.00000000E-01  1.50000000E+00  1.50000000E+00  8.00000000E-01  8.00000000E-01
  1.50000000E+00  1.50000000E+00  8.00000000E-01  8.00000000E-01  1.50000000E+00
  1.50000000E+00  8.00000000E-01  8.00000000E-01  1.50000000E+00  1.50000000E+00
  8.00000000E-01  8.00000000E-01  1.50000000E+00  1.50000000E+00  8.00000000E-01
  8.00000000E-01  1.50000000E+00  1.50000000E+00  8.00000000E-01  8.00000000E-01
  1.50000000E+00  1.50000000E+00  8.00000000E-01  8.00000000E-01  1.50000000E+00
  1.50000000E+00  8.00000000E-01  8.00000000E-01  1.50000000E+00  1.50000000E+00
  8.00000000E-01  8.00000000E-01  1.50000000E+00  1.50000000E+00  8.00000000E-01
  8.00000000E-01  1.50000000E+00  1.50000000E+00  8.00000000E-01  8.00000000E-01
  1.50000000E+00  1.50000000E+00  8.00000000E-01  8.00000000E-01  1.50000000E+00
  1.50000000E+00  8.00000000E-01  8.00000000E-01  1.50000000E+00  1.50000000E+00
  8.00000000E-01  8.00000000E-01  1.50000000E+00  1.50000000E+00  8.00000000E-01
  8.00000000E-01  1.50000000E+00  1.50000000E+00  8.00000000E-01  8.00000000E-01
  1.50000000E+00  1.50000000E+00  8.00000000E-01  8.00000000E-01  1.50000000E+00
  1.50000000E+00  8.00000000E-01  8.00000000E-01  1.50000000E+00  1.50000000E+00
  8.00000000E-01  8.00000000E-01  1.50000000E+00  1.50000000E+00  8.00000000E-01
  8.00000000E-01  1.50000000E+00  1.50000000E+00  8.00000000E-01  8.00000000E-01
  1.50000000E+00  1.50000000E+00  8.00000000E-01  8.00000000E-01  1.50000000E+00
  1.50000000E+00  8.00000000E-01  8.00000000E-01  1.50000000E+00  1.50000000E+00
  8.00000000E-01  8.00000000E-01  1.50000000E+00  1.50000000E+00  8.00000000E-01
  8.00000000E-01  1.50000000E+00  1.50000000E+00  8.00000000E-01  8.00000000E-01
  1.50000000E+00  1.50000000E+00  8.00000000E-01  8.00000000E-01  1.50000000E+00
  1.50000000E+00  8.00000000E-01  8.00000000E-01  1.50000000E+00  1.50000000E+00
  8.00000000E-01  8.00000000E-01  1.50000000E+00  1.50000000E+00  8.00000000E-01
  8.00000000E-01  1.50000000E+00  1.50000000E+00  8.00000000E-01  8.00000000E-01
  1.50000000E+00  1.50000000E+00  8.00000000E-01  8.00000000E-01  1.50000000E+00
  1.50000000E+00  8.00000000E-01  8.00000000E-01  1.50000000E+00  1.50000000E+00
  8.00000000E-01  8.00000000E-01  1.50000000E+00  1.50000000E+00  8.00000000E-01
  8.00000000E-01  1.50000000E+00  1.50000000E+00  8.00000000E-01  8.00000000E-01
  1.50000000E+00  1.50000000E+00  8.00000000E-01  8.00000000E-01  1.50000000E+00
  1.50000000E+00  8.00000000E-01  8.00000000E-01  1.50000000E+00  1.50000000E+00
  8.00000000E-01  8.00000000E-01  1.50000000E+00  1.50000000E+00  8.00000000E-01
  8.00000000E-01  1.50000000E+00  1.50000000E+00  8.00000000E-01  8.00000000E-01
  1.50000000E+00  1.50000000E+00  8.00000000E-01  8.00000000E-01  1.50000000E+00
  1.50000000E+00  8.00000000E-01  8.00000000E-01  1.50000000E+00  1.50000000E+00
  8.00000000E-01  8.00000000E-01  1.50000000E+00  1.50000000E+00  8.00000000E-01
  8.00000000E-01  1.50000000E+00  1.50000000E+00  8.00000000E-01  8.00000000E-01
  1.50000000E+00  1.50000000E+00  8.00000000E-01  8.00000000E-01  1.50000000E+00
  1.50000000E+00  8.00000000E-01  8.00000000E-01  1.50000000E+00  1.50000000E+00
  8.00000000E-01  8.00000000E-01  1.50000000E+00  1.50000000E+00  8.00000000E-01
  8.00000000E-01  1.50000000E+00  1.50000000E+00  8.00000000E-01  8.00000000E-01
  1.50000000E+00  1.50000000E+00  8.00000000E-01  8.00000000E-01  1.50000000E+00
  1.50000000E+00  8.00000000E-01  8.00000000E-01  1.50000000E+00  1.50000000E+00
  8.00000000E-01  8.00000000E-01  1.50000000E+00  1.50000000E+00  8.00000000E-01
  8.00000000E-01  1.50000000E+00  1.50000000E+00  8.00000000E-01  8.00000000E-01
  1.50000000E+00  1.50000000E+00  8.00000000E-01  8.00000000E-01  1.50000000E+00
  1.50000000E+00  8.00000000E-01  8.00000000E-01  1.50000000E+00  1.50000000E+00
  8.00000000E-01  8.00000000E-01  1.50000000E+00  1.50000000E+00  8.00000000E-01
  8.00000000E-01  1.50000000E+00  1.50000000E+00  8.00000000E-01  8.00000000E-01
  1.50000000E+00  1.50000000E+00  8.00000000E-01  8.00000000E-01  1.50000000E+00
  1.50000000E+00  8.00000000E-01  8.00000000E-01  1.50000000E+00  1.50000000E+00
  8.00000000E-01  8.00000000E-01  1.50000000E+00  1.50000000E+00  8.00000000E-01
  8.00000000E-01  1.50000000E+00  1.50000000E+00  8.00000000E-01  8.00000000E-01
  1.50000000E+00  1.50000000E+00  8.00000000E-01  8.00000000E-01  1.50000000E+00
  1.50000000E+00  8.00000000E-01  8.00000000E-01  1.50000000E+00  1.50000000E+00
  8.00000000E-01  8.00000000E-01  1.50000000E+00  1.50000000E+00  8.00000000E-01
  8.00000000E-01  1.50000000E+00  1.50000000E+00  8.00000000E-01  8.00000000E-01
  1.50000000E+00  1.50000000E+00  8.00000000E-01  8.00000000E-01  1.50000000E+00
  1.50000000E+00  8.00000000E-01  8.00000000E-01  1.50000000E+00  1.50000000E+00
  8.00000000E-01  8.00000000E-01  1.50000000E+00  1.50000000E+00  8.00000000E-01
  8.00000000E-01  1.50000000E+00  1.50000000E+00  8.00000000E-01  8.00000000E-01
  1.50000000E+00  1.50000000E+00  8.00000000E-01  8.00000000E-01  1.50000000E+00
  1.50000000E+00  8.00000000E-01  8.00000000E-01  1.50000000E+00  1.50000000E+00
  8.00000000E-01  8.00000000E-01  1.50000000E+00  1.50000000E+00  8.00000000E-01
  8.00000000E-01  1.50000000E+00  1.50000000E+00  8.00000000E-01  8.00000000E-01
  1.50000000E+00  1.50000000E+00  8.00000000E-01  8.00000000E-01  1.50000000E+00
  1.50000000E+00  8.00000000E-01  8.00000000E-01  1.50000000E+00  1.50000000E+00
  8.00000000E-01  8.00000000E-01  1.50000000E+00  1.50000000E+00  8.00000000E-01
  8.00000000E-01  1.50000000E+00  1.50000000E+00  8.00000000E-01  8.00000000E-01
  1.50000000E+00  1.50000000E+00  8.00000000E-01  8.00000000E-01  1.50000000E+00
  1.50000000E+00  8.00000000E-01  8.00000000E-01  1.50000000E+00  1.50000000E+00
  8.00000000E-01  8.00000000E-01  1.50000000E+00  1.50000000E+00  8.00000000E-01
  8.00000000E-01  1.50000000E+00  1.50000000E+00  8.00000000E-01  8.00000000E-01
  1.50000000E+00  1.50000000E+00  8.00000000E-01  8.00000000E-01  1.50000000E+00
  1.50000000E+00  8.00000000E-01  8.00000000E-01  1.50000000E+00  1.50000000E+00
  8.00000000E-01  8.00000000E-01  1.50000000E+00  1.50000000E+00  8.00000000E-01
  8.00000000E-01  1.50000000E+00  1.50000000E+00  8.00000000E-01  8.00000000E-01
  1.50000000E+00  1.50000000E+00  8.00000000E-01  8.00000000E-01  1.50000000E+00
  1.50000000E+00  8.00000000E-01  8.00000000E-01  1.50000000E+00  1.50000000E+00
  8.00000000E-01  8.00000000E-01  1.50000000E+00  1.50000000E+00  8.00000000E-01
  8.00000000E-01  1.50000000E+00  1.50000000E+00  8.00000000E-01  8.00000000E-01
  1.50000000E+00  1.50000000E+00  8.00000000E-01  8.00000000E-01  1.50000000E+00
  1.50000000E+00  8.00000000E-01  8.00000000E-01  1.50000000E+00  1.50000000E+00
  8.00000000E-01  8.00000000E-01  1.50000000E+00  1.50000000E+00  8.00000000E-01
  8.00000000E-01  1.50000000E+00  1.50000000E+00  8.00000000E-01  8.00000000E-01
  1.50000000E+00  1.50000000E+00  8.00000000E-01  8.00000000E-01  1.50000000E+00
  1.50000000E+00  8.00000000E-01  8.00000000E-01  1.50000000E+00  1.50000000E+00
  8.00000000E-01  8.00000000E-01  1.50000000E+00  1.50000000E+00  8.00000000E-01
  8.00000000E-01  1.50000000E+00  1.50000000E+00  8.00000000E-01  8.00000000E-01
  1.50000000E+00  1.50000000E+00  8.00000000E-01  8.00000000E-01  1.50000000E+00
  1.50000000E+00  8.00000000E-01  8.00000000E-01  1.50000000E+00  1.50000000E+00
  8.00000000E-01  8.00000000E-01  1.50000000E+00  1.50000000E+00  8.00000000E-01
  8.00000000E-01  1.50000000E+00  1.50000000E+00  8.00000000E-01  8.00000000E-01
  1.50000000E+00  1.50000000E+00  8.00000000E-01  8.00000000E-01  1.50000000E+00
  1.50000000E+00  8.00000000E-01  8.00000000E-01  1.50000000E+00  1.50000000E+00
  8.00000000E-01  8.00000000E-01  1.50000000E+00  1.50000000E+00  8.00000000E-01
  8.00000000E-01  1.50000000E+00  1.50000000E+00  8.00000000E-01  8.00000000E-01
  1.50000000E+00  1.50000000E+00  8.00000000E-01  8.00000000E-01  1.50000000E+00
  1.50000000E+00  8.00000000E-01  8.00000000E-01  1.50000000E+00  1.50000000E+00
  8.00000000E-01  8.00000000E-01  1.50000000E+00  1.50000000E+00  8.00000000E-01
  8.00000000E-01  1.50000000E+00  1.50000000E+00  8.00000000E-01  8.00000000E-01
  1.50000000E+00  1.50000000E+00  8.00000000E-01  8.00000000E-01  1.50000000E+00
  1.50000000E+00  8.00000000E-01  8.00000000E-01  1.50000000E+00  1.50000000E+00
  8.00000000E-01  8.00000000E-01  1.50000000E+00  1.50000000E+00  8.00000000E-01
  8.00000000E-01  1.50000000E+00  1.50000000E+00  8.00000000E-01  8.00000000E-01
  1.50000000E+00  1.50000000E+00  8.00000000E-01  8.00000000E-01  1.50000000E+00
  1.50000000E+00  8.00000000E-01  8.00000000E-01  1.50000000E+00  1.50000000E+00
  8.00000000E-01  8.00000000E-01  1.50000000E+00  1.50000000E+00  8.00000000E-01
  8.00000000E-01  1.50000000E+00  1.50000000E+00  8.00000000E-01  8.00000000E-01
  1.50000000E+00  1.50000000E+00  8.00000000E-01  8.00000000E-01  1.50000000E+00
  1.50000000E+00  8.00000000E-01  8.00000000E-01  1.50000000E+00  1.50000000E+00
  8.00000000E-01  8.00000000E-01  1.50000000E+00  1.50000000E+00  8.00000000E-01
  8.00000000E-01  1.50000000E+00  1.50000000E+00  8.00000000E-01  8.00000000E-01
  1.50000000E+00  1.50000000E+00  8.00000000E-01  8.00000000E-01  1.50000000E+00
  1.50000000E+00  8.00000000E-01  8.00000000E-01  1.50000000E+00  1.50000000E+00
  8.00000000E-01  8.00000000E-01  1.50000000E+00  1.50000000E+00  8.00000000E-01
  8.00000000E-01  1.50000000E+00  1.50000000E+00  8.00000000E-01  8.00000000E-01
  1.50000000E+00  1.50000000E+00  8.00000000E-01  8.00000000E-01  1.50000000E+00
  1.50000000E+00  8.00000000E-01  8.00000000E-01  1.50000000E+00  1.50000000E+00
  8.00000000E-01  8.00000000E-01  1.50000000E+00  1.50000000E+00  8.00000000E-01
  8.00000000E-01  1.50000000E+00  1.50000000E+00  8.00000000E-01  8.00000000E-01
  1.50000000E+00  1.50000000E+00  8.00000000E-01  8.00000000E-01  1.50000000E+00
  1.50000000E+00  8.00000000E-01  8.00000000E-01  1.50000000E+00  1.50000000E+00
  8.00000000E-01  8.00000000E-01  1.50000000E+00  1.50000000E+00  8.00000000E-01
  8.00000000E-01  1.50000000E+00  1.50000000E+00  8.00000000E-01  8.00000000E-01
  1.50000000E+00  1.50000000E+00  8.00000000E-01  8.00000000E-01  1.50000000E+00
  1.50000000E+00  8.00000000E-01  8.00000000E-01  1.50000000E+00  1.50000000E+00
  8.00000000E-01  8.00000000E-01  1.50000000E+00  1.50000000E+00  8.00000000E-01
  8.00000000E-01  1.50000000E+00  1.50000000E+00  8.00000000E-01  8.00000000E-01
  1.50000000E+00  1.50000000E+00  8.00000000E-01  8.00000000E-01  1.50000000E+00
  1.50000000E+00  8.00000000E-01  8.00000000E-01  1.50000000E+00  1.50000000E+00
  8.00000000E-01  8.00000000E-01  1.50000000E+00  1.50000000E+00  8.00000000E-01
  8.00000000E-01  1.50000000E+00  1.50000000E+00  8.00000000E-01  8.00000000E-01
  1.50000000E+00  1.50000000E+00  8.00000000E-01  8.00000000E-01  1.50000000E+00
  1.50000000E+00  8.00000000E-01  8.00000000E-01  1.50000000E+00  1.50000000E+00
  8.00000000E-01  8.00000000E-01  1.50000000E+00  1.50000000E+00  8.00000000E-01
  8.00000000E-01  1.50000000E+00  1.50000000E+00  8.00000000E-01  8.00000000E-01
  1.50000000E+00  1.50000000E+00  8.00000000E-01  8.00000000E-01  1.50000000E+00
  1.50000000E+00  8.00000000E-01  8.00000000E-01  1.50000000E+00  1.50000000E+00
  8.00000000E-01  8.00000000E-01  1.50000000E+00  1.50000000E+00  8.00000000E-01
  8.00000000E-01  1.50000000E+00  1.50000000E+00  8.00000000E-01  8.00000000E-01
  1.50000000E+00  1.50000000E+00  8.00000000E-01  8.00000000E-01  1.50000000E+00
  1.50000000E+00  8.00000000E-01  8.00000000E-01  1.50000000E+00  1.50000000E+00
  8.00000000E-01  8.00000000E-01  1.50000000E+00  1.50000000E+00  8.00000000E-01
  8.00000000E-01  1.50000000E+00  1.50000000E+00  8.00000000E-01  8.00000000E-01
  1.50000000E+00  1.50000000E+00  8.00000000E-01  8.00000000E-01  1.50000000E+00
  1.50000000E+00  8.00000000E-01  8.00000000E-01  1.50000000E+00  1.50000000E+00
  8.00000000E-01  8.00000000E-01  1.50000000E+00  1.50000000E+00  8.00000000E-01
  8.00000000E-01  1.50000000E+00  1.50000000E+00  8.00000000E-01  8.00000000E-01
  1.50000000E+00  1.50000000E+00  8.00000000E-01  8.00000000E-01  1.50000000E+00
  1.50000000E+00  8.00000000E-01  8.00000000E-01  1.50000000E+00  1.50000000E+00
  8.00000000E-01  8.00000000E-01  1.50000000E+00  1.50000000E+00  8.00000000E-01
  8.00000000E-01  1.50000000E+00  1.50000000E+00  8.00000000E-01  8.00000000E-01
  1.50000000E+00  1.50000000E+00  8.00000000E-01  8.00000000E-01  1.50000000E+00
  1.50000000E+00  8.00000000E-01  8.00000000E-01  1.50000000E+00  1.50000000E+00
  8.00000000E-01  8.00000000E-01  1.50000000E+00  1.50000000E+00  8.00000000E-01
  8.00000000E-01  1.50000000E+00  1.50000000E+00  8.00000000E-01  8.00000000E-01
  1.50000000E+00  1.50000000E+00  8.00000000E-01  8.00000000E-01  1.50000000E+00
  1.50000000E+00  8.00000000E-01  8.00000000E-01  1.50000000E+00  1.50000000E+00
  8.00000000E-01  8.00000000E-01  1.50000000E+00  1.50000000E+00  8.00000000E-01
  8.00000000E-01  1.50000000E+00  1.50000000E+00  8.00000000E-01  8.00000000E-01
  1.50000000E+00  1.50000000E+00  8.00000000E-01  8.00000000E-01  1.50000000E+00
  1.50000000E+00  8.00000000E-01  8.00000000E-01  1.50000000E+00  1.50000000E+00
  8.00000000E-01  8.00000000E-01  1.50000000E+00  1.50000000E+00  8.00000000E-01
  8.00000000E-01  1.50000000E+00  1.50000000E+00  8.00000000E-01  8.00000000E-01
  1.50000000E+00  1.50000000E+00  8.00000000E-01  8.00000000E-01  1.50000000E+00
  1.50000000E+00  8.00000000E-01  8.00000000E-01  1.50000000E+00  1.50000000E+00
  8.00000000E-01  8.00000000E-01  1.50000000E+00  1.50000000E+00  8.00000000E-01
  8.00000000E-01  1.50000000E+00  1.50000000E+00  8.00000000E-01  8.00000000E-01
  1.50000000E+00  1.50000000E+00  8.00000000E-01  8.00000000E-01  1.50000000E+00
  1.50000000E+00  8.00000000E-01  8.00000000E-01  1.50000000E+00  1.50000000E+00
  8.00000000E-01  8.00000000E-01  1.50000000E+00  1.50000000E+00  8.00000000E-01
  8.00000000E-01  1.50000000E+00  1.50000000E+00  8.00000000E-01  8.00000000E-01
  1.50000000E+00  1.50000000E+00  8.00000000E-01  8.00000000E-01  1.50000000E+00
  1.50000000E+00  8.00000000E-01  8.00000000E-01  1.50000000E+00  1.50000000E+00
  8.00000000E-01  8.00000000E-01  1.50000000E+00  1.50000000E+00  8.00000000E-01
  8.00000000E-01  1.50000000E+00  1.50000000E+00  8.00000000E-01  8.00000000E-01
  1.50000000E+00  1.50000000E+00  8.00000000E-01  8.00000000E-01  1.50000000E+00
  1.50000000E+00  8.00000000E-01  8.00000000E-01  1.50000000E+00  1.50000000E+00
  8.00000000E-01  8.00000000E-01  1.50000000E+00  1.50000000E+00  8.00000000E-01
  8.00000000E-01  1.50000000E+00  1.50000000E+00  8.00000000E-01  8.00000000E-01
  1.50000000E+00  1.50000000E+00  8.00000000E-01  8.00000000E-01  1.50000000E+00
  1.50000000E+00  8.00000000E-01  8.00000000E-01  1.50000000E+00  1.50000000E+00
  8.00000000E-01  8.00000000E-01  1.50000000E+00  1.50000000E+00  8.00000000E-01
  8.00000000E-01  1.50000000E+00  1.50000000E+00  8.00000000E-01  8.00000000E-01
  1.50000000E+00  1.50000000E+00  8.00000000E-01  8.00000000E-01  1.50000000E+00
  1.50000000E+00  8.00000000E-01  8.00000000E-01  1.50000000E+00  1.50000000E+00
  8.00000000E-01  8.00000000E-01  1.50000000E+00  1.50000000E+00  8.00000000E-01
  8.00000000E-01  1.50000000E+00  1.50000000E+00  8.00000000E-01  8.00000000E-01
  1.50000000E+00  1.50000000E+00  8.00000000E-01  8.00000000E-01  1.50000000E+00
  1.50000000E+00  8.00000000E-01  8.00000000E-01  1.50000000E+00  1.50000000E+00
  8.00000000E-01  8.00000000E-01  1.50000000E+00  1.50000000E+00  8.00000000E-01
  8.00000000E-01  1.50000000E+00  1.50000000E+00  8.00000000E-01  8.00000000E-01
  1.50000000E+00  1.50000000E+00  8.00000000E-01  8.00000000E-01  1.50000000E+00
  1.50000000E+00  8.00000000E-01  8.00000000E-01  1.50000000E+00  1.50000000E+00
  8.00000000E-01  8.00000000E-01  1.50000000E+00  1.50000000E+00  8.00000000E-01
  8.00000000E-01  1.50000000E+00  1.50000000E+00  8.00000000E-01  8.00000000E-01
  1.50000000E+00  1.50000000E+00  8.00000000E-01  8.00000000E-01  1.50000000E+00
  1.50000000E+00  8.00000000E-01  8.00000000E-01  1.50000000E+00  1.50000000E+00
  8.00000000E-01  8.00000000E-01  1.50000000E+00  1.50000000E+00  8.00000000E-01
  8.00000000E-01  1.50000000E+00  1.50000000E+00  8.00000000E-01  8.00000000E-01
  1.50000000E+00  1.50000000E+00  8.00000000E-01  8.00000000E-01  1.50000000E+00
  1.50000000E+00  8.00000000E-01  8.00000000E-01  1.50000000E+00  1.50000000E+00
  8.00000000E-01  8.00000000E-01  1.50000000E+00  1.50000000E+00  8.00000000E-01
  8.00000000E-01  1.50000000E+00  1.50000000E+00  8.00000000E-01  8.00000000E-01
  1.50000000E+00  1.50000000E+00  8.00000000E-01  8.00000000E-01  1.50000000E+00
  1.50000000E+00  8.00000000E-01  8.00000000E-01  1.50000000E+00  1.50000000E+00
  8.00000000E-01  8.00000000E-01  1.50000000E+00  1.50000000E+00  8.00000000E-01
  8.00000000E-01  1.50000000E+00  1.50000000E+00  8.00000000E-01  8.00000000E-01
  1.50000000E+00  1.50000000E+00  8.00000000E-01  8.00000000E-01  1.50000000E+00
  1.50000000E+00  8.00000000E-01  8.00000000E-01  1.50000000E+00  1.50000000E+00
  8.00000000E-01  8.00000000E-01  1.50000000E+00  1.50000000E+00  8.00000000E-01
  8.00000000E-01  1.50000000E+00  1.50000000E+00  8.00000000E-01  8.00000000E-01
  1.50000000E+00  1.50000000E+00  8.00000000E-01  8.00000000E-01  1.50000000E+00
  1.50000000E+00  8.00000000E-01  8.00000000E-01  1.50000000E+00  1.50000000E+00
  8.00000000E-01  8.00000000E-01  1.50000000E+00  1.50000000E+00  8.00000000E-01
  8.00000000E-01  1.50000000E+00  1.50000000E+00  8.00000000E-01  8.00000000E-01
  1.50000000E+00  1.50000000E+00  8.00000000E-01  8.00000000E-01  1.50000000E+00
  1.50000000E+00  8.00000000E-01  8.00000000E-01  1.50000000E+00  1.50000000E+00
  8.00000000E-01  8.00000000E-01  1.50000000E+00  1.50000000E+00  8.00000000E-01
  8.00000000E-01  1.50000000E+00  1.50000000E+00  8.00000000E-01  8.00000000E-01
  1.50000000E+00  1.50000000E+00  8.00000000E-01  8.00000000E-01  1.50000000E+00
  1.50000000E+00  8.00000000E-01  8.00000000E-01  1.50000000E+00  1.50000000E+00
  8.00000000E-01  8.00000000E-01  1.50000000E+00  1.50000000E+00  8.00000000E-01
  8.00000000E-01  1.50000000E+00  1.50000000E+00  8.00000000E-01  8.00000000E-01
  1.50000000E+00  1.50000000E+00  8.00000000E-01  8.00000000E-01  1.50000000E+00
  1.50000000E+00  8.00000000E-01  8.00000000E-01  1.50000000E+00  1.50000000E+00
  8.00000000E-01  8.00000000E-01  1.50000000E+00  1.50000000E+00  8.00000000E-01
  8.00000000E-01  1.50000000E+00  1.50000000E+00  8.00000000E-01  8.00000000E-01
  1.50000000E+00  1.50000000E+00  8.00000000E-01  8.00000000E-01  1.50000000E+00
  1.50000000E+00  8.00000000E-01  8.00000000E-01  1.50000000E+00  1.50000000E+00
  8.00000000E-01  8.00000000E-01  1.50000000E+00  1.50000000E+00  8.00000000E-01
  8.00000000E-01  1.50000000E+00  1.50000000E+00  8.00000000E-01  8.00000000E-01
  1.50000000E+00  1.50000000E+00  8.00000000E-01  8.00000000E-01  1.50000000E+00
  1.50000000E+00  8.00000000E-01  8.00000000E-01  1.50000000E+00  1.50000000E+00
  8.00000000E-01  8.00000000E-01  1.50000000E+00  1.50000000E+00  8.00000000E-01
  8.00000000E-01  1.50000000E+00  1.50000000E+00  8.00000000E-01  8.00000000E-01
  1.50000000E+00  1.50000000E+00  8.00000000E-01  8.00000000E-01  1.50000000E+00
  1.50000000E+00  8.00000000E-01  8.00000000E-01  1.50000000E+00  1.50000000E+00
  8.00000000E-01  8.00000000E-01  1.50000000E+00  1.50000000E+00  8.00000000E-01
  8.00000000E-01  1.50000000E+00  1.50000000E+00  8.00000000E-01  8.00000000E-01
  1.50000000E+00  1.50000000E+00  8.00000000E-01  8.00000000E-01  1.50000000E+00
  1.50000000E+00  8.00000000E-01  8.00000000E-01  1.50000000E+00  1.50000000E+00
  8.00000000E-01  8.00000000E-01  1.50000000E+00  1.50000000E+00  8.00000000E-01
  8.00000000E-01  1.50000000E+00  1.50000000E+00  8.00000000E-01  8.00000000E-01
  1.50000000E+00  1.50000000E+00  8.00000000E-01  8.00000000E-01  1.50000000E+00
  1.50000000E+00  8.00000000E-01  8.00000000E-01  1.50000000E+00  1.50000000E+00
  8.00000000E-01  8.00000000E-01  1.50000000E+00  1.50000000E+00  8.00000000E-01
  8.00000000E-01  1.50000000E+00  1.50000000E+00  8.00000000E-01  8.00000000E-01
  1.50000000E+00  1.50000000E+00  8.00000000E-01  8.00000000E-01  1.50000000E+00
  1.50000000E+00  8.00000000E-01  8.00000000E-01  1.50000000E+00  1.50000000E+00
  8.00000000E-01  8.00000000E-01  1.50000000E+00  1.50000000E+00  8.00000000E-01
  8.00000000E-01  1.50000000E+00  1.50000000E+00  8.00000000E-01  8.00000000E-01
  1.50000000E+00  1.50000000E+00  8.00000000E-01  8.00000000E-01  1.50000000E+00
  1.50000000E+00  8.00000000E-01  8.00000000E-01  1.50000000E+00  1.50000000E+00
  8.00000000E-01  8.00000000E-01  1.50000000E+00  1.50000000E+00  8.00000000E-01
  8.00000000E-01  1.50000000E+00  1.50000000E+00  8.00000000E-01  8.00000000E-01
  1.50000000E+00  1.50000000E+00  8.00000000E-01  8.00000000E-01  1.50000000E+00
  1.50000000E+00  8.00000000E-01  8.00000000E-01  1.50000000E+00  1.50000000E+00
  8.00000000E-01  8.00000000E-01  1.50000000E+00  1.50000000E+00  8.00000000E-01
  8.00000000E-01  1.50000000E+00  1.50000000E+00  8.00000000E-01  8.00000000E-01
  1.50000000E+00  1.50000000E+00  8.00000000E-01  8.00000000E-01  1.50000000E+00
  1.50000000E+00  8.00000000E-01  8.00000000E-01  1.50000000E+00  1.50000000E+00
  8.00000000E-01  8.00000000E-01  1.50000000E+00  1.50000000E+00  8.00000000E-01
  8.00000000E-01  1.50000000E+00  1.50000000E+00  8.00000000E-01  8.00000000E-01
  1.50000000E+00  1.50000000E+00  8.00000000E-01  8.00000000E-01  1.50000000E+00
  1.50000000E+00  8.00000000E-01  8.00000000E-01  1.50000000E+00  1.50000000E+00
  8.00000000E-01  8.00000000E-01  1.50000000E+00  1.50000000E+00  8.00000000E-01
  8.00000000E-01  1.50000000E+00  1.50000000E+00  8.00000000E-01  8.00000000E-01
  1.50000000E+00  1.50000000E+00  8.00000000E-01  8.00000000E-01  1.50000000E+00
  1.50000000E+00  8.00000000E-01  8.00000000E-01  1.50000000E+00  1.50000000E+00
  8.00000000E-01  8.00000000E-01  1.50000000E+00  1.50000000E+00  8.00000000E-01
  8.00000000E-01  1.50000000E+00  1.50000000E+00  8.00000000E-01  8.00000000E-01
  1.50000000E+00  1.50000000E+00  8.00000000E-01  8.00000000E-01  1.50000000E+00
  1.50000000E+00  8.00000000E-01  8.00000000E-01  1.50000000E+00  1.50000000E+00
  8.00000000E-01  8.00000000E-01  1.50000000E+00  1.50000000E+00  8.00000000E-01
  8.00000000E-01  1.50000000E+00  1.50000000E+00  8.00000000E-01  8.00000000E-01
  1.50000000E+00  1.50000000E+00  8.00000000E-01  8.00000000E-01  1.50000000E+00
  1.50000000E+00  8.00000000E-01  8.00000000E-01  1.50000000E+00  1.50000000E+00
  8.00000000E-01  8.00000000E-01  1.50000000E+00  1.50000000E+00  8.00000000E-01
  8.00000000E-01  1.50000000E+00  1.50000000E+00  8.00000000E-01  8.00000000E-01
  1.50000000E+00  1.50000000E+00  8.00000000E-01  8.00000000E-01  1.50000000E+00
  1.50000000E+00  8.00000000E-01  8.00000000E-01  1.50000000E+00  1.50000000E+00
  8.00000000E-01  8.00000000E-01  1.50000000E+00  1.50000000E+00  8.00000000E-01
  8.00000000E-01  1.50000000E+00  1.50000000E+00  8.00000000E-01  8.00000000E-01
  1.50000000E+00  1.50000000E+00  8.00000000E-01  8.00000000E-01  1.50000000E+00
  1.50000000E+00  8.00000000E-01  8.00000000E-01  1.50000000E+00  1.50000000E+00
  8.00000000E-01  8.00000000E-01  1.50000000E+00  1.50000000E+00  8.00000000E-01
  8.00000000E-01  1.50000000E+00  1.50000000E+00  8.00000000E-01  8.00000000E-01
  1.50000000E+00  1.50000000E+00  8.00000000E-01  8.00000000E-01  1.50000000E+00
  1.50000000E+00  8.00000000E-01  8.00000000E-01  1.50000000E+00  1.50000000E+00
  8.00000000E-01  8.00000000E-01  1.50000000E+00  1.50000000E+00  8.00000000E-01
  8.00000000E-01  1.50000000E+00  1.50000000E+00  8.00000000E-01  8.00000000E-01
  1.50000000E+00  1.50000000E+00  8.00000000E-01  8.00000000E-01  1.50000000E+00
  1.50000000E+00  8.00000000E-01  8.00000000E-01  1.50000000E+00  1.50000000E+00
  8.00000000E-01  8.00000000E-01  1.50000000E+00  1.50000000E+00  8.00000000E-01
  8.00000000E-01  1.50000000E+00  1.50000000E+00  8.00000000E-01  8.00000000E-01
  1.50000000E+00  1.50000000E+00  8.00000000E-01  8.00000000E-01  1.50000000E+00
  1.50000000E+00  8.00000000E-01  8.00000000E-01  1.50000000E+00  1.50000000E+00
  8.00000000E-01  8.00000000E-01  1.50000000E+00  1.50000000E+00  8.00000000E-01
  8.00000000E-01  1.50000000E+00  1.50000000E+00  8.00000000E-01  8.00000000E-01
  1.50000000E+00  1.50000000E+00  8.00000000E-01  8.00000000E-01  1.50000000E+00
  1.50000000E+00  8.00000000E-01  8.00000000E-01  1.50000000E+00  1.50000000E+00
  8.00000000E-01  8.00000000E-01  1.50000000E+00  1.50000000E+00  8.00000000E-01
  8.00000000E-01  1.50000000E+00  1.50000000E+00  8.00000000E-01  8.00000000E-01
  1.50000000E+00  1.50000000E+00  8.00000000E-01  8.00000000E-01  1.50000000E+00
  1.50000000E+00  8.00000000E-01  8.00000000E-01  1.50000000E+00  1.50000000E+00
  8.00000000E-01  8.00000000E-01  1.50000000E+00  1.50000000E+00  8.00000000E-01
  8.00000000E-01  1.50000000E+00  1.50000000E+00  8.00000000E-01  8.00000000E-01
  1.50000000E+00  1.50000000E+00  8.00000000E-01  8.00000000E-01  1.50000000E+00
  1.50000000E+00  8.00000000E-01  8.00000000E-01  1.50000000E+00  1.50000000E+00
  8.00000000E-01  8.00000000E-01  1.50000000E+00  1.50000000E+00  8.00000000E-01
  8.00000000E-01  1.50000000E+00  1.50000000E+00  8.00000000E-01  8.00000000E-01
  1.50000000E+00  1.50000000E+00  8.00000000E-01  8.00000000E-01  1.50000000E+00
  1.50000000E+00  8.00000000E-01  8.00000000E-01  1.50000000E+00  1.50000000E+00
  8.00000000E-01  8.00000000E-01  1.50000000E+00  1.50000000E+00  8.00000000E-01
  8.00000000E-01  1.50000000E+00  1.50000000E+00  8.00000000E-01  8.00000000E-01
  1.50000000E+00  1.50000000E+00  8.00000000E-01  8.00000000E-01  1.50000000E+00
  1.50000000E+00  8.00000000E-01  8.00000000E-01  1.50000000E+00  1.50000000E+00
  8.00000000E-01  8.00000000E-01  1.50000000E+00  1.50000000E+00  8.00000000E-01
  8.00000000E-01  1.50000000E+00  1.50000000E+00  8.00000000E-01  8.00000000E-01
  1.50000000E+00  1.50000000E+00  8.00000000E-01  8.00000000E-01  1.50000000E+00
  1.50000000E+00  8.00000000E-01  8.00000000E-01  1.50000000E+00  1.50000000E+00
  8.00000000E-01  8.00000000E-01  1.50000000E+00  1.50000000E+00  8.00000000E-01
  8.00000000E-01  1.50000000E+00  1.50000000E+00  8.00000000E-01  8.00000000E-01
  1.50000000E+00  1.50000000E+00  8.00000000E-01  8.00000000E-01  1.50000000E+00
  1.50000000E+00  8.00000000E-01  8.00000000E-01  1.50000000E+00  1.50000000E+00
  8.00000000E-01  8.00000000E-01  1.50000000E+00  1.50000000E+00  8.00000000E-01
  8.00000000E-01  1.50000000E+00  1.50000000E+00  8.00000000E-01  8.00000000E-01
  1.50000000E+00  1.50000000E+00  8.00000000E-01  8.00000000E-01  1.50000000E+00
  1.50000000E+00  8.00000000E-01  8.00000000E-01  1.50000000E+00  1.50000000E+00
  8.00000000E-01  8.00000000E-01  1.50000000E+00  1.50000000E+00  8.00000000E-01
  8.00000000E-01  1.50000000E+00  1.50000000E+00  8.00000000E-01  8.00000000E-01
  1.50000000E+00  1.50000000E+00  8.00000000E-01  8.00000000E-01  1.50000000E+00
  1.50000000E+00  8.00000000E-01  8.00000000E-01  1.50000000E+00  1.50000000E+00
  8.00000000E-01  8.00000000E-01  1.50000000E+00  1.50000000E+00  8.00000000E-01
  8.00000000E-01  1.50000000E+00  1.50000000E+00  8.00000000E-01  8.00000000E-01
  1.50000000E+00  1.50000000E+00  8.00000000E-01  8.00000000E-01  1.50000000E+00
  1.50000000E+00  8.00000000E-01  8.00000000E-01  1.50000000E+00  1.50000000E+00
  8.00000000E-01  8.00000000E-01  1.50000000E+00  1.50000000E+00  8.00000000E-01
  8.00000000E-01  1.50000000E+00  1.50000000E+00  8.00000000E-01  8.00000000E-01
  1.50000000E+00  1.50000000E+00  8.00000000E-01  8.00000000E-01  1.50000000E+00
  1.50000000E+00  8.00000000E-01  8.00000000E-01  1.50000000E+00  1.50000000E+00
  8.00000000E-01  8.00000000E-01  1.50000000E+00  1.50000000E+00  8.00000000E-01
  8.00000000E-01  1.50000000E+00  1.50000000E+00  8.00000000E-01  8.00000000E-01
  1.50000000E+00  1.50000000E+00  8.00000000E-01  8.00000000E-01  1.50000000E+00
  1.50000000E+00  8.00000000E-01  8.00000000E-01  1.50000000E+00  1.50000000E+00
  8.00000000E-01  8.00000000E-01  1.50000000E+00  1.50000000E+00  8.00000000E-01
  8.00000000E-01  1.50000000E+00  1.50000000E+00  8.00000000E-01  8.00000000E-01
  1.50000000E+00  1.50000000E+00  8.00000000E-01  8.00000000E-01  1.50000000E+00
  1.50000000E+00  8.00000000E-01  8.00000000E-01  1.50000000E+00  1.50000000E+00
  8.00000000E-01  8.00000000E-01  1.50000000E+00  1.50000000E+00  8.00000000E-01
  8.00000000E-01  1.50000000E+00  1.50000000E+00  8.00000000E-01  8.00000000E-01
  1.50000000E+00  1.50000000E+00  8.00000000E-01  8.00000000E-01  1.50000000E+00
  1.50000000E+00  8.00000000E-01  8.00000000E-01  1.50000000E+00  1.50000000E+00
  8.00000000E-01  8.00000000E-01  1.50000000E+00  1.50000000E+00  8.00000000E-01
  8.00000000E-01  1.50000000E+00  1.50000000E+00  8.00000000E-01  8.00000000E-01
  1.50000000E+00  1.50000000E+00  8.00000000E-01  8.00000000E-01  1.50000000E+00
  1.50000000E+00  8.00000000E-01  8.00000000E-01  1.50000000E+00  1.50000000E+00
  8.00000000E-01  8.00000000E-01  1.50000000E+00  1.50000000E+00  8.00000000E-01
  8.00000000E-01  1.50000000E+00  1.50000000E+00  8.00000000E-01  8.00000000E-01
  1.50000000E+00  1.50000000E+00  8.00000000E-01  8.00000000E-01  1.50000000E+00
  1.50000000E+00  8.00000000E-01  8.00000000E-01  1.50000000E+00  1.50000000E+00
  8.00000000E-01  8.00000000E-01  1.50000000E+00  1.50000000E+00  8.00000000E-01
  8.00000000E-01  1.50000000E+00  1.50000000E+00  8.00000000E-01  8.00000000E-01
  1.50000000E+00  1.50000000E+00  8.00000000E-01  8.00000000E-01  1.50000000E+00
  1.50000000E+00  8.00000000E-01  8.00000000E-01  1.50000000E+00  1.50000000E+00
  8.00000000E-01  8.00000000E-01  1.50000000E+00  1.50000000E+00  8.00000000E-01
  8.00000000E-01  1.50000000E+00  1.50000000E+00  8.00000000E-01  8.00000000E-01
  1.50000000E+00  1.50000000E+00  8.00000000E-01  8.00000000E-01  1.50000000E+00
  1.50000000E+00  8.00000000E-01  8.00000000E-01  1.50000000E+00  1.50000000E+00
  8.00000000E-01  8.00000000E-01  1.50000000E+00  1.50000000E+00  8.00000000E-01
  8.00000000E-01  1.50000000E+00  1.50000000E+00  8.00000000E-01  8.00000000E-01
  1.50000000E+00  1.50000000E+00  8.00000000E-01  8.00000000E-01  1.50000000E+00
  1.50000000E+00  8.00000000E-01  8.00000000E-01  1.50000000E+00  1.50000000E+00
  8.00000000E-01  8.00000000E-01  1.50000000E+00  1.50000000E+00  8.00000000E-01
  8.00000000E-01  1.50000000E+00  1.50000000E+00  8.00000000E-01  8.00000000E-01
  1.50000000E+00  1.50000000E+00  8.00000000E-01  8.00000000E-01  1.50000000E+00
  1.50000000E+00  8.00000000E-01  8.00000000E-01  1.50000000E+00  1.50000000E+00
  8.00000000E-01  8.00000000E-01  1.50000000E+00  1.50000000E+00  8.00000000E-01
  8.00000000E-01  1.50000000E+00  1.50000000E+00  8.00000000E-01  8.00000000E-01
  1.50000000E+00  1.50000000E+00  8.00000000E-01  8.00000000E-01  1.50000000E+00
  1.50000000E+00  8.00000000E-01  8.00000000E-01  1.50000000E+00  1.50000000E+00
  8.00000000E-01  8.00000000E-01  1.50000000E+00  1.50000000E+00  8.00000000E-01
  8.00000000E-01  1.50000000E+00  1.50000000E+00  8.00000000E-01  8.00000000E-01
  1.50000000E+00  1.50000000E+00  8.00000000E-01  8.00000000E-01  1.50000000E+00
  1.50000000E+00  8.00000000E-01  8.00000000E-01  1.50000000E+00  1.50000000E+00
  8.00000000E-01  8.00000000E-01  1.50000000E+00  1.50000000E+00  8.00000000E-01
  8.00000000E-01  1.50000000E+00  1.50000000E+00  8.00000000E-01  8.00000000E-01
  1.50000000E+00  1.50000000E+00  8.00000000E-01  8.00000000E-01  1.50000000E+00
  1.50000000E+00  8.00000000E-01  8.00000000E-01  1.50000000E+00  1.50000000E+00
  8.00000000E-01  8.00000000E-01  1.50000000E+00  1.50000000E+00  8.00000000E-01
  8.00000000E-01  1.50000000E+00  1.50000000E+00  8.00000000E-01  8.00000000E-01
  1.50000000E+00  1.50000000E+00  8.00000000E-01  8.00000000E-01  1.50000000E+00
  1.50000000E+00  8.00000000E-01  8.00000000E-01  1.50000000E+00  1.50000000E+00
  8.00000000E-01  8.00000000E-01  1.50000000E+00  1.50000000E+00  8.00000000E-01
  8.00000000E-01  1.50000000E+00  1.50000000E+00  8.00000000E-01  8.00000000E-01
  1.50000000E+00  1.50000000E+00  8.00000000E-01  8.00000000E-01  1.50000000E+00
  1.50000000E+00  8.00000000E-01  8.00000000E-01  1.50000000E+00  1.50000000E+00
  8.00000000E-01  8.00000000E-01  1.50000000E+00  1.50000000E+00  8.00000000E-01
  8.00000000E-01  1.50000000E+00  1.50000000E+00  8.00000000E-01  8.00000000E-01
  1.50000000E+00  1.50000000E+00  8.00000000E-01  8.00000000E-01  1.50000000E+00
  1.50000000E+00  8.00000000E-01  8.00000000E-01  1.50000000E+00  1.50000000E+00
  8.00000000E-01  8.00000000E-01  1.50000000E+00  1.50000000E+00  8.00000000E-01
  8.00000000E-01  1.50000000E+00  1.50000000E+00  8.00000000E-01  8.00000000E-01
  1.50000000E+00  1.50000000E+00  8.00000000E-01  8.00000000E-01  1.50000000E+00
  1.50000000E+00  8.00000000E-01  8.00000000E-01  1.50000000E+00  1.50000000E+00
  8.00000000E-01  8.00000000E-01  1.50000000E+00  1.50000000E+00  8.00000000E-01
  8.00000000E-01  1.50000000E+00  1.50000000E+00  8.00000000E-01  8.00000000E-01
  1.50000000E+00  1.50000000E+00  8.00000000E-01  8.00000000E-01  1.50000000E+00
  1.50000000E+00  8.00000000E-01  8.00000000E-01  1.50000000E+00  1.50000000E+00
  8.00000000E-01  8.00000000E-01  1.50000000E+00  1.50000000E+00  8.00000000E-01
  8.00000000E-01  1.50000000E+00  1.50000000E+00  8.00000000E-01  8.00000000E-01
  1.50000000E+00  1.50000000E+00  8.00000000E-01  8.00000000E-01  1.50000000E+00
  1.50000000E+00  8.00000000E-01  8.00000000E-01  1.50000000E+00  1.50000000E+00
  8.00000000E-01  8.00000000E-01  1.50000000E+00  1.50000000E+00  8.00000000E-01
  8.00000000E-01  1.50000000E+00  1.50000000E+00  8.00000000E-01  8.00000000E-01
  1.50000000E+00  1.50000000E+00  8.00000000E-01  8.00000000E-01  1.50000000E+00
  1.50000000E+00  8.00000000E-01  8.00000000E-01  1.50000000E+00  1.50000000E+00
  8.00000000E-01  8.00000000E-01  1.50000000E+00  1.50000000E+00  8.00000000E-01
  8.00000000E-01  1.50000000E+00  1.50000000E+00  8.00000000E-01  8.00000000E-01
  1.50000000E+00  1.50000000E+00  8.00000000E-01  8.00000000E-01  1.50000000E+00
  1.50000000E+00  8.00000000E-01  8.00000000E-01  1.50000000E+00  1.50000000E+00
  8.00000000E-01  8.00000000E-01  1.50000000E+00  1.50000000E+00  8.00000000E-01
  8.00000000E-01  1.50000000E+00  1.50000000E+00  8.00000000E-01  8.00000000E-01
  1.50000000E+00  1.50000000E+00  8.00000000E-01  8.00000000E-01  1.50000000E+00
  1.50000000E+00  8.00000000E-01  8.00000000E-01  1.50000000E+00  1.50000000E+00
  8.00000000E-01  8.00000000E-01  1.50000000E+00  1.50000000E+00  8.00000000E-01
  8.00000000E-01  1.50000000E+00  1.50000000E+00  8.00000000E-01  8.00000000E-01
  1.50000000E+00  1.50000000E+00  8.00000000E-01  8.00000000E-01  1.50000000E+00
  1.50000000E+00  8.00000000E-01  8.00000000E-01  1.50000000E+00  1.50000000E+00
  8.00000000E-01  8.00000000E-01  1.50000000E+00  1.50000000E+00  8.00000000E-01
  8.00000000E-01  1.50000000E+00  1.50000000E+00  8.00000000E-01  8.00000000E-01
  1.50000000E+00  1.50000000E+00  8.00000000E-01  8.00000000E-01  1.50000000E+00
  1.50000000E+00  8.00000000E-01  8.00000000E-01  1.50000000E+00  1.50000000E+00
  8.00000000E-01  8.00000000E-01  1.50000000E+00  1.50000000E+00  8.00000000E-01
  8.00000000E-01  1.50000000E+00  1.50000000E+00  8.00000000E-01  8.00000000E-01
  1.50000000E+00  1.50000000E+00  8.00000000E-01  8.00000000E-01  1.50000000E+00
  1.50000000E+00  8.00000000E-01  8.00000000E-01  1.50000000E+00  1.50000000E+00
  8.00000000E-01  8.00000000E-01  1.50000000E+00  1.50000000E+00  8.00000000E-01
  8.00000000E-01  1.50000000E+00  1.50000000E+00  8.00000000E-01  8.00000000E-01
  1.50000000E+00  1.50000000E+00  8.00000000E-01  8.00000000E-01  1.50000000E+00
  1.50000000E+00  8.00000000E-01  8.00000000E-01  1.50000000E+00  1.50000000E+00
  8.00000000E-01  8.00000000E-01  1.50000000E+00  1.50000000E+00  8.00000000E-01
  8.00000000E-01  1.50000000E+00  1.50000000E+00  8.00000000E-01  8.00000000E-01
  1.50000000E+00  1.50000000E+00  8.00000000E-01  8.00000000E-01  1.50000000E+00
  1.50000000E+00  8.00000000E-01  8.00000000E-01  1.50000000E+00  1.50000000E+00
  8.00000000E-01  8.00000000E-01  1.50000000E+00  1.50000000E+00  8.00000000E-01
  8.00000000E-01  1.50000000E+00  1.50000000E+00  8.00000000E-01  8.00000000E-01
  1.50000000E+00  1.50000000E+00  8.00000000E-01  8.00000000E-01  1.50000000E+00
  1.50000000E+00  8.00000000E-01  8.00000000E-01  1.50000000E+00  1.50000000E+00
  8.00000000E-01  8.00000000E-01  1.50000000E+00  1.50000000E+00  8.00000000E-01
  8.00000000E-01  1.50000000E+00  1.50000000E+00  8.00000000E-01  8.00000000E-01
  1.50000000E+00  1.50000000E+00  8.00000000E-01  8.00000000E-01  1.50000000E+00
  1.50000000E+00  8.00000000E-01  8.00000000E-01  1.50000000E+00  1.50000000E+00
  8.00000000E-01  8.00000000E-01  1.50000000E+00  1.50000000E+00  8.00000000E-01
  8.00000000E-01  1.50000000E+00  1.50000000E+00  8.00000000E-01  8.00000000E-01
  1.50000000E+00  1.50000000E+00  8.00000000E-01  8.00000000E-01  1.50000000E+00
  1.50000000E+00  8.00000000E-01  8.00000000E-01  1.50000000E+00  1.50000000E+00
  8.00000000E-01  8.00000000E-01  1.50000000E+00  1.50000000E+00  8.00000000E-01
  8.00000000E-01  1.50000000E+00  1.50000000E+00  8.00000000E-01  8.00000000E-01
  1.50000000E+00  1.50000000E+00  8.00000000E-01  8.00000000E-01  1.50000000E+00
  1.50000000E+00  8.00000000E-01  8.00000000E-01  1.50000000E+00  1.50000000E+00
  8.00000000E-01  8.00000000E-01  1.50000000E+00  1.50000000E+00  8.00000000E-01
  8.00000000E-01  1.50000000E+00  1.50000000E+00  8.00000000E-01  8.00000000E-01
  1.50000000E+00  1.50000000E+00  8.00000000E-01  8.00000000E-01  1.50000000E+00
  1.50000000E+00  8.00000000E-01  8.00000000E-01  1.50000000E+00  1.50000000E+00
  8.00000000E-01  8.00000000E-01  1.50000000E+00  1.50000000E+00  8.00000000E-01
  8.00000000E-01  1.50000000E+00  1.50000000E+00  8.00000000E-01  8.00000000E-01
  1.50000000E+00  1.50000000E+00  8.00000000E-01  8.00000000E-01  1.50000000E+00
  1.50000000E+00  8.00000000E-01  8.00000000E-01  1.50000000E+00  1.50000000E+00
  8.00000000E-01  8.00000000E-01  1.50000000E+00  1.50000000E+00  8.00000000E-01
  8.00000000E-01  1.50000000E+00  1.50000000E+00  8.00000000E-01  8.00000000E-01
  1.50000000E+00  1.50000000E+00  8.00000000E-01  8.00000000E-01  1.50000000E+00
  1.50000000E+00  8.00000000E-01  8.00000000E-01  1.50000000E+00  1.50000000E+00
  8.00000000E-01  8.00000000E-01  1.50000000E+00  1.50000000E+00  8.00000000E-01
  8.00000000E-01  1.50000000E+00  1.50000000E+00  8.00000000E-01  8.00000000E-01
  1.50000000E+00  1.50000000E+00  8.00000000E-01  8.00000000E-01  1.50000000E+00
  1.50000000E+00  8.00000000E-01  8.00000000E-01  1.50000000E+00  1.50000000E+00
  8.00000000E-01  8.00000000E-01  1.50000000E+00  1.50000000E+00  8.00000000E-01
  8.00000000E-01  1.50000000E+00  1.50000000E+00  8.00000000E-01  8.00000000E-01
  1.50000000E+00  1.50000000E+00  8.00000000E-01  8.00000000E-01  1.50000000E+00
  1.50000000E+00  8.00000000E-01  8.00000000E-01  1.50000000E+00  1.50000000E+00
  8.00000000E-01  8.00000000E-01  1.50000000E+00  1.50000000E+00  8.00000000E-01
  8.00000000E-01  1.50000000E+00  1.50000000E+00  8.00000000E-01  8.00000000E-01
  1.50000000E+00  1.50000000E+00  8.00000000E-01  8.00000000E-01  1.50000000E+00
  1.50000000E+00  8.00000000E-01  8.00000000E-01  1.50000000E+00  1.50000000E+00
  8.00000000E-01  8.00000000E-01  1.50000000E+00  1.50000000E+00  8.00000000E-01
  8.00000000E-01  1.50000000E+00  1.50000000E+00  8.00000000E-01  8.00000000E-01
  1.50000000E+00  1.50000000E+00  8.00000000E-01  8.00000000E-01  1.50000000E+00
  1.50000000E+00  8.00000000E-01  8.00000000E-01  1.50000000E+00  1.50000000E+00
  8.00000000E-01  8.00000000E-01  1.50000000E+00  1.50000000E+00  8.00000000E-01
  8.00000000E-01  1.50000000E+00  1.50000000E+00  8.00000000E-01  8.00000000E-01
  1.50000000E+00  1.50000000E+00  8.00000000E-01  8.00000000E-01  1.50000000E+00
  1.50000000E+00  8.00000000E-01  8.00000000E-01  1.50000000E+00  1.50000000E+00
  8.00000000E-01  8.00000000E-01  1.50000000E+00  1.50000000E+00  8.00000000E-01
  8.00000000E-01  1.50000000E+00  1.50000000E+00  8.00000000E-01  8.00000000E-01
  1.50000000E+00  1.50000000E+00  8.00000000E-01  8.00000000E-01  1.50000000E+00
  1.50000000E+00  8.00000000E-01  8.00000000E-01  1.50000000E+00  1.50000000E+00
  8.00000000E-01  8.00000000E-01  1.50000000E+00  1.50000000E+00  8.00000000E-01
  8.00000000E-01  1.50000000E+00  1.50000000E+00  8.00000000E-01  8.00000000E-01
  1.50000000E+00  1.50000000E+00  8.00000000E-01  8.00000000E-01  1.50000000E+00
  1.50000000E+00  8.00000000E-01  8.00000000E-01  1.50000000E+00  1.50000000E+00
  8.00000000E-01  8.00000000E-01  1.50000000E+00  1.50000000E+00  8.00000000E-01
  8.00000000E-01  1.50000000E+00  1.50000000E+00  8.00000000E-01  8.00000000E-01
  1.50000000E+00  1.50000000E+00  8.00000000E-01  8.00000000E-01  1.50000000E+00
  1.50000000E+00  8.00000000E-01  8.00000000E-01  1.50000000E+00  1.50000000E+00
  8.00000000E-01  8.00000000E-01  1.50000000E+00  1.50000000E+00  8.00000000E-01
  8.00000000E-01  1.50000000E+00  1.50000000E+00  8.00000000E-01  8.00000000E-01
  1.50000000E+00  1.50000000E+00  8.00000000E-01  8.00000000E-01  1.50000000E+00
  1.50000000E+00  8.00000000E-01  8.00000000E-01  1.50000000E+00  1.50000000E+00
  8.00000000E-01  8.00000000E-01  1.50000000E+00  1.50000000E+00  8.00000000E-01
  8.00000000E-01  1.50000000E+00  1.50000000E+00  8.00000000E-01  8.00000000E-01
  1.50000000E+00  1.50000000E+00  8.00000000E-01  8.00000000E-01  1.50000000E+00
  1.50000000E+00  8.00000000E-01  8.00000000E-01  1.50000000E+00  1.50000000E+00
  8.00000000E-01  8.00000000E-01  1.50000000E+00  1.50000000E+00  8.00000000E-01
  8.00000000E-01  1.50000000E+00  1.50000000E+00  8.00000000E-01  8.00000000E-01
  1.50000000E+00  1.50000000E+00  8.00000000E-01  8.00000000E-01  1.50000000E+00
  1.50000000E+00  8.00000000E-01  8.00000000E-01  1.50000000E+00  1.50000000E+00
  8.00000000E-01  8.00000000E-01  1.50000000E+00  1.50000000E+00  8.00000000E-01
  8.00000000E-01  1.50000000E+00  1.50000000E+00  8.00000000E-01  8.00000000E-01
  1.50000000E+00  1.50000000E+00  8.00000000E-01  8.00000000E-01  1.50000000E+00
  1.50000000E+00  8.00000000E-01  8.00000000E-01  1.50000000E+00  1.50000000E+00
  8.00000000E-01  8.00000000E-01  1.50000000E+00  1.50000000E+00  8.00000000E-01
  8.00000000E-01  1.50000000E+00  1.50000000E+00  8.00000000E-01  8.00000000E-01
  1.50000000E+00  1.50000000E+00  8.00000000E-01  8.00000000E-01  1.50000000E+00
  1.50000000E+00  8.00000000E-01  8.00000000E-01  1.50000000E+00  1.50000000E+00
  8.00000000E-01  8.00000000E-01  1.50000000E+00  1.50000000E+00  8.00000000E-01
  8.00000000E-01  1.50000000E+00  1.50000000E+00  8.00000000E-01  8.00000000E-01
  1.50000000E+00  1.50000000E+00  8.00000000E-01  8.00000000E-01  1.50000000E+00
  1.50000000E+00  8.00000000E-01  8.00000000E-01  1.50000000E+00  1.50000000E+00
  8.00000000E-01  8.00000000E-01  1.50000000E+00  1.50000000E+00  8.00000000E-01
  8.00000000E-01  1.50000000E+00  1.50000000E+00  8.00000000E-01  8.00000000E-01
  1.50000000E+00  1.50000000E+00  8.00000000E-01  8.00000000E-01  1.50000000E+00
  1.50000000E+00  8.00000000E-01  8.00000000E-01  1.50000000E+00  1.50000000E+00
  8.00000000E-01  8.00000000E-01  1.50000000E+00  1.50000000E+00  8.00000000E-01
  8.00000000E-01  1.50000000E+00  1.50000000E+00  8.00000000E-01  8.00000000E-01
  1.50000000E+00  1.50000000E+00  8.00000000E-01  8.00000000E-01  1.50000000E+00
  1.50000000E+00  8.00000000E-01  8.00000000E-01  1.50000000E+00  1.50000000E+00
  8.00000000E-01  8.00000000E-01  1.50000000E+00  1.50000000E+00  8.00000000E-01
  8.00000000E-01  1.50000000E+00  1.50000000E+00  8.00000000E-01  8.00000000E-01
  1.50000000E+00  1.50000000E+00  8.00000000E-01  8.00000000E-01  1.50000000E+00
  1.50000000E+00  8.00000000E-01  8.00000000E-01  1.50000000E+00  1.50000000E+00
  8.00000000E-01  8.00000000E-01  1.50000000E+00  1.50000000E+00  8.00000000E-01
  8.00000000E-01  1.50000000E+00  1.50000000E+00  8.00000000E-01  8.00000000E-01
  1.50000000E+00  1.50000000E+00  8.00000000E-01  8.00000000E-01  1.50000000E+00
  1.50000000E+00  8.00000000E-01  8.00000000E-01  1.50000000E+00  1.50000000E+00
  8.00000000E-01  8.00000000E-01  1.50000000E+00  1.50000000E+00  8.00000000E-01
  8.00000000E-01  1.50000000E+00  1.50000000E+00  8.00000000E-01  8.00000000E-01
  1.50000000E+00  1.50000000E+00  8.00000000E-01  8.00000000E-01  1.50000000E+00
  1.50000000E+00  8.00000000E-01  8.00000000E-01  1.50000000E+00  1.50000000E+00
  8.00000000E-01  8.00000000E-01  1.50000000E+00  1.50000000E+00  8.00000000E-01
  8.00000000E-01  1.50000000E+00  1.50000000E+00  8.00000000E-01  8.00000000E-01
  1.50000000E+00  1.50000000E+00  8.00000000E-01  8.00000000E-01  1.50000000E+00
  1.50000000E+00  8.00000000E-01  8.00000000E-01  1.50000000E+00  1.50000000E+00
  8.00000000E-01  8.00000000E-01  1.50000000E+00  1.50000000E+00  8.00000000E-01
  8.00000000E-01  1.50000000E+00  1.50000000E+00  8.00000000E-01  8.00000000E-01
  1.50000000E+00  1.50000000E+00  8.00000000E-01  8.00000000E-01  1.50000000E+00
  1.50000000E+00  8.00000000E-01  8.00000000E-01  1.50000000E+00  1.50000000E+00
  8.00000000E-01  8.00000000E-01  1.50000000E+00  1.50000000E+00  8.00000000E-01
  8.00000000E-01  1.50000000E+00  1.50000000E+00  8.00000000E-01  8.00000000E-01
  1.50000000E+00  1.50000000E+00  8.00000000E-01  8.00000000E-01  1.50000000E+00
  1.50000000E+00  8.00000000E-01  8.00000000E-01  1.50000000E+00  1.50000000E+00
  8.00000000E-01  8.00000000E-01  1.50000000E+00  1.50000000E+00  8.00000000E-01
  8.00000000E-01  1.50000000E+00  1.50000000E+00  8.00000000E-01  8.00000000E-01
  1.50000000E+00  1.50000000E+00  8.00000000E-01  8.00000000E-01  1.50000000E+00
  1.50000000E+00  8.00000000E-01  8.00000000E-01  1.50000000E+00  1.50000000E+00
  8.00000000E-01  8.00000000E-01  1.50000000E+00  1.50000000E+00  8.00000000E-01
  8.00000000E-01  1.50000000E+00  1.50000000E+00  8.00000000E-01  8.00000000E-01
  1.50000000E+00  1.50000000E+00  8.00000000E-01  8.00000000E-01  1.50000000E+00
  1.50000000E+00  8.00000000E-01  8.00000000E-01  1.50000000E+00  1.50000000E+00
  8.00000000E-01  8.00000000E-01  1.50000000E+00  1.50000000E+00  8.00000000E-01
  8.00000000E-01  1.50000000E+00  1.50000000E+00  8.00000000E-01  8.00000000E-01
  1.50000000E+00  1.50000000E+00  8.00000000E-01  8.00000000E-01  1.50000000E+00
  1.50000000E+00  8.00000000E-01  8.00000000E-01  1.50000000E+00  1.50000000E+00
  8.00000000E-01  8.00000000E-01  1.50000000E+00  1.50000000E+00  8.00000000E-01
  8.00000000E-01  1.50000000E+00  1.50000000E+00  8.00000000E-01  8.00000000E-01
  1.50000000E+00  1.50000000E+00  8.00000000E-01  8.00000000E-01  1.50000000E+00
  1.50000000E+00  8.00000000E-01  8.00000000E-01  1.50000000E+00  1.50000000E+00
  8.00000000E-01  8.00000000E-01  1.50000000E+00  1.50000000E+00  8.00000000E-01
  8.00000000E-01  1.50000000E+00  1.50000000E+00  8.00000000E-01  8.00000000E-01
  1.50000000E+00  1.50000000E+00  8.00000000E-01  8.00000000E-01  1.50000000E+00
  1.50000000E+00  8.00000000E-01  8.00000000E-01  1.50000000E+00  1.50000000E+00
  8.00000000E-01  8.00000000E-01  1.50000000E+00  1.50000000E+00  8.00000000E-01
  8.00000000E-01  1.50000000E+00  1.50000000E+00  8.00000000E-01  8.00000000E-01
  1.50000000E+00  1.50000000E+00  8.00000000E-01  8.00000000E-01  1.50000000E+00
  1.50000000E+00  8.00000000E-01  8.00000000E-01  1.50000000E+00  1.50000000E+00
  8.00000000E-01  8.00000000E-01  1.50000000E+00  1.50000000E+00  8.00000000E-01
  8.00000000E-01  1.50000000E+00  1.50000000E+00  8.00000000E-01  8.00000000E-01
  1.50000000E+00  1.50000000E+00  8.00000000E-01  8.00000000E-01  1.50000000E+00
  1.50000000E+00  8.00000000E-01  8.00000000E-01  1.50000000E+00  1.50000000E+00
  8.00000000E-01  8.00000000E-01  1.50000000E+00  1.50000000E+00  8.00000000E-01
  8.00000000E-01  1.50000000E+00  1.50000000E+00  8.00000000E-01  8.00000000E-01
  1.50000000E+00  1.50000000E+00  8.00000000E-01  8.00000000E-01  1.50000000E+00
  1.50000000E+00  8.00000000E-01  8.00000000E-01  1.50000000E+00  1.50000000E+00
  8.00000000E-01  8.00000000E-01  1.50000000E+00  1.50000000E+00  8.00000000E-01
  8.00000000E-01  1.50000000E+00  1.50000000E+00  8.00000000E-01  8.00000000E-01
  1.50000000E+00  1.50000000E+00  8.00000000E-01  8.00000000E-01  1.50000000E+00
  1.50000000E+00  8.00000000E-01  8.00000000E-01  1.50000000E+00  1.50000000E+00
  8.00000000E-01  8.00000000E-01  1.50000000E+00  1.50000000E+00  8.00000000E-01
  8.00000000E-01  1.50000000E+00  1.50000000E+00  8.00000000E-01  8.00000000E-01
  1.50000000E+00  1.50000000E+00  8.00000000E-01  8.00000000E-01  1.50000000E+00
  1.50000000E+00  8.00000000E-01  8.00000000E-01  1.50000000E+00  1.50000000E+00
  8.00000000E-01  8.00000000E-01  1.50000000E+00  1.50000000E+00  8.00000000E-01
  8.00000000E-01  1.50000000E+00  1.50000000E+00  8.00000000E-01  8.00000000E-01
  1.50000000E+00  1.50000000E+00  8.00000000E-01  8.00000000E-01  1.50000000E+00
  1.50000000E+00  8.00000000E-01  8.00000000E-01  1.50000000E+00  1.50000000E+00
  8.00000000E-01  8.00000000E-01  1.50000000E+00  1.50000000E+00  8.00000000E-01
  8.00000000E-01  1.50000000E+00  1.50000000E+00  8.00000000E-01  8.00000000E-01
  1.50000000E+00  1.50000000E+00  8.00000000E-01  8.00000000E-01  1.50000000E+00
  1.50000000E+00  8.00000000E-01  8.00000000E-01  1.50000000E+00  1.50000000E+00
  8.00000000E-01  8.00000000E-01  1.50000000E+00  1.50000000E+00  8.00000000E-01
  8.00000000E-01  1.50000000E+00  1.50000000E+00  8.00000000E-01  8.00000000E-01
  1.50000000E+00  1.50000000E+00  8.00000000E-01  8.00000000E-01  1.50000000E+00
  1.50000000E+00  8.00000000E-01  8.00000000E-01  1.50000000E+00  1.50000000E+00
  8.00000000E-01  8.00000000E-01  1.50000000E+00  1.50000000E+00  8.00000000E-01
  8.00000000E-01  1.50000000E+00  1.50000000E+00  8.00000000E-01  8.00000000E-01
  1.50000000E+00  1.50000000E+00  8.00000000E-01  8.00000000E-01  1.50000000E+00
  1.50000000E+00  8.00000000E-01  8.00000000E-01  1.50000000E+00  1.50000000E+00
  8.00000000E-01  8.00000000E-01  1.50000000E+00  1.50000000E+00  8.00000000E-01
  8.00000000E-01  1.50000000E+00  1.50000000E+00  8.00000000E-01  8.00000000E-01
  1.50000000E+00  1.50000000E+00  8.00000000E-01  8.00000000E-01  1.50000000E+00
  1.50000000E+00  8.00000000E-01  8.00000000E-01  1.50000000E+00  1.50000000E+00
  8.00000000E-01  8.00000000E-01  1.50000000E+00  1.50000000E+00  8.00000000E-01
  8.00000000E-01  1.50000000E+00  1.50000000E+00  8.00000000E-01  8.00000000E-01
  1.50000000E+00  1.50000000E+00  8.00000000E-01  8.00000000E-01  1.50000000E+00
  1.50000000E+00  8.00000000E-01  8.00000000E-01  1.50000000E+00  1.50000000E+00
  8.00000000E-01  8.00000000E-01  1.50000000E+00  1.50000000E+00  8.00000000E-01
  8.00000000E-01  1.50000000E+00  1.50000000E+00  8.00000000E-01  8.00000000E-01
  1.50000000E+00  1.50000000E+00  8.00000000E-01  8.00000000E-01  1.50000000E+00
  1.50000000E+00  8.00000000E-01  8.00000000E-01  1.50000000E+00  1.50000000E+00
  8.00000000E-01  8.00000000E-01  1.50000000E+00  1.50000000E+00  8.00000000E-01
  8.00000000E-01  1.50000000E+00  1.50000000E+00  8.00000000E-01  8.00000000E-01
  1.50000000E+00  1.50000000E+00  8.00000000E-01  8.00000000E-01  1.50000000E+00
  1.50000000E+00  8.00000000E-01  8.00000000E-01  1.50000000E+00  1.50000000E+00
  8.00000000E-01  8.00000000E-01  1.50000000E+00  1.50000000E+00  8.00000000E-01
  8.00000000E-01  1.50000000E+00  1.50000000E+00  8.00000000E-01  8.00000000E-01
  1.50000000E+00  1.50000000E+00  8.00000000E-01  8.00000000E-01  1.50000000E+00
  1.50000000E+00  8.00000000E-01  8.00000000E-01  1.50000000E+00  1.50000000E+00
  8.00000000E-01  8.00000000E-01  1.50000000E+00  1.50000000E+00  8.00000000E-01
  8.00000000E-01  1.50000000E+00  1.50000000E+00  8.00000000E-01  8.00000000E-01
  1.50000000E+00  1.50000000E+00  8.00000000E-01  8.00000000E-01  1.50000000E+00
  1.50000000E+00  8.00000000E-01  8.00000000E-01  1.50000000E+00  1.50000000E+00
  8.00000000E-01  8.00000000E-01  1.50000000E+00  1.50000000E+00  8.00000000E-01
  8.00000000E-01  1.50000000E+00  1.50000000E+00  8.00000000E-01  8.00000000E-01
  1.50000000E+00  1.50000000E+00  8.00000000E-01  8.00000000E-01  1.50000000E+00
  1.50000000E+00  8.00000000E-01  8.00000000E-01  1.50000000E+00  1.50000000E+00
  8.00000000E-01  8.00000000E-01  1.50000000E+00  1.50000000E+00  8.00000000E-01
  8.00000000E-01  1.50000000E+00  1.50000000E+00  8.00000000E-01  8.00000000E-01
  1.50000000E+00  1.50000000E+00  8.00000000E-01  8.00000000E-01  1.50000000E+00
  1.50000000E+00  8.00000000E-01  8.00000000E-01  1.50000000E+00  1.50000000E+00
  8.00000000E-01  8.00000000E-01  1.50000000E+00  1.50000000E+00  8.00000000E-01
  8.00000000E-01  1.50000000E+00  1.50000000E+00  8.00000000E-01  8.00000000E-01
  1.50000000E+00  1.50000000E+00  8.00000000E-01  8.00000000E-01  1.50000000E+00
  1.50000000E+00  8.00000000E-01  8.00000000E-01  1.50000000E+00  1.50000000E+00
  8.00000000E-01  8.00000000E-01  1.50000000E+00  1.50000000E+00  8.00000000E-01
  8.00000000E-01  1.50000000E+00  1.50000000E+00  8.00000000E-01  8.00000000E-01
  1.50000000E+00  1.50000000E+00  8.00000000E-01  8.00000000E-01  1.50000000E+00
  1.50000000E+00  8.00000000E-01  8.00000000E-01  1.50000000E+00  1.50000000E+00
  8.00000000E-01  8.00000000E-01  1.50000000E+00  1.50000000E+00  8.00000000E-01
  8.00000000E-01  1.50000000E+00  1.50000000E+00  8.00000000E-01  8.00000000E-01
  1.50000000E+00  1.50000000E+00  8.00000000E-01  8.00000000E-01  1.50000000E+00
  1.50000000E+00  8.00000000E-01  8.00000000E-01  1.50000000E+00  1.50000000E+00
  8.00000000E-01  8.00000000E-01  1.50000000E+00  1.50000000E+00  8.00000000E-01
  8.00000000E-01  1.50000000E+00  1.50000000E+00  8.00000000E-01  8.00000000E-01
  1.50000000E+00  1.50000000E+00  8.00000000E-01  8.00000000E-01  1.50000000E+00
  1.50000000E+00  8.00000000E-01  8.00000000E-01  1.50000000E+00  1.50000000E+00
  8.00000000E-01  8.00000000E-01  1.50000000E+00  1.50000000E+00  8.00000000E-01
  8.00000000E-01  1.50000000E+00  1.50000000E+00  8.00000000E-01  8.00000000E-01
  1.50000000E+00  1.50000000E+00  8.00000000E-01  8.00000000E-01  1.50000000E+00
  1.50000000E+00  8.00000000E-01  8.00000000E-01  1.50000000E+00  1.50000000E+00
  8.00000000E-01  8.00000000E-01  1.50000000E+00  1.50000000E+00  8.00000000E-01
  8.00000000E-01  1.50000000E+00  1.50000000E+00  8.00000000E-01  8.00000000E-01
  1.50000000E+00  1.50000000E+00  8.00000000E-01  8.00000000E-01  1.50000000E+00
  1.50000000E+00  8.00000000E-01  8.00000000E-01  1.50000000E+00  1.50000000E+00
  8.00000000E-01  8.00000000E-01  1.50000000E+00  1.50000000E+00  8.00000000E-01
  8.00000000E-01  1.50000000E+00  1.50000000E+00  8.00000000E-01  8.00000000E-01
  1.50000000E+00  1.50000000E+00  8.00000000E-01  8.00000000E-01  1.50000000E+00
  1.50000000E+00  8.00000000E-01  8.00000000E-01  1.50000000E+00  1.50000000E+00
  8.00000000E-01  8.00000000E-01  1.50000000E+00  1.50000000E+00  8.00000000E-01
  8.00000000E-01  1.50000000E+00  1.50000000E+00  8.00000000E-01  8.00000000E-01
  1.50000000E+00  1.50000000E+00  8.00000000E-01  8.00000000E-01  1.50000000E+00
  1.50000000E+00  8.00000000E-01  8.00000000E-01  1.50000000E+00  1.50000000E+00
  8.00000000E-01  8.00000000E-01  1.50000000E+00  1.50000000E+00  8.00000000E-01
  8.00000000E-01  1.50000000E+00  1.50000000E+00  8.00000000E-01  8.00000000E-01
  1.50000000E+00  1.50000000E+00  8.00000000E-01  8.00000000E-01  1.50000000E+00
  1.50000000E+00  8.00000000E-01  8.00000000E-01  1.50000000E+00  1.50000000E+00
  8.00000000E-01  8.00000000E-01  1.50000000E+00  1.50000000E+00  8.00000000E-01
  8.00000000E-01  1.50000000E+00  1.50000000E+00  8.00000000E-01  8.00000000E-01
  1.50000000E+00  1.50000000E+00  8.00000000E-01  8.00000000E-01  1.50000000E+00
  1.50000000E+00  8.00000000E-01  8.00000000E-01  1.50000000E+00  1.50000000E+00
  8.00000000E-01  8.00000000E-01  1.50000000E+00  1.50000000E+00  8.00000000E-01
  8.00000000E-01  1.50000000E+00  1.50000000E+00  8.00000000E-01  8.00000000E-01
  1.50000000E+00  1.50000000E+00  8.00000000E-01  8.00000000E-01  1.50000000E+00
  1.50000000E+00  8.00000000E-01  8.00000000E-01  1.50000000E+00  1.50000000E+00
  8.00000000E-01  8.00000000E-01  1.50000000E+00  1.50000000E+00  8.00000000E-01
  8.00000000E-01  1.50000000E+00  1.50000000E+00  8.00000000E-01  8.00000000E-01
  1.50000000E+00  1.50000000E+00  8.00000000E-01  8.00000000E-01  1.50000000E+00
  1.50000000E+00  8.00000000E-01  8.00000000E-01  1.50000000E+00  1.50000000E+00
  8.00000000E-01  8.00000000E-01  1.50000000E+00  1.50000000E+00  8.00000000E-01
  8.00000000E-01  1.50000000E+00  1.50000000E+00  8.00000000E-01  8.00000000E-01
  1.50000000E+00  1.50000000E+00  8.00000000E-01  8.00000000E-01  1.50000000E+00
  1.50000000E+00  8.00000000E-01  8.00000000E-01  1.50000000E+00  1.50000000E+00
  8.00000000E-01  8.00000000E-01  1.50000000E+00  1.50000000E+00  8.00000000E-01
  8.00000000E-01  1.50000000E+00  1.50000000E+00  8.00000000E-01  8.00000000E-01
  1.50000000E+00  1.50000000E+00  8.00000000E-01  8.00000000E-01  1.50000000E+00
  1.50000000E+00  8.00000000E-01  8.00000000E-01  1.50000000E+00  1.50000000E+00
  8.00000000E-01  8.00000000E-01  1.50000000E+00  1.50000000E+00  8.00000000E-01
  8.00000000E-01  1.50000000E+00  1.50000000E+00  8.00000000E-01  8.00000000E-01
  1.50000000E+00  1.50000000E+00  8.00000000E-01  8.00000000E-01  1.50000000E+00
  1.50000000E+00  8.00000000E-01  8.00000000E-01  1.50000000E+00  1.50000000E+00
  8.00000000E-01  8.00000000E-01  1.50000000E+00  1.50000000E+00  8.00000000E-01
  8.00000000E-01  1.50000000E+00  1.50000000E+00  8.00000000E-01  8.00000000E-01
  1.50000000E+00  1.50000000E+00  8.00000000E-01  8.00000000E-01  1.50000000E+00
  1.50000000E+00  8.00000000E-01  8.00000000E-01  1.50000000E+00  1.50000000E+00
  8.00000000E-01  8.00000000E-01  1.50000000E+00  1.50000000E+00  8.00000000E-01
  8.00000000E-01  1.50000000E+00  1.50000000E+00  8.00000000E-01  8.00000000E-01
  1.50000000E+00  1.50000000E+00  8.00000000E-01  8.00000000E-01  1.50000000E+00
  1.50000000E+00  8.00000000E-01  8.00000000E-01  1.50000000E+00  1.50000000E+00
  8.00000000E-01  8.00000000E-01  1.50000000E+00  1.50000000E+00  8.00000000E-01
  8.00000000E-01  1.50000000E+00  1.50000000E+00  8.00000000E-01  8.00000000E-01
  1.50000000E+00  1.50000000E+00  8.00000000E-01  8.00000000E-01  1.50000000E+00
  1.50000000E+00  8.00000000E-01  8.00000000E-01  1.50000000E+00  1.50000000E+00
  8.00000000E-01  8.00000000E-01  1.50000000E+00  1.50000000E+00  8.00000000E-01
  8.00000000E-01  1.50000000E+00  1.50000000E+00  8.00000000E-01  8.00000000E-01
  1.50000000E+00  1.50000000E+00  8.00000000E-01  8.00000000E-01  1.50000000E+00
  1.50000000E+00  8.00000000E-01  8.00000000E-01  1.50000000E+00  1.50000000E+00
  8.00000000E-01  8.00000000E-01  1.50000000E+00  1.50000000E+00  8.00000000E-01
  8.00000000E-01  1.50000000E+00  1.50000000E+00  8.00000000E-01  8.00000000E-01
  1.50000000E+00  1.50000000E+00  8.00000000E-01  8.00000000E-01  1.50000000E+00
  1.50000000E+00  8.00000000E-01  8.00000000E-01  1.50000000E+00  1.50000000E+00
  8.00000000E-01  8.00000000E-01  1.50000000E+00  1.50000000E+00  8.00000000E-01
  8.00000000E-01  1.50000000E+00  1.50000000E+00  8.00000000E-01  8.00000000E-01
  1.50000000E+00  1.50000000E+00  8.00000000E-01  8.00000000E-01  1.50000000E+00
  1.50000000E+00  8.00000000E-01  8.00000000E-01  1.50000000E+00  1.50000000E+00
  8.00000000E-01  8.00000000E-01  1.50000000E+00  1.50000000E+00  8.00000000E-01
  8.00000000E-01  1.50000000E+00  1.50000000E+00  8.00000000E-01  8.00000000E-01
  1.50000000E+00  1.50000000E+00  8.00000000E-01  8.00000000E-01  1.50000000E+00
  1.50000000E+00  8.00000000E-01  8.00000000E-01  1.50000000E+00  1.50000000E+00
  8.00000000E-01  8.00000000E-01  1.50000000E+00  1.50000000E+00  8.00000000E-01
  8.00000000E-01  1.50000000E+00  1.50000000E+00  8.00000000E-01  8.00000000E-01
  1.50000000E+00  1.50000000E+00  8.00000000E-01  8.00000000E-01  1.50000000E+00
  1.50000000E+00  8.00000000E-01  8.00000000E-01  1.50000000E+00  1.50000000E+00
  8.00000000E-01  8.00000000E-01  1.50000000E+00  1.50000000E+00  8.00000000E-01
  8.00000000E-01  1.50000000E+00  1.50000000E+00  8.00000000E-01  8.00000000E-01
  1.50000000E+00  1.50000000E+00  8.00000000E-01  8.00000000E-01  1.50000000E+00
  1.50000000E+00  8.00000000E-01  8.00000000E-01  1.50000000E+00  1.50000000E+00
  8.00000000E-01  8.00000000E-01  1.50000000E+00  1.50000000E+00  8.00000000E-01
  8.00000000E-01  1.50000000E+00  1.50000000E+00  8.00000000E-01  8.00000000E-01
  1.50000000E+00  1.50000000E+00  8.00000000E-01  8.00000000E-01  1.50000000E+00
  1.50000000E+00  8.00000000E-01  8.00000000E-01  1.50000000E+00  1.50000000E+00
  8.00000000E-01  8.00000000E-01  1.50000000E+00  1.50000000E+00  8.00000000E-01
  8.00000000E-01  1.50000000E+00  1.50000000E+00  8.00000000E-01  8.00000000E-01
  1.50000000E+00  1.50000000E+00  8.00000000E-01  8.00000000E-01  1.50000000E+00
  1.50000000E+00  8.00000000E-01  8.00000000E-01  1.50000000E+00  1.50000000E+00
  8.00000000E-01  8.00000000E-01  1.50000000E+00  1.50000000E+00  8.00000000E-01
  8.00000000E-01  1.50000000E+00  1.50000000E+00  8.00000000E-01  8.00000000E-01
  1.50000000E+00  1.50000000E+00  8.00000000E-01  8.00000000E-01  1.50000000E+00
  1.50000000E+00  8.00000000E-01  8.00000000E-01  1.50000000E+00  1.50000000E+00
  8.00000000E-01  8.00000000E-01  1.50000000E+00  1.50000000E+00  8.00000000E-01
  8.00000000E-01  1.50000000E+00  1.50000000E+00  8.00000000E-01  8.00000000E-01
  1.50000000E+00  1.50000000E+00  8.00000000E-01  8.00000000E-01  1.50000000E+00
  1.50000000E+00  8.00000000E-01  8.00000000E-01  1.50000000E+00  1.50000000E+00
  8.00000000E-01  8.00000000E-01  1.50000000E+00  1.50000000E+00  8.00000000E-01
  8.00000000E-01  1.50000000E+00  1.50000000E+00  8.00000000E-01  8.00000000E-01
  1.50000000E+00  1.50000000E+00  8.00000000E-01  8.00000000E-01  1.50000000E+00
  1.50000000E+00  8.00000000E-01  8.00000000E-01  1.50000000E+00  1.50000000E+00
  8.00000000E-01  8.00000000E-01  1.50000000E+00  1.50000000E+00  8.00000000E-01
  8.00000000E-01  1.50000000E+00  1.50000000E+00  8.00000000E-01  8.00000000E-01
  1.50000000E+00  1.50000000E+00  8.00000000E-01  8.00000000E-01  1.50000000E+00
  1.50000000E+00  8.00000000E-01  8.00000000E-01  1.50000000E+00  1.50000000E+00
  8.00000000E-01  8.00000000E-01  1.50000000E+00  1.50000000E+00  8.00000000E-01
  8.00000000E-01  1.50000000E+00  1.50000000E+00  8.00000000E-01  8.00000000E-01
  1.50000000E+00  1.50000000E+00  8.00000000E-01  8.00000000E-01  1.50000000E+00
  1.50000000E+00  8.00000000E-01  8.00000000E-01  1.50000000E+00  1.50000000E+00
  8.00000000E-01  8.00000000E-01  1.50000000E+00  1.50000000E+00  8.00000000E-01
  8.00000000E-01  1.50000000E+00  1.50000000E+00  8.00000000E-01  8.00000000E-01
  1.50000000E+00  1.50000000E+00  8.00000000E-01  8.00000000E-01  1.50000000E+00
  1.50000000E+00  8.00000000E-01  8.00000000E-01  1.50000000E+00  1.50000000E+00
  8.00000000E-01  8.00000000E-01  1.50000000E+00  1.50000000E+00  8.00000000E-01
  8.00000000E-01  1.50000000E+00  1.50000000E+00  8.00000000E-01  8.00000000E-01
  1.50000000E+00  1.50000000E+00  8.00000000E-01  8.00000000E-01  1.50000000E+00
  1.50000000E+00  8.00000000E-01  8.00000000E-01  1.50000000E+00  1.50000000E+00
  8.00000000E-01  8.00000000E-01  1.50000000E+00  1.50000000E+00  8.00000000E-01
  8.00000000E-01  1.50000000E+00  1.50000000E+00  8.00000000E-01  8.00000000E-01
  1.50000000E+00  1.50000000E+00  8.00000000E-01  8.00000000E-01  1.50000000E+00
  1.50000000E+00  8.00000000E-01  8.00000000E-01  1.50000000E+00  1.50000000E+00
  8.00000000E-01  8.00000000E-01  1.50000000E+00  1.50000000E+00  8.00000000E-01
  8.00000000E-01  1.50000000E+00  1.50000000E+00  8.00000000E-01  8.00000000E-01
  1.50000000E+00  1.50000000E+00  8.00000000E-01  8.00000000E-01  1.50000000E+00
  1.50000000E+00  8.00000000E-01  8.00000000E-01  1.50000000E+00  1.50000000E+00
  8.00000000E-01  8.00000000E-01  1.50000000E+00  1.50000000E+00  8.00000000E-01
  8.00000000E-01  1.50000000E+00  1.50000000E+00  8.00000000E-01  8.00000000E-01
  1.50000000E+00  1.50000000E+00  8.00000000E-01  8.00000000E-01  1.50000000E+00
  1.50000000E+00  8.00000000E-01  8.00000000E-01  1.50000000E+00  1.50000000E+00
  8.00000000E-01  8.00000000E-01  1.50000000E+00  1.50000000E+00  8.00000000E-01
  8.00000000E-01  1.50000000E+00  1.50000000E+00  8.00000000E-01  8.00000000E-01
  1.50000000E+00  1.50000000E+00  8.00000000E-01  8.00000000E-01  1.50000000E+00
  1.50000000E+00  8.00000000E-01  8.00000000E-01  1.50000000E+00  1.50000000E+00
  8.00000000E-01  8.00000000E-01  1.50000000E+00  1.50000000E+00  8.00000000E-01
  8.00000000E-01  1.50000000E+00  1.50000000E+00  8.00000000E-01  8.00000000E-01
  1.50000000E+00  1.50000000E+00  8.00000000E-01  8.00000000E-01  1.50000000E+00
  1.50000000E+00  8.00000000E-01  8.00000000E-01  1.50000000E+00  1.50000000E+00
  8.00000000E-01  8.00000000E-01  1.50000000E+00  1.50000000E+00  8.00000000E-01
  8.00000000E-01  1.50000000E+00  1.50000000E+00  8.00000000E-01  8.00000000E-01
  1.50000000E+00  1.50000000E+00  8.00000000E-01  8.00000000E-01  1.50000000E+00
  1.50000000E+00  8.00000000E-01  8.00000000E-01  1.50000000E+00  1.50000000E+00
  8.00000000E-01  8.00000000E-01  1.50000000E+00  1.50000000E+00  8.00000000E-01
  8.00000000E-01  1.50000000E+00  1.50000000E+00  8.00000000E-01  8.00000000E-01
  1.50000000E+00  1.50000000E+00  8.00000000E-01  8.00000000E-01  1.50000000E+00
  1.50000000E+00  8.00000000E-01  8.00000000E-01  1.50000000E+00  1.50000000E+00
  8.00000000E-01  8.00000000E-01  1.50000000E+00  1.50000000E+00  8.00000000E-01
  8.00000000E-01  1.50000000E+00  1.50000000E+00  8.00000000E-01  8.00000000E-01
  1.50000000E+00  1.50000000E+00  8.00000000E-01  8.00000000E-01  1.50000000E+00
  1.50000000E+00  8.00000000E-01  8.00000000E-01  1.50000000E+00  1.50000000E+00
  8.00000000E-01  8.00000000E-01  1.50000000E+00  1.50000000E+00  8.00000000E-01
  8.00000000E-01  1.50000000E+00  1.50000000E+00  8.00000000E-01  8.00000000E-01
  1.50000000E+00  1.50000000E+00  8.00000000E-01  8.00000000E-01  1.50000000E+00
  1.50000000E+00  8.00000000E-01  8.00000000E-01  1.50000000E+00  1.50000000E+00
  8.00000000E-01  8.00000000E-01  1.50000000E+00  1.50000000E+00  8.00000000E-01
  8.00000000E-01  1.50000000E+00  1.50000000E+00  8.00000000E-01  8.00000000E-01
  1.50000000E+00  1.50000000E+00  8.00000000E-01  8.00000000E-01  1.50000000E+00
  1.50000000E+00  8.00000000E-01  8.00000000E-01  1.50000000E+00  1.50000000E+00
  8.00000000E-01  8.00000000E-01  1.50000000E+00  1.50000000E+00  8.00000000E-01
  8.00000000E-01  1.50000000E+00  1.50000000E+00  8.00000000E-01  8.00000000E-01
  1.50000000E+00  1.50000000E+00  8.00000000E-01  8.00000000E-01  1.50000000E+00
  1.50000000E+00  8.00000000E-01  8.00000000E-01  1.50000000E+00  1.50000000E+00
  8.00000000E-01  8.00000000E-01  1.50000000E+00  1.50000000E+00  8.00000000E-01
  8.00000000E-01  1.50000000E+00  1.50000000E+00  8.00000000E-01  8.00000000E-01
  1.50000000E+00  1.50000000E+00  8.00000000E-01  8.00000000E-01  1.50000000E+00
  1.50000000E+00  8.00000000E-01  8.00000000E-01  1.50000000E+00  1.50000000E+00
  8.00000000E-01  8.00000000E-01  1.50000000E+00  1.50000000E+00  8.00000000E-01
  8.00000000E-01  1.50000000E+00  1.50000000E+00  8.00000000E-01  8.00000000E-01
  1.50000000E+00  1.50000000E+00  8.00000000E-01  8.00000000E-01  1.50000000E+00
  1.50000000E+00  8.00000000E-01  8.00000000E-01  1.50000000E+00  1.50000000E+00
  8.00000000E-01  8.00000000E-01  1.50000000E+00  1.50000000E+00  8.00000000E-01
  8.00000000E-01  1.50000000E+00  1.50000000E+00  8.00000000E-01  8.00000000E-01
  1.50000000E+00  1.50000000E+00  8.00000000E-01  8.00000000E-01  1.50000000E+00
  1.50000000E+00  8.00000000E-01  8.00000000E-01  1.50000000E+00  1.50000000E+00
  8.00000000E-01  8.00000000E-01  1.50000000E+00  1.50000000E+00  8.00000000E-01
  8.00000000E-01  1.50000000E+00  1.50000000E+00  8.00000000E-01  8.00000000E-01
  1.50000000E+00  1.50000000E+00  8.00000000E-01  8.00000000E-01  1.50000000E+00
  1.50000000E+00  8.00000000E-01  8.00000000E-01  1.50000000E+00  1.50000000E+00
  8.00000000E-01  8.00000000E-01  1.50000000E+00  1.50000000E+00  8.00000000E-01
  8.00000000E-01  1.50000000E+00  1.50000000E+00  8.00000000E-01  8.00000000E-01
  1.50000000E+00  1.50000000E+00  8.00000000E-01  8.00000000E-01  1.50000000E+00
  1.50000000E+00  8.00000000E-01  8.00000000E-01  1.50000000E+00  1.50000000E+00
  8.00000000E-01  8.00000000E-01  1.50000000E+00  1.50000000E+00  8.00000000E-01
  8.00000000E-01  1.50000000E+00  1.50000000E+00  8.00000000E-01  8.00000000E-01
  1.50000000E+00  1.50000000E+00  8.00000000E-01  8.00000000E-01  1.50000000E+00
  1.50000000E+00  8.00000000E-01  8.00000000E-01  1.50000000E+00  1.50000000E+00
  8.00000000E-01  8.00000000E-01  1.50000000E+00  1.50000000E+00  8.00000000E-01
  8.00000000E-01  1.50000000E+00  1.50000000E+00  8.00000000E-01  8.00000000E-01
  1.50000000E+00  1.50000000E+00  8.00000000E-01  8.00000000E-01  1.50000000E+00
  1.50000000E+00  8.00000000E-01  8.00000000E-01  1.50000000E+00  1.50000000E+00
  8.00000000E-01  8.00000000E-01  1.50000000E+00  1.50000000E+00  8.00000000E-01
  8.00000000E-01  1.50000000E+00  1.50000000E+00  8.00000000E-01  8.00000000E-01
  1.50000000E+00  1.50000000E+00  8.00000000E-01  8.00000000E-01  1.50000000E+00
  1.50000000E+00  8.00000000E-01  8.00000000E-01  1.50000000E+00  1.50000000E+00
  8.00000000E-01  8.00000000E-01  1.50000000E+00  1.50000000E+00  8.00000000E-01
  8.00000000E-01  1.50000000E+00  1.50000000E+00  8.00000000E-01  8.00000000E-01
  1.50000000E+00  1.50000000E+00  8.00000000E-01  8.00000000E-01  1.50000000E+00
  1.50000000E+00  8.00000000E-01  8.00000000E-01  1.50000000E+00  1.50000000E+00
  8.00000000E-01  8.00000000E-01  1.50000000E+00  1.50000000E+00  8.00000000E-01
  8.00000000E-01  1.50000000E+00  1.50000000E+00  8.00000000E-01  8.00000000E-01
  1.50000000E+00  1.50000000E+00  8.00000000E-01  8.00000000E-01  1.50000000E+00
  1.50000000E+00  8.00000000E-01  8.00000000E-01  1.50000000E+00  1.50000000E+00
  8.00000000E-01  8.00000000E-01  1.50000000E+00  1.50000000E+00  8.00000000E-01
  8.00000000E-01  1.50000000E+00  1.50000000E+00  8.00000000E-01  8.00000000E-01
  1.50000000E+00  1.50000000E+00  8.00000000E-01  8.00000000E-01  1.50000000E+00
  1.50000000E+00  8.00000000E-01  8.00000000E-01  1.50000000E+00  1.50000000E+00
  8.00000000E-01  8.00000000E-01  1.50000000E+00  1.50000000E+00  8.00000000E-01
  8.00000000E-01  1.50000000E+00  1.50000000E+00  8.00000000E-01  8.00000000E-01
  1.50000000E+00  1.50000000E+00  8.00000000E-01  8.00000000E-01  1.50000000E+00
  1.50000000E+00  8.00000000E-01  8.00000000E-01  1.50000000E+00  1.50000000E+00
  8.00000000E-01  8.00000000E-01  1.50000000E+00  1.50000000E+00  8.00000000E-01
  8.00000000E-01  1.50000000E+00  1.50000000E+00  8.00000000E-01  8.00000000E-01
  1.50000000E+00  1.50000000E+00  8.00000000E-01  8.00000000E-01  1.50000000E+00
  1.50000000E+00  8.00000000E-01  8.00000000E-01  1.50000000E+00  1.50000000E+00
  8.00000000E-01  8.00000000E-01  1.50000000E+00  1.50000000E+00  8.00000000E-01
  8.00000000E-01  1.50000000E+00  1.50000000E+00  8.00000000E-01  8.00000000E-01
  1.50000000E+00  1.50000000E+00  8.00000000E-01  8.00000000E-01  1.50000000E+00
  1.50000000E+00  8.00000000E-01  8.00000000E-01  1.50000000E+00  1.50000000E+00
  8.00000000E-01  8.00000000E-01  1.50000000E+00  1.50000000E+00  8.00000000E-01
  8.00000000E-01  1.50000000E+00  1.50000000E+00  8.00000000E-01  8.00000000E-01
  1.50000000E+00  1.50000000E+00  8.00000000E-01  8.00000000E-01  1.50000000E+00
  1.50000000E+00  8.00000000E-01  8.00000000E-01  1.50000000E+00  1.50000000E+00
  8.00000000E-01  8.00000000E-01  1.50000000E+00  1.50000000E+00  8.00000000E-01
  8.00000000E-01  1.50000000E+00  1.50000000E+00  8.00000000E-01  8.00000000E-01
  1.50000000E+00  1.50000000E+00  8.00000000E-01  8.00000000E-01  1.50000000E+00
  1.50000000E+00  8.00000000E-01  8.00000000E-01  1.50000000E+00  1.50000000E+00
  8.00000000E-01  8.00000000E-01  1.50000000E+00  1.50000000E+00  8.00000000E-01
  8.00000000E-01  1.50000000E+00  1.50000000E+00  8.00000000E-01  8.00000000E-01
  1.50000000E+00  1.50000000E+00  8.00000000E-01  8.00000000E-01  1.50000000E+00
  1.50000000E+00  8.00000000E-01  8.00000000E-01  1.50000000E+00  1.50000000E+00
  8.00000000E-01  8.00000000E-01  1.50000000E+00  1.50000000E+00  8.00000000E-01
  8.00000000E-01  1.50000000E+00  1.50000000E+00  8.00000000E-01  8.00000000E-01
  1.50000000E+00  1.50000000E+00  8.00000000E-01  8.00000000E-01  1.50000000E+00
  1.50000000E+00  8.00000000E-01  8.00000000E-01  1.50000000E+00  1.50000000E+00
  8.00000000E-01  8.00000000E-01  1.50000000E+00  1.50000000E+00  8.00000000E-01
  8.00000000E-01  1.50000000E+00  1.50000000E+00  8.00000000E-01  8.00000000E-01
  1.50000000E+00  1.50000000E+00  8.00000000E-01  8.00000000E-01  1.50000000E+00
  1.50000000E+00  8.00000000E-01  8.00000000E-01  1.50000000E+00  1.50000000E+00
  8.00000000E-01  8.00000000E-01  1.50000000E+00  1.50000000E+00  8.00000000E-01
  8.00000000E-01  1.50000000E+00  1.50000000E+00  8.00000000E-01  8.00000000E-01
  1.50000000E+00  1.50000000E+00  8.00000000E-01  8.00000000E-01  1.50000000E+00
  1.50000000E+00  8.00000000E-01  8.00000000E-01  1.50000000E+00  1.50000000E+00
  8.00000000E-01  8.00000000E-01  1.50000000E+00  1.50000000E+00  8.00000000E-01
  8.00000000E-01  1.50000000E+00  1.50000000E+00  8.00000000E-01  8.00000000E-01
  1.50000000E+00  1.50000000E+00  8.00000000E-01  8.00000000E-01  1.50000000E+00
  1.50000000E+00  8.00000000E-01  8.00000000E-01  1.50000000E+00  1.50000000E+00
  8.00000000E-01  8.00000000E-01  1.50000000E+00  1.50000000E+00  8.00000000E-01
  8.00000000E-01  1.50000000E+00  1.50000000E+00  8.00000000E-01  8.00000000E-01
  1.50000000E+00  1.50000000E+00  8.00000000E-01  8.00000000E-01  1.50000000E+00
  1.50000000E+00  8.00000000E-01  8.00000000E-01  1.50000000E+00  1.50000000E+00
  8.00000000E-01  8.00000000E-01  1.50000000E+00  1.50000000E+00  8.00000000E-01
  8.00000000E-01  1.50000000E+00  1.50000000E+00  8.00000000E-01  8.00000000E-01
  1.50000000E+00  1.50000000E+00  8.00000000E-01  8.00000000E-01  1.50000000E+00
  1.50000000E+00  8.00000000E-01  8.00000000E-01  1.50000000E+00  1.50000000E+00
  8.00000000E-01  8.00000000E-01  1.50000000E+00  1.50000000E+00  8.00000000E-01
  8.00000000E-01  1.50000000E+00  1.50000000E+00  8.00000000E-01  8.00000000E-01
  1.50000000E+00  1.50000000E+00  8.00000000E-01  8.00000000E-01  1.50000000E+00
  1.50000000E+00  8.00000000E-01  8.00000000E-01  1.50000000E+00  1.50000000E+00
  8.00000000E-01  8.00000000E-01  1.50000000E+00  1.50000000E+00  8.00000000E-01
  8.00000000E-01  1.50000000E+00  1.50000000E+00  8.00000000E-01  8.00000000E-01
  1.50000000E+00  1.50000000E+00  8.00000000E-01  8.00000000E-01  1.50000000E+00
  1.50000000E+00  8.00000000E-01  8.00000000E-01  1.50000000E+00  1.50000000E+00
  8.00000000E-01  8.00000000E-01  1.50000000E+00  1.50000000E+00  8.00000000E-01
  8.00000000E-01  1.50000000E+00  1.50000000E+00  8.00000000E-01  8.00000000E-01
  1.50000000E+00  1.50000000E+00  8.00000000E-01  8.00000000E-01  1.50000000E+00
  1.50000000E+00  8.00000000E-01  8.00000000E-01  1.50000000E+00  1.50000000E+00
  8.00000000E-01  8.00000000E-01  1.50000000E+00  1.50000000E+00  8.00000000E-01
  8.00000000E-01  1.50000000E+00  1.50000000E+00  8.00000000E-01  8.00000000E-01
  1.50000000E+00  1.50000000E+00  8.00000000E-01  8.00000000E-01  1.50000000E+00
  1.50000000E+00  8.00000000E-01  8.00000000E-01  1.50000000E+00  1.50000000E+00
  8.00000000E-01  8.00000000E-01  1.50000000E+00  1.50000000E+00  8.00000000E-01
  8.00000000E-01  1.50000000E+00  1.50000000E+00  8.00000000E-01  8.00000000E-01
  1.50000000E+00  1.50000000E+00  8.00000000E-01  8.00000000E-01  1.50000000E+00
  1.50000000E+00  8.00000000E-01  8.00000000E-01  1.50000000E+00  1.50000000E+00
  8.00000000E-01  8.00000000E-01  1.50000000E+00  1.50000000E+00  8.00000000E-01
  8.00000000E-01  1.50000000E+00  1.50000000E+00  8.00000000E-01  8.00000000E-01
  1.50000000E+00  1.50000000E+00  8.00000000E-01  8.00000000E-01  1.50000000E+00
  1.50000000E+00  8.00000000E-01  8.00000000E-01  1.50000000E+00  1.50000000E+00
  8.00000000E-01  8.00000000E-01  1.50000000E+00  1.50000000E+00  8.00000000E-01
  8.00000000E-01  1.50000000E+00  1.50000000E+00  8.00000000E-01  8.00000000E-01
  1.50000000E+00  1.50000000E+00  8.00000000E-01  8.00000000E-01  1.50000000E+00
  1.50000000E+00  8.00000000E-01  8.00000000E-01  1.50000000E+00  1.50000000E+00
  8.00000000E-01  8.00000000E-01  1.50000000E+00  1.50000000E+00  8.00000000E-01
  8.00000000E-01  1.50000000E+00  1.50000000E+00  8.00000000E-01  8.00000000E-01
  1.50000000E+00  1.50000000E+00  8.00000000E-01  8.00000000E-01  1.50000000E+00
  1.50000000E+00  8.00000000E-01  8.00000000E-01  1.50000000E+00  1.50000000E+00
  8.00000000E-01  8.00000000E-01  1.50000000E+00  1.50000000E+00  8.00000000E-01
  8.00000000E-01  1.50000000E+00  1.50000000E+00  8.00000000E-01  8.00000000E-01
  1.50000000E+00  1.50000000E+00  8.00000000E-01  8.00000000E-01  1.50000000E+00
  1.50000000E+00  8.00000000E-01  8.00000000E-01  1.50000000E+00  1.50000000E+00
  8.00000000E-01  8.00000000E-01  1.50000000E+00  1.50000000E+00  8.00000000E-01
  8.00000000E-01  1.50000000E+00  1.50000000E+00  8.00000000E-01  8.00000000E-01
  1.50000000E+00  1.50000000E+00  8.00000000E-01  8.00000000E-01  1.50000000E+00
  1.50000000E+00  8.00000000E-01  8.00000000E-01  1.50000000E+00  1.50000000E+00
  8.00000000E-01  8.00000000E-01  1.50000000E+00  1.50000000E+00  8.00000000E-01
  8.00000000E-01  1.50000000E+00  1.50000000E+00  8.00000000E-01  8.00000000E-01
  1.50000000E+00  1.50000000E+00  8.00000000E-01  8.00000000E-01  1.50000000E+00
  1.50000000E+00  8.00000000E-01  8.00000000E-01  1.50000000E+00  1.50000000E+00
  8.00000000E-01  8.00000000E-01  1.50000000E+00  1.50000000E+00  8.00000000E-01
  8.00000000E-01  1.50000000E+00  1.50000000E+00  8.00000000E-01  8.00000000E-01
  1.50000000E+00  1.50000000E+00  8.00000000E-01  8.00000000E-01  1.50000000E+00
  1.50000000E+00  8.00000000E-01  8.00000000E-01  1.50000000E+00  1.50000000E+00
  8.00000000E-01  8.00000000E-01  1.50000000E+00  1.50000000E+00  8.00000000E-01
  8.00000000E-01  1.50000000E+00  1.50000000E+00  8.00000000E-01  8.00000000E-01
  1.50000000E+00  1.50000000E+00  8.00000000E-01  8.00000000E-01  1.50000000E+00
  1.50000000E+00  8.00000000E-01  8.00000000E-01  1.50000000E+00  1.50000000E+00
  8.00000000E-01  8.00000000E-01  1.50000000E+00  1.50000000E+00  8.00000000E-01
  8.00000000E-01  1.50000000E+00  1.50000000E+00  8.00000000E-01  8.00000000E-01
  1.50000000E+00  1.50000000E+00  8.00000000E-01  8.00000000E-01  1.50000000E+00
  1.50000000E+00  8.00000000E-01  8.00000000E-01  1.50000000E+00  1.50000000E+00
  8.00000000E-01  8.00000000E-01  1.50000000E+00  1.50000000E+00  8.00000000E-01
  8.00000000E-01  1.50000000E+00  1.50000000E+00  8.00000000E-01  8.00000000E-01
  1.50000000E+00  1.50000000E+00  8.00000000E-01  8.00000000E-01  1.50000000E+00
  1.50000000E+00  8.00000000E-01  8.00000000E-01  1.50000000E+00  1.50000000E+00
  8.00000000E-01  8.00000000E-01  1.50000000E+00  1.50000000E+00  8.00000000E-01
  8.00000000E-01  1.50000000E+00  1.50000000E+00  8.00000000E-01  8.00000000E-01
  1.50000000E+00  1.50000000E+00  8.00000000E-01  8.00000000E-01  1.50000000E+00
  1.50000000E+00  8.00000000E-01  8.00000000E-01  1.50000000E+00  1.50000000E+00
  8.00000000E-01  8.00000000E-01  1.50000000E+00  1.50000000E+00  8.00000000E-01
  8.00000000E-01  1.50000000E+00  1.50000000E+00  8.00000000E-01  8.00000000E-01
  1.50000000E+00  1.50000000E+00  8.00000000E-01  8.00000000E-01  1.50000000E+00
  1.50000000E+00  8.00000000E-01  8.00000000E-01  1.50000000E+00  1.50000000E+00
  8.00000000E-01  8.00000000E-01  1.50000000E+00  1.50000000E+00  8.00000000E-01
  8.00000000E-01  1.50000000E+00  1.50000000E+00  8.00000000E-01  8.00000000E-01
  1.50000000E+00  1.50000000E+00  8.00000000E-01  8.00000000E-01  1.50000000E+00
  1.50000000E+00  8.00000000E-01  8.00000000E-01  1.50000000E+00  1.50000000E+00
  8.00000000E-01  8.00000000E-01  1.50000000E+00  1.50000000E+00  8.00000000E-01
  8.00000000E-01  1.50000000E+00  1.50000000E+00  8.00000000E-01  8.00000000E-01
  1.50000000E+00  1.50000000E+00  8.00000000E-01  8.00000000E-01  1.50000000E+00
  1.50000000E+00  8.00000000E-01  8.00000000E-01  1.50000000E+00  1.50000000E+00
  8.00000000E-01  8.00000000E-01  1.50000000E+00  1.50000000E+00  8.00000000E-01
  8.00000000E-01  1.50000000E+00  1.50000000E+00  8.00000000E-01  8.00000000E-01
  1.50000000E+00  1.50000000E+00  8.00000000E-01  8.00000000E-01  1.50000000E+00
  1.50000000E+00  8.00000000E-01  8.00000000E-01  1.50000000E+00  1.50000000E+00
  8.00000000E-01  8.00000000E-01  1.50000000E+00  1.50000000E+00  8.00000000E-01
  8.00000000E-01  1.50000000E+00  1.50000000E+00  8.00000000E-01  8.00000000E-01
  1.50000000E+00  1.50000000E+00  8.00000000E-01  8.00000000E-01  1.50000000E+00
  1.50000000E+00  8.00000000E-01  8.00000000E-01  1.50000000E+00  1.50000000E+00
  8.00000000E-01  8.00000000E-01  1.50000000E+00  1.50000000E+00  8.00000000E-01
  8.00000000E-01  1.50000000E+00  1.50000000E+00  8.00000000E-01  8.00000000E-01
  1.50000000E+00  1.50000000E+00  8.00000000E-01  8.00000000E-01  1.50000000E+00
  1.50000000E+00  8.00000000E-01  8.00000000E-01  1.50000000E+00  1.50000000E+00
  8.00000000E-01  8.00000000E-01  1.50000000E+00  1.50000000E+00  8.00000000E-01
  8.00000000E-01  1.50000000E+00  1.50000000E+00  8.00000000E-01  8.00000000E-01
  1.50000000E+00  1.50000000E+00  8.00000000E-01  8.00000000E-01  1.50000000E+00
  1.50000000E+00  8.00000000E-01  8.00000000E-01  1.50000000E+00  1.50000000E+00
  8.00000000E-01  8.00000000E-01  1.50000000E+00  1.50000000E+00  8.00000000E-01
  8.00000000E-01  1.50000000E+00  1.50000000E+00  8.00000000E-01  8.00000000E-01
  1.50000000E+00  1.50000000E+00  8.00000000E-01  8.00000000E-01  1.50000000E+00
  1.50000000E+00  8.00000000E-01  8.00000000E-01  1.50000000E+00  1.50000000E+00
  8.00000000E-01  8.00000000E-01  1.50000000E+00  1.50000000E+00  8.00000000E-01
  8.00000000E-01  1.50000000E+00  1.50000000E+00  8.00000000E-01  8.00000000E-01
  1.50000000E+00  1.50000000E+00  8.00000000E-01  8.00000000E-01  1.50000000E+00
  1.50000000E+00  8.00000000E-01  8.00000000E-01  1.50000000E+00  1.50000000E+00
  8.00000000E-01  8.00000000E-01  1.50000000E+00  1.50000000E+00  8.00000000E-01
  8.00000000E-01  1.50000000E+00  1.50000000E+00  8.00000000E-01  8.00000000E-01
  1.50000000E+00  1.50000000E+00  8.00000000E-01  8.00000000E-01  1.50000000E+00
  1.50000000E+00  8.00000000E-01  8.00000000E-01  1.50000000E+00  1.50000000E+00
  8.00000000E-01  8.00000000E-01  1.50000000E+00  1.50000000E+00  8.00000000E-01
  8.00000000E-01  1.50000000E+00  1.50000000E+00  8.00000000E-01  8.00000000E-01
  1.50000000E+00  1.50000000E+00  8.00000000E-01  8.00000000E-01  1.50000000E+00
  1.50000000E+00  8.00000000E-01  8.00000000E-01  1.50000000E+00  1.50000000E+00
  8.00000000E-01  8.00000000E-01  1.50000000E+00  1.50000000E+00  8.00000000E-01
  8.00000000E-01  1.50000000E+00  1.50000000E+00  8.00000000E-01  8.00000000E-01
  1.50000000E+00  1.50000000E+00  8.00000000E-01  8.00000000E-01  1.50000000E+00
  1.50000000E+00  8.00000000E-01  8.00000000E-01  1.50000000E+00  1.50000000E+00
  8.00000000E-01  8.00000000E-01  1.50000000E+00  1.50000000E+00  8.00000000E-01
  8.00000000E-01  1.50000000E+00  1.50000000E+00  8.00000000E-01  8.00000000E-01
  1.50000000E+00  1.50000000E+00  8.00000000E-01  8.00000000E-01  1.50000000E+00
  1.50000000E+00  8.00000000E-01  8.00000000E-01  1.50000000E+00  1.50000000E+00
  8.00000000E-01  8.00000000E-01  1.50000000E+00  1.50000000E+00  8.00000000E-01
  8.00000000E-01  1.50000000E+00  1.50000000E+00  8.00000000E-01  8.00000000E-01
  1.50000000E+00  1.50000000E+00  8.00000000E-01  8.00000000E-01  1.50000000E+00
  1.50000000E+00  8.00000000E-01  8.00000000E-01  1.50000000E+00  1.50000000E+00
  8.00000000E-01  8.00000000E-01  1.50000000E+00  1.50000000E+00  8.00000000E-01
  8.00000000E-01  1.50000000E+00  1.50000000E+00  8.00000000E-01  8.00000000E-01
  1.50000000E+00  1.50000000E+00  8.00000000E-01  8.00000000E-01  1.50000000E+00
  1.50000000E+00  8.00000000E-01  8.00000000E-01  1.50000000E+00  1.50000000E+00
  8.00000000E-01  8.00000000E-01  1.50000000E+00  1.50000000E+00  8.00000000E-01
  8.00000000E-01  1.50000000E+00  1.50000000E+00  8.00000000E-01  8.00000000E-01
  1.50000000E+00  1.50000000E+00  8.00000000E-01  8.00000000E-01  1.50000000E+00
  1.50000000E+00  8.00000000E-01  8.00000000E-01  1.50000000E+00  1.50000000E+00
  8.00000000E-01  8.00000000E-01  1.50000000E+00  1.50000000E+00  8.00000000E-01
  8.00000000E-01  1.50000000E+00  1.50000000E+00  8.00000000E-01  8.00000000E-01
  1.50000000E+00  1.50000000E+00  8.00000000E-01  8.00000000E-01  1.50000000E+00
  1.50000000E+00  8.00000000E-01  8.00000000E-01  1.50000000E+00  1.50000000E+00
  8.00000000E-01  8.00000000E-01  1.50000000E+00  1.50000000E+00  8.00000000E-01
  8.00000000E-01  1.50000000E+00  1.50000000E+00  8.00000000E-01  8.00000000E-01
  1.50000000E+00  1.50000000E+00  8.00000000E-01  8.00000000E-01  1.50000000E+00
  1.50000000E+00  8.00000000E-01  8.00000000E-01  1.50000000E+00  1.50000000E+00
  8.00000000E-01  8.00000000E-01  1.50000000E+00  1.50000000E+00  8.00000000E-01
  8.00000000E-01  1.50000000E+00  1.50000000E+00  8.00000000E-01  8.00000000E-01
  1.50000000E+00  1.50000000E+00  8.00000000E-01  8.00000000E-01  1.50000000E+00
  1.50000000E+00  8.00000000E-01  8.00000000E-01  1.50000000E+00  1.50000000E+00
  8.00000000E-01  8.00000000E-01  1.50000000E+00  1.50000000E+00  8.00000000E-01
  8.00000000E-01  1.50000000E+00  1.50000000E+00  8.00000000E-01  8.00000000E-01
  1.50000000E+00  1.50000000E+00  8.00000000E-01  8.00000000E-01  1.50000000E+00
  1.50000000E+00  8.00000000E-01  8.00000000E-01  1.50000000E+00  1.50000000E+00
  8.00000000E-01  8.00000000E-01  1.50000000E+00  1.50000000E+00  8.00000000E-01
  8.00000000E-01  1.50000000E+00  1.50000000E+00  8.00000000E-01  8.00000000E-01
  1.50000000E+00  1.50000000E+00  8.00000000E-01  8.00000000E-01  1.50000000E+00
  1.50000000E+00  8.00000000E-01  8.00000000E-01  1.50000000E+00  1.50000000E+00
  8.00000000E-01  8.00000000E-01  1.50000000E+00  1.50000000E+00  8.00000000E-01
  8.00000000E-01  1.50000000E+00  1.50000000E+00  8.00000000E-01  8.00000000E-01
  1.50000000E+00  1.50000000E+00  8.00000000E-01  8.00000000E-01  1.50000000E+00
  1.50000000E+00  8.00000000E-01  8.00000000E-01  1.50000000E+00  1.50000000E+00
  8.00000000E-01  8.00000000E-01  1.50000000E+00  1.50000000E+00  8.00000000E-01
  8.00000000E-01  1.50000000E+00  1.50000000E+00  8.00000000E-01  8.00000000E-01
  1.50000000E+00  1.50000000E+00  8.00000000E-01  8.00000000E-01  1.50000000E+00
  1.50000000E+00  8.00000000E-01  8.00000000E-01  1.50000000E+00  1.50000000E+00
  8.00000000E-01  8.00000000E-01  1.50000000E+00  1.50000000E+00  8.00000000E-01
  8.00000000E-01  1.50000000E+00  1.50000000E+00  8.00000000E-01  8.00000000E-01
  1.50000000E+00  1.50000000E+00  8.00000000E-01  8.00000000E-01  1.50000000E+00
  1.50000000E+00  8.00000000E-01  8.00000000E-01  1.50000000E+00  1.50000000E+00
  8.00000000E-01  8.00000000E-01  1.50000000E+00  1.50000000E+00  8.00000000E-01
  8.00000000E-01  1.50000000E+00  1.50000000E+00  8.00000000E-01  8.00000000E-01
  1.50000000E+00  1.50000000E+00  8.00000000E-01  8.00000000E-01  1.50000000E+00
  1.50000000E+00  8.00000000E-01  8.00000000E-01  1.50000000E+00  1.50000000E+00
  8.00000000E-01  8.00000000E-01  1.50000000E+00  1.50000000E+00  8.00000000E-01
  8.00000000E-01  1.50000000E+00  1.50000000E+00  8.00000000E-01  8.00000000E-01
  1.50000000E+00  1.50000000E+00  8.00000000E-01  8.00000000E-01  1.50000000E+00
  1.50000000E+00  8.00000000E-01  8.00000000E-01  1.50000000E+00  1.50000000E+00
  8.00000000E-01  8.00000000E-01  1.50000000E+00  1.50000000E+00  8.00000000E-01
  8.00000000E-01  1.50000000E+00  1.50000000E+00  8.00000000E-01  8.00000000E-01
  1.50000000E+00  1.50000000E+00  8.00000000E-01  8.00000000E-01  1.50000000E+00
  1.50000000E+00  8.00000000E-01  8.00000000E-01  1.50000000E+00  1.50000000E+00
  8.00000000E-01  8.00000000E-01  1.50000000E+00  1.50000000E+00  8.00000000E-01
  8.00000000E-01  1.50000000E+00  1.50000000E+00  8.00000000E-01  8.00000000E-01
  1.50000000E+00  1.50000000E+00  8.00000000E-01  8.00000000E-01  1.50000000E+00
  1.50000000E+00  8.00000000E-01  8.00000000E-01  1.50000000E+00  1.50000000E+00
  8.00000000E-01  8.00000000E-01  1.50000000E+00  1.50000000E+00  8.00000000E-01
  8.00000000E-01  1.50000000E+00  1.50000000E+00  8.00000000E-01  8.00000000E-01
  1.50000000E+00  1.50000000E+00  8.00000000E-01  8.00000000E-01  1.50000000E+00
  1.50000000E+00  8.00000000E-01  8.00000000E-01  1.50000000E+00  1.50000000E+00
  8.00000000E-01  8.00000000E-01  1.50000000E+00  1.50000000E+00  8.00000000E-01
  8.00000000E-01  1.50000000E+00  1.50000000E+00  8.00000000E-01  8.00000000E-01
  1.50000000E+00  1.50000000E+00  8.00000000E-01  8.00000000E-01  1.50000000E+00
  1.50000000E+00  8.00000000E-01  8.00000000E-01  1.50000000E+00  1.50000000E+00
  8.00000000E-01  8.00000000E-01  1.50000000E+00  1.50000000E+00  8.00000000E-01
  8.00000000E-01  1.50000000E+00  1.50000000E+00  8.00000000E-01  8.00000000E-01
  1.50000000E+00  1.50000000E+00  8.00000000E-01  8.00000000E-01  1.50000000E+00
  1.50000000E+00  8.00000000E-01  8.00000000E-01  1.50000000E+00  1.50000000E+00
  8.00000000E-01  8.00000000E-01  1.50000000E+00  1.50000000E+00  8.00000000E-01
  8.00000000E-01  1.50000000E+00  1.50000000E+00  8.00000000E-01  8.00000000E-01
  1.50000000E+00  1.50000000E+00  8.00000000E-01  8.00000000E-01  1.50000000E+00
  1.50000000E+00  8.00000000E-01  8.00000000E-01  1.50000000E+00  1.50000000E+00
  8.00000000E-01  8.00000000E-01  1.50000000E+00  1.50000000E+00  8.00000000E-01
  8.00000000E-01  1.50000000E+00  1.50000000E+00  8.00000000E-01  8.00000000E-01
  1.50000000E+00  1.50000000E+00  8.00000000E-01  8.00000000E-01  1.50000000E+00
  1.50000000E+00  8.00000000E-01  8.00000000E-01  1.50000000E+00  1.50000000E+00
  8.00000000E-01  8.00000000E-01  1.50000000E+00  1.50000000E+00  8.00000000E-01
  8.00000000E-01  1.50000000E+00  1.50000000E+00  8.00000000E-01  8.00000000E-01
  1.50000000E+00  1.50000000E+00  8.00000000E-01  8.00000000E-01  1.50000000E+00
  1.50000000E+00  8.00000000E-01  8.00000000E-01  1.50000000E+00  1.50000000E+00
  8.00000000E-01  8.00000000E-01  1.50000000E+00  1.50000000E+00  8.00000000E-01
  8.00000000E-01  1.50000000E+00  1.50000000E+00  8.00000000E-01  8.00000000E-01
  1.50000000E+00  1.50000000E+00  8.00000000E-01  8.00000000E-01  1.50000000E+00
  1.50000000E+00  8.00000000E-01  8.00000000E-01  1.50000000E+00  1.50000000E+00
  8.00000000E-01  8.00000000E-01  1.50000000E+00  1.50000000E+00  8.00000000E-01
  8.00000000E-01  1.50000000E+00  1.50000000E+00  8.00000000E-01  8.00000000E-01
  1.50000000E+00  1.50000000E+00  8.00000000E-01  8.00000000E-01  1.50000000E+00
  1.50000000E+00  8.00000000E-01  8.00000000E-01  1.50000000E+00  1.50000000E+00
  8.00000000E-01  8.00000000E-01  1.50000000E+00  1.50000000E+00  8.00000000E-01
  8.00000000E-01  1.50000000E+00  1.50000000E+00  8.00000000E-01  8.00000000E-01
  1.50000000E+00  1.50000000E+00  8.00000000E-01  8.00000000E-01  1.50000000E+00
  1.50000000E+00  8.00000000E-01  8.00000000E-01  1.50000000E+00  1.50000000E+00
  8.00000000E-01  8.00000000E-01  1.50000000E+00  1.50000000E+00  8.00000000E-01
  8.00000000E-01  1.50000000E+00  1.50000000E+00  8.00000000E-01  8.00000000E-01
  1.50000000E+00  1.50000000E+00  8.00000000E-01  8.00000000E-01  1.50000000E+00
  1.50000000E+00  8.00000000E-01  8.00000000E-01  1.50000000E+00  1.50000000E+00
  8.00000000E-01  8.00000000E-01  1.50000000E+00  1.50000000E+00  8.00000000E-01
  8.00000000E-01  1.50000000E+00  1.50000000E+00  8.00000000E-01  8.00000000E-01
  1.50000000E+00  1.50000000E+00  8.00000000E-01  8.00000000E-01  1.50000000E+00
  1.50000000E+00  8.00000000E-01  8.00000000E-01  1.50000000E+00  1.50000000E+00
  8.00000000E-01  8.00000000E-01  1.50000000E+00  1.50000000E+00  8.00000000E-01
  8.00000000E-01  1.50000000E+00  1.50000000E+00  8.00000000E-01  8.00000000E-01
  1.50000000E+00  1.50000000E+00  8.00000000E-01  8.00000000E-01  1.50000000E+00
  1.50000000E+00  8.00000000E-01  8.00000000E-01  1.50000000E+00  1.50000000E+00
  8.00000000E-01  8.00000000E-01  1.50000000E+00  1.50000000E+00  8.00000000E-01
  8.00000000E-01  1.50000000E+00  1.50000000E+00  8.00000000E-01  8.00000000E-01
  1.50000000E+00  1.50000000E+00  8.00000000E-01  8.00000000E-01  1.50000000E+00
  1.50000000E+00  8.00000000E-01  8.00000000E-01  1.50000000E+00  1.50000000E+00
  8.00000000E-01  8.00000000E-01  1.50000000E+00  1.50000000E+00  8.00000000E-01
  8.00000000E-01  1.50000000E+00  1.50000000E+00  8.00000000E-01  8.00000000E-01
  1.50000000E+00  1.50000000E+00  8.00000000E-01  8.00000000E-01  1.50000000E+00
  1.50000000E+00  8.00000000E-01  8.00000000E-01  1.50000000E+00  1.50000000E+00
  8.00000000E-01  8.00000000E-01  1.50000000E+00  1.50000000E+00  8.00000000E-01
  8.00000000E-01  1.50000000E+00  1.50000000E+00  8.00000000E-01  8.00000000E-01
  1.50000000E+00  1.50000000E+00  8.00000000E-01  8.00000000E-01  1.50000000E+00
  1.50000000E+00  8.00000000E-01  8.00000000E-01  1.50000000E+00  1.50000000E+00
  8.00000000E-01  8.00000000E-01  1.50000000E+00  1.50000000E+00  8.00000000E-01
  8.00000000E-01  1.50000000E+00  1.50000000E+00  8.00000000E-01  8.00000000E-01
  1.50000000E+00  1.50000000E+00  8.00000000E-01  8.00000000E-01  1.50000000E+00
  1.50000000E+00  8.00000000E-01  8.00000000E-01  1.50000000E+00  1.50000000E+00
  8.00000000E-01  8.00000000E-01  1.50000000E+00  1.50000000E+00  8.00000000E-01
  8.00000000E-01  1.50000000E+00  1.50000000E+00  8.00000000E-01  8.00000000E-01
  1.50000000E+00  1.50000000E+00  8.00000000E-01  8.00000000E-01  1.50000000E+00
  1.50000000E+00  8.00000000E-01  8.00000000E-01  1.50000000E+00  1.50000000E+00
  8.00000000E-01  8.00000000E-01  1.50000000E+00  1.50000000E+00  8.00000000E-01
  8.00000000E-01  1.50000000E+00  1.50000000E+00  8.00000000E-01  8.00000000E-01
  1.50000000E+00  1.50000000E+00  8.00000000E-01  8.00000000E-01  1.50000000E+00
  1.50000000E+00  8.00000000E-01  8.00000000E-01  1.50000000E+00  1.50000000E+00
  8.00000000E-01  8.00000000E-01  1.50000000E+00  1.50000000E+00  8.00000000E-01
  8.00000000E-01  1.50000000E+00  1.50000000E+00  8.00000000E-01  8.00000000E-01
  1.50000000E+00  1.50000000E+00  8.00000000E-01  8.00000000E-01  1.50000000E+00
  1.50000000E+00  8.00000000E-01  8.00000000E-01  1.50000000E+00  1.50000000E+00
  8.00000000E-01  8.00000000E-01  1.50000000E+00  1.50000000E+00  8.00000000E-01
  8.00000000E-01  1.50000000E+00  1.50000000E+00  8.00000000E-01  8.00000000E-01
  1.50000000E+00  1.50000000E+00  8.00000000E-01  8.00000000E-01  1.50000000E+00
  1.50000000E+00  8.00000000E-01  8.00000000E-01  1.50000000E+00  1.50000000E+00
  8.00000000E-01  8.00000000E-01  1.50000000E+00  1.50000000E+00  8.00000000E-01
  8.00000000E-01  1.50000000E+00  1.50000000E+00  8.00000000E-01  8.00000000E-01
  1.50000000E+00  1.50000000E+00  8.00000000E-01  8.00000000E-01  1.50000000E+00
  1.50000000E+00  8.00000000E-01  8.00000000E-01  1.50000000E+00  1.50000000E+00
  8.00000000E-01  8.00000000E-01  1.50000000E+00  1.50000000E+00  8.00000000E-01
  8.00000000E-01  1.50000000E+00  1.50000000E+00  8.00000000E-01  8.00000000E-01
  1.50000000E+00  1.50000000E+00  8.00000000E-01  8.00000000E-01  1.50000000E+00
  1.50000000E+00  8.00000000E-01  8.00000000E-01  1.50000000E+00  1.50000000E+00
  8.00000000E-01  8.00000000E-01  1.50000000E+00  1.50000000E+00  8.00000000E-01
  8.00000000E-01  1.50000000E+00  1.50000000E+00  8.00000000E-01  8.00000000E-01
  1.50000000E+00  1.50000000E+00  8.00000000E-01  8.00000000E-01  1.50000000E+00
  1.50000000E+00  8.00000000E-01  8.00000000E-01  1.50000000E+00  1.50000000E+00
  8.00000000E-01  8.00000000E-01  1.50000000E+00  1.50000000E+00  8.00000000E-01
  8.00000000E-01  1.50000000E+00  1.50000000E+00  8.00000000E-01  8.00000000E-01
  1.50000000E+00  1.50000000E+00  8.00000000E-01  8.00000000E-01  1.50000000E+00
  1.50000000E+00  8.00000000E-01  8.00000000E-01  1.50000000E+00  1.50000000E+00
  8.00000000E-01  8.00000000E-01  1.50000000E+00  1.50000000E+00  8.00000000E-01
  8.00000000E-01  1.50000000E+00  1.50000000E+00  8.00000000E-01  8.00000000E-01
  1.50000000E+00  1.50000000E+00  8.00000000E-01  8.00000000E-01  1.50000000E+00
  1.50000000E+00  8.00000000E-01  8.00000000E-01  1.50000000E+00  1.50000000E+00
  8.00000000E-01  8.00000000E-01  1.50000000E+00  1.50000000E+00  8.00000000E-01
  8.00000000E-01  1.50000000E+00  1.50000000E+00  8.00000000E-01  8.00000000E-01
  1.50000000E+00  1.50000000E+00  8.00000000E-01  8.00000000E-01  1.50000000E+00
  1.50000000E+00  8.00000000E-01  8.00000000E-01  1.50000000E+00  1.50000000E+00
  8.00000000E-01  8.00000000E-01  1.50000000E+00  1.50000000E+00  8.00000000E-01
  8.00000000E-01  1.50000000E+00  1.50000000E+00  8.00000000E-01  8.00000000E-01
  1.50000000E+00  1.50000000E+00  8.00000000E-01  8.00000000E-01  1.50000000E+00
  1.50000000E+00  8.00000000E-01  8.00000000E-01  1.50000000E+00  1.50000000E+00
  8.00000000E-01  8.00000000E-01  1.50000000E+00  1.50000000E+00  8.00000000E-01
  8.00000000E-01  1.50000000E+00  1.50000000E+00  8.00000000E-01  8.00000000E-01
  1.50000000E+00  1.50000000E+00  8.00000000E-01  8.00000000E-01  1.50000000E+00
  1.50000000E+00  8.00000000E-01  8.00000000E-01  1.50000000E+00  1.50000000E+00
  8.00000000E-01  8.00000000E-01  1.50000000E+00  1.50000000E+00  8.00000000E-01
  8.00000000E-01  1.50000000E+00  1.50000000E+00  8.00000000E-01  8.00000000E-01
  1.50000000E+00  1.50000000E+00  8.00000000E-01  8.00000000E-01  1.50000000E+00
  1.50000000E+00  8.00000000E-01  8.00000000E-01  1.50000000E+00  1.50000000E+00
  8.00000000E-01  8.00000000E-01  1.50000000E+00  1.50000000E+00  8.00000000E-01
  8.00000000E-01  1.50000000E+00  1.50000000E+00  8.00000000E-01  8.00000000E-01
  1.50000000E+00  1.50000000E+00  8.00000000E-01  8.00000000E-01  1.50000000E+00
  1.50000000E+00  8.00000000E-01  8.00000000E-01  1.50000000E+00  1.50000000E+00
  8.00000000E-01  8.00000000E-01  1.50000000E+00  1.50000000E+00  8.00000000E-01
  8.00000000E-01  1.50000000E+00  1.50000000E+00  8.00000000E-01  8.00000000E-01
  1.50000000E+00  1.50000000E+00  8.00000000E-01  8.00000000E-01  1.50000000E+00
  1.50000000E+00  8.00000000E-01  8.00000000E-01  1.50000000E+00  1.50000000E+00
  8.00000000E-01  8.00000000E-01  1.50000000E+00  1.50000000E+00  8.00000000E-01
  8.00000000E-01  1.50000000E+00  1.50000000E+00  8.00000000E-01  8.00000000E-01
  1.50000000E+00  1.50000000E+00  8.00000000E-01  8.00000000E-01  1.50000000E+00
  1.50000000E+00  8.00000000E-01  8.00000000E-01  1.50000000E+00  1.50000000E+00
  8.00000000E-01  8.00000000E-01  1.50000000E+00  1.50000000E+00  8.00000000E-01
  8.00000000E-01  1.50000000E+00  1.50000000E+00  8.00000000E-01  8.00000000E-01
  1.50000000E+00  1.50000000E+00  8.00000000E-01  8.00000000E-01  1.50000000E+00
  1.50000000E+00  8.00000000E-01  8.00000000E-01  1.50000000E+00  1.50000000E+00
  8.00000000E-01  8.00000000E-01  1.50000000E+00  1.50000000E+00  8.00000000E-01
  8.00000000E-01  1.50000000E+00  1.50000000E+00  8.00000000E-01  8.00000000E-01
  1.50000000E+00  1.50000000E+00  8.00000000E-01  8.00000000E-01  1.50000000E+00
  1.50000000E+00  8.00000000E-01  8.00000000E-01  1.50000000E+00  1.50000000E+00
  8.00000000E-01  8.00000000E-01  1.50000000E+00  1.50000000E+00  8.00000000E-01
  8.00000000E-01  1.50000000E+00  1.50000000E+00  8.00000000E-01  8.00000000E-01
  1.50000000E+00  1.50000000E+00  8.00000000E-01  8.00000000E-01  1.50000000E+00
  1.50000000E+00  8.00000000E-01  8.00000000E-01  1.50000000E+00  1.50000000E+00
  8.00000000E-01  8.00000000E-01  1.50000000E+00  1.50000000E+00  8.00000000E-01
  8.00000000E-01  1.50000000E+00  1.50000000E+00  8.00000000E-01  8.00000000E-01
  1.50000000E+00  1.50000000E+00  8.00000000E-01  8.00000000E-01  1.50000000E+00
  1.50000000E+00  8.00000000E-01  8.00000000E-01  1.50000000E+00  1.50000000E+00
  8.00000000E-01  8.00000000E-01  1.50000000E+00  1.50000000E+00  8.00000000E-01
  8.00000000E-01  1.50000000E+00  1.50000000E+00  8.00000000E-01  8.00000000E-01
  1.50000000E+00  1.50000000E+00  8.00000000E-01  8.00000000E-01  1.50000000E+00
  1.50000000E+00  8.00000000E-01  8.00000000E-01  1.50000000E+00  1.50000000E+00
  8.00000000E-01  8.00000000E-01  1.50000000E+00  1.50000000E+00  8.00000000E-01
  8.00000000E-01  1.50000000E+00  1.50000000E+00  8.00000000E-01  8.00000000E-01
  1.50000000E+00  1.50000000E+00  8.00000000E-01  8.00000000E-01  1.50000000E+00
  1.50000000E+00  8.00000000E-01  8.00000000E-01  1.50000000E+00  1.50000000E+00
  8.00000000E-01  8.00000000E-01  1.50000000E+00  1.50000000E+00  8.00000000E-01
  8.00000000E-01  1.50000000E+00  1.50000000E+00  8.00000000E-01  8.00000000E-01
  1.50000000E+00  1.50000000E+00  8.00000000E-01  8.00000000E-01  1.50000000E+00
  1.50000000E+00  8.00000000E-01  8.00000000E-01  1.50000000E+00  1.50000000E+00
  8.00000000E-01  8.00000000E-01  1.50000000E+00  1.50000000E+00  8.00000000E-01
  8.00000000E-01  1.50000000E+00  1.50000000E+00  8.00000000E-01  8.00000000E-01
  1.50000000E+00  1.50000000E+00  8.00000000E-01  8.00000000E-01  1.50000000E+00
  1.50000000E+00  8.00000000E-01  8.00000000E-01  1.50000000E+00  1.50000000E+00
  8.00000000E-01  8.00000000E-01  1.50000000E+00  1.50000000E+00  8.00000000E-01
  8.00000000E-01  1.50000000E+00  1.50000000E+00  8.00000000E-01  8.00000000E-01
  1.50000000E+00  1.50000000E+00  8.00000000E-01  8.00000000E-01  1.50000000E+00
  1.50000000E+00  8.00000000E-01  8.00000000E-01  1.50000000E+00  1.50000000E+00
  8.00000000E-01  8.00000000E-01  1.50000000E+00  1.50000000E+00  8.00000000E-01
  8.00000000E-01  1.50000000E+00  1.50000000E+00  8.00000000E-01  8.00000000E-01
  1.50000000E+00  1.50000000E+00  8.00000000E-01  8.00000000E-01  1.50000000E+00
  1.50000000E+00  8.00000000E-01  8.00000000E-01  1.50000000E+00  1.50000000E+00
  8.00000000E-01  8.00000000E-01  1.50000000E+00  1.50000000E+00  8.00000000E-01
  8.00000000E-01  1.50000000E+00  1.50000000E+00  8.00000000E-01  8.00000000E-01
  1.50000000E+00  1.50000000E+00  8.00000000E-01  8.00000000E-01  1.50000000E+00
  1.50000000E+00  8.00000000E-01  8.00000000E-01  1.50000000E+00  1.50000000E+00
  8.00000000E-01  8.00000000E-01  1.50000000E+00  1.50000000E+00  8.00000000E-01
  8.00000000E-01  1.50000000E+00  1.50000000E+00  8.00000000E-01  8.00000000E-01
  1.50000000E+00  1.50000000E+00  8.00000000E-01  8.00000000E-01  1.50000000E+00
  1.50000000E+00  8.00000000E-01  8.00000000E-01  1.50000000E+00  1.50000000E+00
  8.00000000E-01  8.00000000E-01  1.50000000E+00  1.50000000E+00  8.00000000E-01
  8.00000000E-01  1.50000000E+00  1.50000000E+00  8.00000000E-01  8.00000000E-01
  1.50000000E+00  1.50000000E+00  8.00000000E-01  8.00000000E-01  1.50000000E+00
  1.50000000E+00  8.00000000E-01  8.00000000E-01  1.50000000E+00  1.50000000E+00
  8.00000000E-01  8.00000000E-01  1.50000000E+00  1.50000000E+00  8.00000000E-01
  8.00000000E-01  1.50000000E+00  1.50000000E+00  8.00000000E-01  8.00000000E-01
  1.50000000E+00  1.50000000E+00  8.00000000E-01  8.00000000E-01  1.50000000E+00
  1.50000000E+00  8.00000000E-01  8.00000000E-01  1.50000000E+00  1.50000000E+00
  8.00000000E-01  8.00000000E-01  1.50000000E+00  1.50000000E+00  8.00000000E-01
  8.00000000E-01  1.50000000E+00  1.50000000E+00  8.00000000E-01  8.00000000E-01
  1.50000000E+00  1.50000000E+00  8.00000000E-01  8.00000000E-01  1.50000000E+00
  1.50000000E+00  8.00000000E-01  8.00000000E-01  1.50000000E+00  1.50000000E+00
  8.00000000E-01  8.00000000E-01  1.50000000E+00  1.50000000E+00  8.00000000E-01
  8.00000000E-01  1.50000000E+00  1.50000000E+00  8.00000000E-01  8.00000000E-01
  1.50000000E+00  1.50000000E+00  8.00000000E-01  8.00000000E-01  1.50000000E+00
  1.50000000E+00  8.00000000E-01  8.00000000E-01  1.50000000E+00  1.50000000E+00
  8.00000000E-01  8.00000000E-01  1.50000000E+00  1.50000000E+00  8.00000000E-01
  8.00000000E-01  1.50000000E+00  1.50000000E+00  8.00000000E-01  8.00000000E-01
  1.50000000E+00  1.50000000E+00  8.00000000E-01  8.00000000E-01  1.50000000E+00
  1.50000000E+00  8.00000000E-01  8.00000000E-01  1.50000000E+00  1.50000000E+00
  8.00000000E-01  8.00000000E-01  1.50000000E+00  1.50000000E+00  8.00000000E-01
  8.00000000E-01  1.50000000E+00  1.50000000E+00  8.00000000E-01  8.00000000E-01
  1.50000000E+00  1.50000000E+00  8.00000000E-01  8.00000000E-01  1.50000000E+00
  1.50000000E+00  8.00000000E-01  8.00000000E-01  1.50000000E+00  1.50000000E+00
  8.00000000E-01  8.00000000E-01  1.50000000E+00  1.50000000E+00  8.00000000E-01
  8.00000000E-01  1.50000000E+00  1.50000000E+00  8.00000000E-01  8.00000000E-01
  1.50000000E+00  1.50000000E+00  8.00000000E-01  8.00000000E-01  1.50000000E+00
  1.50000000E+00  8.00000000E-01  8.00000000E-01  1.50000000E+00  1.50000000E+00
  8.00000000E-01  8.00000000E-01  1.50000000E+00  1.50000000E+00  8.00000000E-01
  8.00000000E-01  1.50000000E+00  1.50000000E+00  8.00000000E-01  8.00000000E-01
  1.50000000E+00  1.50000000E+00  8.00000000E-01  8.00000000E-01  1.50000000E+00
  1.50000000E+00  8.00000000E-01  8.00000000E-01  1.50000000E+00  1.50000000E+00
  8.00000000E-01  8.00000000E-01  1.50000000E+00  1.50000000E+00  8.00000000E-01
  8.00000000E-01  1.50000000E+00  1.50000000E+00  8.00000000E-01  8.00000000E-01
  1.50000000E+00  1.50000000E+00  8.00000000E-01  8.00000000E-01  1.50000000E+00
  1.50000000E+00  8.00000000E-01  8.00000000E-01  1.50000000E+00  1.50000000E+00
  8.00000000E-01  8.00000000E-01  1.50000000E+00  1.50000000E+00  8.00000000E-01
  8.00000000E-01  1.50000000E+00  1.50000000E+00  8.00000000E-01  8.00000000E-01
  1.50000000E+00  1.50000000E+00  8.00000000E-01  8.00000000E-01  1.50000000E+00
  1.50000000E+00  8.00000000E-01  8.00000000E-01  1.50000000E+00  1.50000000E+00
  8.00000000E-01  8.00000000E-01  1.50000000E+00  1.50000000E+00  8.00000000E-01
  8.00000000E-01  1.50000000E+00  1.50000000E+00  8.00000000E-01  8.00000000E-01
  1.50000000E+00  1.50000000E+00  8.00000000E-01  8.00000000E-01  1.50000000E+00
  1.50000000E+00  8.00000000E-01  8.00000000E-01  1.50000000E+00  1.50000000E+00
  8.00000000E-01  8.00000000E-01  1.50000000E+00  1.50000000E+00  8.00000000E-01
  8.00000000E-01  1.50000000E+00  1.50000000E+00  8.00000000E-01  8.00000000E-01
  1.50000000E+00  1.50000000E+00  8.00000000E-01  8.00000000E-01  1.50000000E+00
  1.50000000E+00  8.00000000E-01  8.00000000E-01  1.50000000E+00  1.50000000E+00
  8.00000000E-01  8.00000000E-01  1.50000000E+00  1.50000000E+00  8.00000000E-01
  8.00000000E-01  1.50000000E+00  1.50000000E+00  8.00000000E-01  8.00000000E-01
  1.50000000E+00  1.50000000E+00  8.00000000E-01  8.00000000E-01  1.50000000E+00
  1.50000000E+00  8.00000000E-01  8.00000000E-01  1.50000000E+00  1.50000000E+00
  8.00000000E-01  8.00000000E-01  1.50000000E+00  1.50000000E+00  8.00000000E-01
  8.00000000E-01  1.50000000E+00  1.50000000E+00  8.00000000E-01  8.00000000E-01
  1.50000000E+00  1.50000000E+00  8.00000000E-01  8.00000000E-01  1.50000000E+00
  1.50000000E+00  8.00000000E-01  8.00000000E-01  1.50000000E+00  1.50000000E+00
  8.00000000E-01  8.00000000E-01  1.50000000E+00  1.50000000E+00  8.00000000E-01
  8.00000000E-01  1.50000000E+00  1.50000000E+00  8.00000000E-01  8.00000000E-01
  1.50000000E+00  1.50000000E+00  8.00000000E-01  8.00000000E-01  1.50000000E+00
  1.50000000E+00  8.00000000E-01  8.00000000E-01  1.50000000E+00  1.50000000E+00
  8.00000000E-01  8.00000000E-01  1.50000000E+00  1.50000000E+00  8.00000000E-01
  8.00000000E-01  1.50000000E+00  1.50000000E+00  8.00000000E-01  8.00000000E-01
  1.50000000E+00  1.50000000E+00  8.00000000E-01  8.00000000E-01  1.50000000E+00
  1.50000000E+00  8.00000000E-01  8.00000000E-01  1.50000000E+00  1.50000000E+00
  8.00000000E-01  8.00000000E-01  1.50000000E+00  1.50000000E+00  8.00000000E-01
  8.00000000E-01  1.50000000E+00  1.50000000E+00  8.00000000E-01  8.00000000E-01
  1.50000000E+00  1.50000000E+00  8.00000000E-01  8.00000000E-01  1.50000000E+00
  1.50000000E+00  8.00000000E-01  8.00000000E-01  1.50000000E+00  1.50000000E+00
  8.00000000E-01  8.00000000E-01  1.50000000E+00  1.50000000E+00  8.00000000E-01
  8.00000000E-01  1.50000000E+00  1.50000000E+00  8.00000000E-01  8.00000000E-01
  1.50000000E+00  1.50000000E+00  8.00000000E-01  8.00000000E-01  1.50000000E+00
  1.50000000E+00  8.00000000E-01  8.00000000E-01  1.50000000E+00  1.50000000E+00
  8.00000000E-01  8.00000000E-01  1.50000000E+00  1.50000000E+00  8.00000000E-01
  8.00000000E-01  1.50000000E+00  1.50000000E+00  8.00000000E-01  8.00000000E-01
  1.50000000E+00  1.50000000E+00  8.00000000E-01  8.00000000E-01  1.50000000E+00
  1.50000000E+00  8.00000000E-01  8.00000000E-01  1.50000000E+00  1.50000000E+00
  8.00000000E-01  8.00000000E-01  1.50000000E+00  1.50000000E+00  8.00000000E-01
  8.00000000E-01  1.50000000E+00  1.50000000E+00  8.00000000E-01  8.00000000E-01
  1.50000000E+00  1.50000000E+00  8.00000000E-01  8.00000000E-01  1.50000000E+00
  1.50000000E+00  8.00000000E-01  8.00000000E-01  1.50000000E+00  1.50000000E+00
  8.00000000E-01  8.00000000E-01  1.50000000E+00  1.50000000E+00  8.00000000E-01
  8.00000000E-01  1.50000000E+00  1.50000000E+00  8.00000000E-01  8.00000000E-01
  1.50000000E+00  1.50000000E+00  8.00000000E-01  8.00000000E-01  1.50000000E+00
  1.50000000E+00  8.00000000E-01  8.00000000E-01  1.50000000E+00  1.50000000E+00
  8.00000000E-01  8.00000000E-01  1.50000000E+00  1.50000000E+00  8.00000000E-01
  8.00000000E-01  1.50000000E+00  1.50000000E+00  8.00000000E-01  8.00000000E-01
  1.50000000E+00  1.50000000E+00  8.00000000E-01  8.00000000E-01  1.50000000E+00
  1.50000000E+00  8.00000000E-01  8.00000000E-01  1.50000000E+00  1.50000000E+00
  8.00000000E-01  8.00000000E-01  1.50000000E+00  1.50000000E+00  8.00000000E-01
  8.00000000E-01  1.50000000E+00  1.50000000E+00  8.00000000E-01  8.00000000E-01
  1.50000000E+00  1.50000000E+00  8.00000000E-01  8.00000000E-01  1.50000000E+00
  1.50000000E+00  8.00000000E-01  8.00000000E-01  1.50000000E+00  1.50000000E+00
  8.00000000E-01  8.00000000E-01  1.50000000E+00  1.50000000E+00  8.00000000E-01
  8.00000000E-01  1.50000000E+00  1.50000000E+00  8.00000000E-01  8.00000000E-01
  1.50000000E+00  1.50000000E+00  8.00000000E-01  8.00000000E-01  1.50000000E+00
  1.50000000E+00  8.00000000E-01  8.00000000E-01  1.50000000E+00  1.50000000E+00
  8.00000000E-01  8.00000000E-01  1.50000000E+00  1.50000000E+00  8.00000000E-01
  8.00000000E-01  1.50000000E+00  1.50000000E+00  8.00000000E-01  8.00000000E-01
  1.50000000E+00  1.50000000E+00  8.00000000E-01  8.00000000E-01  1.50000000E+00
  1.50000000E+00  8.00000000E-01  8.00000000E-01  1.50000000E+00  1.50000000E+00
  8.00000000E-01  8.00000000E-01  1.50000000E+00  1.50000000E+00  8.00000000E-01
  8.00000000E-01  1.50000000E+00  1.50000000E+00  8.00000000E-01  8.00000000E-01
  1.50000000E+00  1.50000000E+00  8.00000000E-01  8.00000000E-01  1.50000000E+00
  1.50000000E+00  8.00000000E-01  8.00000000E-01  1.50000000E+00  1.50000000E+00
  8.00000000E-01  8.00000000E-01  1.50000000E+00  1.50000000E+00  8.00000000E-01
  8.00000000E-01  1.50000000E+00  1.50000000E+00  8.00000000E-01  8.00000000E-01
  1.50000000E+00  1.50000000E+00  8.00000000E-01  8.00000000E-01  1.50000000E+00
  1.50000000E+00  8.00000000E-01  8.00000000E-01  1.50000000E+00  1.50000000E+00
  8.00000000E-01  8.00000000E-01  1.50000000E+00  1.50000000E+00  8.00000000E-01
  8.00000000E-01  1.50000000E+00  1.50000000E+00  8.00000000E-01  8.00000000E-01
  1.50000000E+00  1.50000000E+00  8.00000000E-01  8.00000000E-01  1.50000000E+00
  1.50000000E+00  8.00000000E-01  8.00000000E-01  1.50000000E+00  1.50000000E+00
  8.00000000E-01  8.00000000E-01  1.50000000E+00  1.50000000E+00  8.00000000E-01
  8.00000000E-01  1.50000000E+00  1.50000000E+00  8.00000000E-01  8.00000000E-01
  1.50000000E+00  1.50000000E+00  8.00000000E-01  8.00000000E-01  1.50000000E+00
  1.50000000E+00  8.00000000E-01  8.00000000E-01  1.50000000E+00  1.50000000E+00
  8.00000000E-01  8.00000000E-01  1.50000000E+00  1.50000000E+00  8.00000000E-01
  8.00000000E-01  1.50000000E+00  1.50000000E+00  8.00000000E-01  8.00000000E-01
  1.50000000E+00  1.50000000E+00  8.00000000E-01  8.00000000E-01  1.50000000E+00
  1.50000000E+00  8.00000000E-01  8.00000000E-01  1.50000000E+00  1.50000000E+00
  8.00000000E-01  8.00000000E-01  1.50000000E+00  1.50000000E+00  8.00000000E-01
  8.00000000E-01  1.50000000E+00  1.50000000E+00  8.00000000E-01  8.00000000E-01
  1.50000000E+00  1.50000000E+00  8.00000000E-01  8.00000000E-01  1.50000000E+00
  1.50000000E+00  8.00000000E-01  8.00000000E-01  1.50000000E+00  1.50000000E+00
  8.00000000E-01  8.00000000E-01  1.50000000E+00  1.50000000E+00  8.00000000E-01
  8.00000000E-01  1.50000000E+00  1.50000000E+00  8.00000000E-01  8.00000000E-01
  1.50000000E+00  1.50000000E+00  8.00000000E-01  8.00000000E-01  1.50000000E+00
  1.50000000E+00  8.00000000E-01  8.00000000E-01  1.50000000E+00  1.50000000E+00
  8.00000000E-01  8.00000000E-01  1.50000000E+00  1.50000000E+00  8.00000000E-01
  8.00000000E-01  1.50000000E+00  1.50000000E+00  8.00000000E-01  8.00000000E-01
  1.50000000E+00  1.50000000E+00  8.00000000E-01  8.00000000E-01  1.50000000E+00
  1.50000000E+00  8.00000000E-01  8.00000000E-01  1.50000000E+00  1.50000000E+00
  8.00000000E-01  8.00000000E-01  1.50000000E+00  1.50000000E+00  8.00000000E-01
  8.00000000E-01  1.50000000E+00  1.50000000E+00  8.00000000E-01  8.00000000E-01
  1.50000000E+00  1.50000000E+00  8.00000000E-01  8.00000000E-01  1.50000000E+00
  1.50000000E+00  8.00000000E-01  8.00000000E-01  1.50000000E+00  1.50000000E+00
  8.00000000E-01  8.00000000E-01  1.50000000E+00  1.50000000E+00  8.00000000E-01
  8.00000000E-01  1.50000000E+00  1.50000000E+00  8.00000000E-01  8.00000000E-01
  1.50000000E+00  1.50000000E+00  8.00000000E-01  8.00000000E-01  1.50000000E+00
  1.50000000E+00  8.00000000E-01  8.00000000E-01  1.50000000E+00  1.50000000E+00
  8.00000000E-01  8.00000000E-01  1.50000000E+00  1.50000000E+00  8.00000000E-01
  8.00000000E-01  1.50000000E+00  1.50000000E+00  8.00000000E-01  8.00000000E-01
  1.50000000E+00  1.50000000E+00  8.00000000E-01  8.00000000E-01  1.50000000E+00
  1.50000000E+00  8.00000000E-01  8.00000000E-01  1.50000000E+00  1.50000000E+00
  8.00000000E-01  8.00000000E-01  1.50000000E+00  1.50000000E+00  8.00000000E-01
  8.00000000E-01  1.50000000E+00  1.50000000E+00  8.00000000E-01  8.00000000E-01
  1.50000000E+00  1.50000000E+00  8.00000000E-01  8.00000000E-01  1.50000000E+00
  1.50000000E+00  8.00000000E-01  8.00000000E-01  1.50000000E+00  1.50000000E+00
  8.00000000E-01  8.00000000E-01  1.50000000E+00  1.50000000E+00  8.00000000E-01
  8.00000000E-01  1.50000000E+00  1.50000000E+00  8.00000000E-01  8.00000000E-01
  1.50000000E+00  1.50000000E+00  8.00000000E-01  8.00000000E-01  1.50000000E+00
  1.50000000E+00  8.00000000E-01  8.00000000E-01  1.50000000E+00  1.50000000E+00
  8.00000000E-01  8.00000000E-01  1.50000000E+00  1.50000000E+00  8.00000000E-01
  8.00000000E-01  1.50000000E+00  1.50000000E+00  8.00000000E-01  8.00000000E-01
  1.50000000E+00  1.50000000E+00  8.00000000E-01  8.00000000E-01  1.50000000E+00
  1.50000000E+00  8.00000000E-01  8.00000000E-01  1.50000000E+00  1.50000000E+00
  8.00000000E-01  8.00000000E-01  1.50000000E+00  1.50000000E+00  8.00000000E-01
  8.00000000E-01  1.50000000E+00  1.50000000E+00  8.00000000E-01  8.00000000E-01
  1.50000000E+00  1.50000000E+00  8.00000000E-01  8.00000000E-01  1.50000000E+00
  1.50000000E+00  8.00000000E-01  8.00000000E-01  1.50000000E+00  1.50000000E+00
  8.00000000E-01  8.00000000E-01  1.50000000E+00  1.50000000E+00  8.00000000E-01
  8.00000000E-01  1.50000000E+00  1.50000000E+00  8.00000000E-01  8.00000000E-01
  1.50000000E+00  1.50000000E+00  8.00000000E-01  8.00000000E-01  1.50000000E+00
  1.50000000E+00  8.00000000E-01  8.00000000E-01  1.50000000E+00  1.50000000E+00
  8.00000000E-01  8.00000000E-01  1.50000000E+00  1.50000000E+00  8.00000000E-01
  8.00000000E-01  1.50000000E+00  1.50000000E+00  8.00000000E-01  8.00000000E-01
  1.50000000E+00  1.50000000E+00  8.00000000E-01  8.00000000E-01  1.50000000E+00
  1.50000000E+00  8.00000000E-01  8.00000000E-01  1.50000000E+00  1.50000000E+00
  8.00000000E-01  8.00000000E-01  1.50000000E+00  1.50000000E+00  8.00000000E-01
  8.00000000E-01  1.50000000E+00  1.50000000E+00  8.00000000E-01  8.00000000E-01
  1.50000000E+00  1.50000000E+00  8.00000000E-01  8.00000000E-01  1.50000000E+00
  1.50000000E+00  8.00000000E-01  8.00000000E-01  1.50000000E+00  1.50000000E+00
  8.00000000E-01  8.00000000E-01  1.50000000E+00  1.50000000E+00  8.00000000E-01
  8.00000000E-01  1.50000000E+00  1.50000000E+00  8.00000000E-01  8.00000000E-01
  1.50000000E+00  1.50000000E+00  8.00000000E-01  8.00000000E-01  1.50000000E+00
  1.50000000E+00  8.00000000E-01  8.00000000E-01  1.50000000E+00  1.50000000E+00
  8.00000000E-01  8.00000000E-01  1.50000000E+00  1.50000000E+00  8.00000000E-01
  8.00000000E-01  1.50000000E+00  1.50000000E+00  8.00000000E-01  8.00000000E-01
  1.50000000E+00  1.50000000E+00  8.00000000E-01  8.00000000E-01  1.50000000E+00
  1.50000000E+00  8.00000000E-01  8.00000000E-01  1.50000000E+00  1.50000000E+00
  8.00000000E-01  8.00000000E-01  1.50000000E+00  1.50000000E+00  8.00000000E-01
  8.00000000E-01  1.50000000E+00  1.50000000E+00  8.00000000E-01  8.00000000E-01
  1.50000000E+00  1.50000000E+00  8.00000000E-01  8.00000000E-01  1.50000000E+00
  1.50000000E+00  8.00000000E-01  8.00000000E-01  1.50000000E+00  1.50000000E+00
  8.00000000E-01  8.00000000E-01  1.50000000E+00  1.50000000E+00  8.00000000E-01
  8.00000000E-01  1.50000000E+00  1.50000000E+00  8.00000000E-01  8.00000000E-01
  1.50000000E+00  1.50000000E+00  8.00000000E-01  8.00000000E-01  1.50000000E+00
  1.50000000E+00  8.00000000E-01  8.00000000E-01  1.50000000E+00  1.50000000E+00
  8.00000000E-01  8.00000000E-01  1.50000000E+00  1.50000000E+00  8.00000000E-01
  8.00000000E-01  1.50000000E+00  1.50000000E+00  8.00000000E-01  8.00000000E-01
  1.50000000E+00  1.50000000E+00  8.00000000E-01  8.00000000E-01  1.50000000E+00
  1.50000000E+00  8.00000000E-01  8.00000000E-01  1.50000000E+00  1.50000000E+00
  8.00000000E-01  8.00000000E-01  1.50000000E+00  1.50000000E+00  8.00000000E-01
  8.00000000E-01  1.50000000E+00  1.50000000E+00  8.00000000E-01  8.00000000E-01
  1.50000000E+00  1.50000000E+00  8.00000000E-01  8.00000000E-01  1.50000000E+00
  1.50000000E+00  8.00000000E-01  8.00000000E-01  1.50000000E+00  1.50000000E+00
  8.00000000E-01  8.00000000E-01  1.50000000E+00  1.50000000E+00  8.00000000E-01
  8.00000000E-01  1.50000000E+00  1.50000000E+00  8.00000000E-01  8.00000000E-01
  1.50000000E+00  1.50000000E+00  8.00000000E-01  8.00000000E-01  1.50000000E+00
  1.50000000E+00  8.00000000E-01  8.00000000E-01  1.50000000E+00  1.50000000E+00
  8.00000000E-01  8.00000000E-01  1.50000000E+00  1.50000000E+00  8.00000000E-01
  8.00000000E-01  1.50000000E+00  1.50000000E+00  8.00000000E-01  8.00000000E-01
  1.50000000E+00  1.50000000E+00  8.00000000E-01  8.00000000E-01  1.50000000E+00
  1.50000000E+00  8.00000000E-01  8.00000000E-01  1.50000000E+00  1.50000000E+00
  8.00000000E-01  8.00000000E-01  1.50000000E+00  1.50000000E+00  8.00000000E-01
  8.00000000E-01  1.50000000E+00  1.50000000E+00  8.00000000E-01  8.00000000E-01
  1.50000000E+00  1.50000000E+00  8.00000000E-01  8.00000000E-01  1.50000000E+00
  1.50000000E+00  8.00000000E-01  8.00000000E-01  1.50000000E+00  1.50000000E+00
  8.00000000E-01  8.00000000E-01  1.50000000E+00  1.50000000E+00  8.00000000E-01
  8.00000000E-01  1.50000000E+00  1.50000000E+00  8.00000000E-01  8.00000000E-01
  1.50000000E+00  1.50000000E+00  8.00000000E-01  8.00000000E-01  1.50000000E+00
  1.50000000E+00  8.00000000E-01  8.00000000E-01  1.50000000E+00  1.50000000E+00
  8.00000000E-01  8.00000000E-01  1.50000000E+00  1.50000000E+00  8.00000000E-01
  8.00000000E-01  1.50000000E+00  1.50000000E+00  8.00000000E-01  8.00000000E-01
  1.50000000E+00  1.50000000E+00  8.00000000E-01  8.00000000E-01  1.50000000E+00
  1.50000000E+00  8.00000000E-01  8.00000000E-01  1.50000000E+00  1.50000000E+00
  8.00000000E-01  8.00000000E-01  1.50000000E+00  1.50000000E+00  8.00000000E-01
  8.00000000E-01  1.50000000E+00  1.50000000E+00  8.00000000E-01  8.00000000E-01
  1.50000000E+00  1.50000000E+00  8.00000000E-01  8.00000000E-01  1.50000000E+00
  1.50000000E+00  8.00000000E-01  8.00000000E-01  1.50000000E+00  1.50000000E+00
  8.00000000E-01  8.00000000E-01  1.50000000E+00  1.50000000E+00  8.00000000E-01
  8.00000000E-01  1.50000000E+00  1.50000000E+00  8.00000000E-01  8.00000000E-01
  1.50000000E+00  1.50000000E+00  8.00000000E-01  8.00000000E-01  1.50000000E+00
  1.50000000E+00  8.00000000E-01  8.00000000E-01  1.50000000E+00  1.50000000E+00
  8.00000000E-01  8.00000000E-01  1.50000000E+00  1.50000000E+00  8.00000000E-01
  8.00000000E-01  1.50000000E+00  1.50000000E+00  8.00000000E-01  8.00000000E-01
  1.50000000E+00  1.50000000E+00  8.00000000E-01  8.00000000E-01  1.50000000E+00
  1.50000000E+00  8.00000000E-01  8.00000000E-01  1.50000000E+00  1.50000000E+00
  8.00000000E-01  8.00000000E-01  1.50000000E+00  1.50000000E+00  8.00000000E-01
  8.00000000E-01  1.50000000E+00  1.50000000E+00  8.00000000E-01  8.00000000E-01
  1.50000000E+00  1.50000000E+00  8.00000000E-01  8.00000000E-01  1.50000000E+00
  1.50000000E+00  8.00000000E-01  8.00000000E-01  1.50000000E+00  1.50000000E+00
  8.00000000E-01  8.00000000E-01  1.50000000E+00  1.50000000E+00  8.00000000E-01
  8.00000000E-01  1.50000000E+00  1.50000000E+00  8.00000000E-01  8.00000000E-01
  1.50000000E+00  1.50000000E+00  8.00000000E-01  8.00000000E-01  1.50000000E+00
  1.50000000E+00  8.00000000E-01  8.00000000E-01  1.50000000E+00  1.50000000E+00
  8.00000000E-01  8.00000000E-01  1.50000000E+00  1.50000000E+00  8.00000000E-01
  8.00000000E-01  1.50000000E+00  1.50000000E+00  8.00000000E-01  8.00000000E-01
  1.50000000E+00  1.50000000E+00  8.00000000E-01  8.00000000E-01  1.50000000E+00
  1.50000000E+00  8.00000000E-01  8.00000000E-01  1.50000000E+00  1.50000000E+00
  8.00000000E-01  8.00000000E-01  1.50000000E+00  1.50000000E+00  8.00000000E-01
  8.00000000E-01  1.50000000E+00  1.50000000E+00  8.00000000E-01  8.00000000E-01
  1.50000000E+00  1.50000000E+00  8.00000000E-01  8.00000000E-01  1.50000000E+00
  1.50000000E+00  8.00000000E-01  8.00000000E-01  1.50000000E+00  1.50000000E+00
  8.00000000E-01  8.00000000E-01  1.50000000E+00  1.50000000E+00  8.00000000E-01
  8.00000000E-01  1.50000000E+00  1.50000000E+00  8.00000000E-01  8.00000000E-01
  1.50000000E+00  1.50000000E+00  8.00000000E-01  8.00000000E-01  1.50000000E+00
  1.50000000E+00  8.00000000E-01  8.00000000E-01  1.50000000E+00  1.50000000E+00
  8.00000000E-01  8.00000000E-01  1.50000000E+00  1.50000000E+00  8.00000000E-01
  8.00000000E-01  1.50000000E+00  1.50000000E+00  8.00000000E-01  8.00000000E-01
  1.50000000E+00  1.50000000E+00  8.00000000E-01  8.00000000E-01  1.50000000E+00
  1.50000000E+00  8.00000000E-01  8.00000000E-01  1.50000000E+00  1.50000000E+00
  8.00000000E-01  8.00000000E-01  1.50000000E+00  1.50000000E+00  8.00000000E-01
  8.00000000E-01  1.50000000E+00  1.50000000E+00  8.00000000E-01  8.00000000E-01
  1.50000000E+00  1.50000000E+00  8.00000000E-01  8.00000000E-01  1.50000000E+00
  1.50000000E+00  8.00000000E-01  8.00000000E-01  1.50000000E+00  1.50000000E+00
  8.00000000E-01  8.00000000E-01  1.50000000E+00  1.50000000E+00  8.00000000E-01
  8.00000000E-01  1.50000000E+00  1.50000000E+00  8.00000000E-01  8.00000000E-01
  1.50000000E+00  1.50000000E+00  8.00000000E-01  8.00000000E-01  1.50000000E+00
  1.50000000E+00  8.00000000E-01  8.00000000E-01  1.50000000E+00  1.50000000E+00
  8.00000000E-01  8.00000000E-01  1.50000000E+00  1.50000000E+00  8.00000000E-01
  8.00000000E-01  1.50000000E+00  1.50000000E+00  8.00000000E-01  8.00000000E-01
  1.50000000E+00  1.50000000E+00  8.00000000E-01  8.00000000E-01  1.50000000E+00
  1.50000000E+00  8.00000000E-01  8.00000000E-01  1.50000000E+00  1.50000000E+00
  8.00000000E-01  8.00000000E-01  1.50000000E+00  1.50000000E+00  8.00000000E-01
  8.00000000E-01  1.50000000E+00
%FLAG SCREEN                                                                    
%FORMAT(5E16.8)                                                                 
  8.50000000E-01  7.20000000E-01  8.50000000E-01  8.50000000E-01  7.20000000E-01
  8.50000000E-01  7.90000000E-01  8.50000000E-01  7.20000000E-01  8.50000000E-01
  7.20000000E-01  8.50000000E-01  8.50000000E-01  7.20000000E-01  7.20000000E-01
  8.50000000E-01  7.20000000E-01  8.50000000E-01  7.20000000E-01  8.50000000E-01
  8.50000000E-01  7.20000000E-01  8.50000000E-01  7.20000000E-01  8.50000000E-01
  7.20000000E-01  8.50000000E-01  7.90000000E-01  8.50000000E-01  7.20000000E-01
  8.50000000E-01  7.20000000E-01  8.50000000E-01  8.50000000E-01  8.50000000E-01
  7.20000000E-01  8.50000000E-01  7.90000000E-01  8.50000000E-01  7.20000000E-01
  8.50000000E-01  8.50000000E-01  7.20000000E-01  8.50000000E-01  7.90000000E-01
  8.50000000E-01  7.20000000E-01  8.50000000E-01  7.20000000E-01  8.50000000E-01
  8.50000000E-01  7.20000000E-01  7.20000000E-01  8.50000000E-01  7.20000000E-01
  8.50000000E-01  7.20000000E-01  8.50000000E-01  7.20000000E-01  8.50000000E-01
  7.20000000E-01  8.50000000E-01  7.20000000E-01  8.50000000E-01  7.90000000E-01
  8.50000000E-01  7.20000000E-01  8.50000000E-01  8.50000000E-01  8.50000000E-01
  8.50000000E-01  8.50000000E-01  8.50000000E-01  8.00000000E-01  8.50000000E-01
  8.50000000E-01  8.50000000E-01  8.00000000E-01  8.50000000E-01  8.50000000E-01
  8.50000000E-01  8.00000000E-01  8.50000000E-01  8.50000000E-01  8.50000000E-01
  8.00000000E-01  8.50000000E-01  8.50000000E-01  8.50000000E-01  8.00000000E-01
  8.50000000E-01  8.50000000E-01  8.50000000E-01  8.00000000E-01  8.50000000E-01
  8.50000000E-01  8.50000000E-01  8.00000000E-01  8.50000000E-01  8.50000000E-01
  8.50000000E-01  8.00000000E-01  8.50000000E-01  8.50000000E-01  8.50000000E-01
  8.00000000E-01  8.50000000E-01  8.50000000E-01  8.50000000E-01  8.00000000E-01
  8.50000000E-01  8.50000000E-01  8.50000000E-01  8.00000000E-01  8.50000000E-01
  8.50000000E-01  8.50000000E-01  8.00000000E-01  8.50000000E-01  8.50000000E-01
  8.50000000E-01  8.00000000E-01  8.50000000E-01  8.50000000E-01  8.50000000E-01
  8.00000000E-01  8.50000000E-01  8.50000000E-01  8.50000000E-01  8.00000000E-01
  8.50000000E-01  8.50000000E-01  8.50000000E-01  8.00000000E-01  8.50000000E-01
  8.50000000E-01  8.50000000E-01  8.00000000E-01  8.50000000E-01  8.50000000E-01
  8.50000000E-01  8.00000000E-01  8.50000000E-01  8.50000000E-01  8.50000000E-01
  8.00000000E-01  8.50000000E-01  8.50000000E-01  8.50000000E-01  8.00000000E-01
  8.50000000E-01  8.50000000E-01  8.50000000E-01  8.00000000E-01  8.50000000E-01
  8.50000000E-01  8.50000000E-01  8.00000000E-01  8.50000000E-01  8.50000000E-01
  8.50000000E-01  8.00000000E-01  8.50000000E-01  8.50000000E-01  8.50000000E-01
  8.00000000E-01  8.50000000E-01  8.50000000E-01  8.50000000E-01  8.00000000E-01
  8.50000000E-01  8.50000000E-01  8.50000000E-01  8.00000000E-01  8.50000000E-01
  8.50000000E-01  8.50000000E-01  8.00000000E-01  8.50000000E-01  8.50000000E-01
  8.50000000E-01  8.00000000E-01  8.50000000E-01  8.50000000E-01  8.50000000E-01
  8.00000000E-01  8.50000000E-01  8.50000000E-01  8.50000000E-01  8.00000000E-01
  8.50000000E-01  8.50000000E-01  8.50000000E-01  8.00000000E-01  8.50000000E-01
  8.50000000E-01  8.50000000E-01  8.00000000E-01  8.50000000E-01  8.50000000E-01
  8.50000000E-01  8.00000000E-01  8.50000000E-01  8.50000000E-01  8.50000000E-01
  8.00000000E-01  8.50000000E-01  8.50000000E-01  8.50000000E-01  8.00000000E-01
  8.50000000E-01  8.50000000E-01  8.50000000E-01  8.00000000E-01  8.50000000E-01
  8.50000000E-01  8.50000000E-01  8.00000000E-01  8.50000000E-01  8.50000000E-01
  8.50000000E-01  8.00000000E-01  8.50000000E-01  8.50000000E-01  8.50000000E-01
  8.00000000E-01  8.50000000E-01  8.50000000E-01  8.50000000E-01  8.00000000E-01
  8.50000000E-01  8.50000000E-01  8.50000000E-01  8.00000000E-01  8.50000000E-01
  8.50000000E-01  8.50000000E-01  8.00000000E-01  8.50000000E-01  8.50000000E-01
  8.50000000E-01  8.00000000E-01  8.50000000E-01  8.50000000E-01  8.50000000E-01
  8.00000000E-01  8.50000000E-01  8.50000000E-01  8.50000000E-01  8.00000000E-01
  8.50000000E-01  8.50000000E-01  8.50000000E-01  8.00000000E-01  8.50000000E-01
  8.50000000E-01  8.50000000E-01  8.00000000E-01  8.50000000E-01  8.50000000E-01
  8.50000000E-01  8.00000000E-01  8.50000000E-01  8.50000000E-01  8.50000000E-01
  8.00000000E-01  8.50000000E-01  8.50000000E-01  8.50000000E-01  8.00000000E-01
  8.50000000E-01  8.50000000E-01  8.50000000E-01  8.00000000E-01  8.50000000E-01
  8.50000000E-01  8.50000000E-01  8.00000000E-01  8.50000000E-01  8.50000000E-01
  8.50000000E-01  8.00000000E-01  8.50000000E-01  8.50000000E-01  8.50000000E-01
  8.00000000E-01  8.50000000E-01  8.50000000E-01  8.50000000E-01  8.00000000E-01
  8.50000000E-01  8.50000000E-01  8.50000000E-01  8.00000000E-01  8.50000000E-01
  8.50000000E-01  8.50000000E-01  8.00000000E-01  8.50000000E-01  8.50000000E-01
  8.50000000E-01  8.00000000E-01  8.50000000E-01  8.50000000E-01  8.50000000E-01
  8.00000000E-01  8.50000000E-01  8.50000000E-01  8.50000000E-01  8.00000000E-01
  8.50000000E-01  8.50000000E-01  8.50000000E-01  8.00000000E-01  8.50000000E-01
  8.50000000E-01  8.50000000E-01  8.00000000E-01  8.50000000E-01  8.50000000E-01
  8.50000000E-01  8.00000000E-01  8.50000000E-01  8.50000000E-01  8.50000000E-01
  8.00000000E-01  8.50000000E-01  8.50000000E-01  8.50000000E-01  8.00000000E-01
  8.50000000E-01  8.50000000E-01  8.50000000E-01  8.00000000E-01  8.50000000E-01
  8.50000000E-01  8.50000000E-01  8.00000000E-01  8.50000000E-01  8.50000000E-01
  8.50000000E-01  8.00000000E-01  8.50000000E-01  8.50000000E-01  8.50000000E-01
  8.00000000E-01  8.50000000E-01  8.50000000E-01  8.50000000E-01  8.00000000E-01
  8.50000000E-01  8.50000000E-01  8.50000000E-01  8.00000000E-01  8.50000000E-01
  8.50000000E-01  8.50000000E-01  8.00000000E-01  8.50000000E-01  8.50000000E-01
  8.50000000E-01  8.00000000E-01  8.50000000E-01  8.50000000E-01  8.50000000E-01
  8.00000000E-01  8.50000000E-01  8.50000000E-01  8.50000000E-01  8.00000000E-01
  8.50000000E-01  8.50000000E-01  8.50000000E-01  8.00000000E-01  8.50000000E-01
  8.50000000E-01  8.50000000E-01  8.00000000E-01  8.50000000E-01  8.50000000E-01
  8.50000000E-01  8.00000000E-01  8.50000000E-01  8.50000000E-01  8.50000000E-01
  8.00000000E-01  8.50000000E-01  8.50000000E-01  8.50000000E-01  8.00000000E-01
  8.50000000E-01  8.50000000E-01  8.50000000E-01  8.00000000E-01  8.50000000E-01
  8.50000000E-01  8.50000000E-01  8.00000000E-01  8.50000000E-01  8.50000000E-01
  8.50000000E-01  8.00000000E-01  8.50000000E-01  8.50000000E-01  8.50000000E-01
  8.00000000E-01  8.50000000E-01  8.50000000E-01  8.50000000E-01  8.00000000E-01
  8.50000000E-01  8.50000000E-01  8.50000000E-01  8.00000000E-01  8.50000000E-01
  8.50000000E-01  8.50000000E-01  8.00000000E-01  8.50000000E-01  8.50000000E-01
  8.50000000E-01  8.00000000E-01  8.50000000E-01  8.50000000E-01  8.50000000E-01
  8.00000000E-01  8.50000000E-01  8.50000000E-01  8.50000000E-01  8.00000000E-01
  8.50000000E-01  8.50000000E-01  8.50000000E-01  8.00000000E-01  8.50000000E-01
  8.50000000E-01  8.50000000E-01  8.00000000E-01  8.50000000E-01  8.50000000E-01
  8.50000000E-01  8.00000000E-01  8.50000000E-01  8.50000000E-01  8.50000000E-01
  8.00000000E-01  8.50000000E-01  8.50000000E-01  8.50000000E-01  8.00000000E-01
  8.50000000E-01  8.50000000E-01  8.50000000E-01  8.00000000E-01  8.50000000E-01
  8.50000000E-01  8.50000000E-01  8.00000000E-01  8.50000000E-01  8.50000000E-01
  8.50000000E-01  8.00000000E-01  8.50000000E-01  8.50000000E-01  8.50000000E-01
  8.00000000E-01  8.50000000E-01  8.50000000E-01  8.50000000E-01  8.00000000E-01
  8.50000000E-01  8.50000000E-01  8.50000000E-01  8.00000000E-01  8.50000000E-01
  8.50000000E-01  8.50000000E-01  8.00000000E-01  8.50000000E-01  8.50000000E-01
  8.50000000E-01  8.00000000E-01  8.50000000E-01  8.50000000E-01  8.50000000E-01
  8.00000000E-01  8.50000000E-01  8.50000000E-01  8.50000000E-01  8.00000000E-01
  8.50000000E-01  8.50000000E-01  8.50000000E-01  8.00000000E-01  8.50000000E-01
  8.50000000E-01  8.50000000E-01  8.00000000E-01  8.50000000E-01  8.50000000E-01
  8.50000000E-01  8.00000000E-01  8.50000000E-01  8.50000000E-01  8.50000000E-01
  8.00000000E-01  8.50000000E-01  8.50000000E-01  8.50000000E-01  8.00000000E-01
  8.50000000E-01  8.50000000E-01  8.50000000E-01  8.00000000E-01  8.50000000E-01
  8.50000000E-01  8.50000000E-01  8.00000000E-01  8.50000000E-01  8.50000000E-01
  8.50000000E-01  8.00000000E-01  8.50000000E-01  8.50000000E-01  8.50000000E-01
  8.00000000E-01  8.50000000E-01  8.50000000E-01  8.50000000E-01  8.00000000E-01
  8.50000000E-01  8.50000000E-01  8.50000000E-01  8.00000000E-01  8.50000000E-01
  8.50000000E-01  8.50000000E-01  8.00000000E-01  8.50000000E-01  8.50000000E-01
  8.50000000E-01  8.00000000E-01  8.50000000E-01  8.50000000E-01  8.50000000E-01
  8.00000000E-01  8.50000000E-01  8.50000000E-01  8.50000000E-01  8.00000000E-01
  8.50000000E-01  8.50000000E-01  8.50000000E-01  8.00000000E-01  8.50000000E-01
  8.50000000E-01  8.50000000E-01  8.00000000E-01  8.50000000E-01  8.50000000E-01
  8.50000000E-01  8.00000000E-01  8.50000000E-01  8.50000000E-01  8.50000000E-01
  8.00000000E-01  8.50000000E-01  8.50000000E-01  8.50000000E-01  8.00000000E-01
  8.50000000E-01  8.50000000E-01  8.50000000E-01  8.00000000E-01  8.50000000E-01
  8.50000000E-01  8.50000000E-01  8.00000000E-01  8.50000000E-01  8.50000000E-01
  8.50000000E-01  8.00000000E-01  8.50000000E-01  8.50000000E-01  8.50000000E-01
  8.00000000E-01  8.50000000E-01  8.50000000E-01  8.50000000E-01  8.00000000E-01
  8.50000000E-01  8.50000000E-01  8.50000000E-01  8.00000000E-01  8.50000000E-01
  8.50000000E-01  8.50000000E-01  8.00000000E-01  8.50000000E-01  8.50000000E-01
  8.50000000E-01  8.00000000E-01  8.50000000E-01  8.50000000E-01  8.50000000E-01
  8.00000000E-01  8.50000000E-01  8.50000000E-01  8.50000000E-01  8.00000000E-01
  8.50000000E-01  8.50000000E-01  8.50000000E-01  8.00000000E-01  8.50000000E-01
  8.50000000E-01  8.50000000E-01  8.00000000E-01  8.50000000E-01  8.50000000E-01
  8.50000000E-01  8.00000000E-01  8.50000000E-01  8.50000000E-01  8.50000000E-01
  8.00000000E-01  8.50000000E-01  8.50000000E-01  8.50000000E-01  8.00000000E-01
  8.50000000E-01  8.50000000E-01  8.50000000E-01  8.00000000E-01  8.50000000E-01
  8.50000000E-01  8.50000000E-01  8.00000000E-01  8.50000000E-01  8.50000000E-01
  8.50000000E-01  8.00000000E-01  8.50000000E-01  8.50000000E-01  8.50000000E-01
  8.00000000E-01  8.50000000E-01  8.50000000E-01  8.50000000E-01  8.00000000E-01
  8.50000000E-01  8.50000000E-01  8.50000000E-01  8.00000000E-01  8.50000000E-01
  8.50000000E-01  8.50000000E-01  8.00000000E-01  8.50000000E-01  8.50000000E-01
  8.50000000E-01  8.00000000E-01  8.50000000E-01  8.50000000E-01  8.50000000E-01
  8.00000000E-01  8.50000000E-01  8.50000000E-01  8.50000000E-01  8.00000000E-01
  8.50000000E-01  8.50000000E-01  8.50000000E-01  8.00000000E-01  8.50000000E-01
  8.50000000E-01  8.50000000E-01  8.00000000E-01  8.50000000E-01  8.50000000E-01
  8.50000000E-01  8.00000000E-01  8.50000000E-01  8.50000000E-01  8.50000000E-01
  8.00000000E-01  8.50000000E-01  8.50000000E-01  8.50000000E-01  8.00000000E-01
  8.50000000E-01  8.50000000E-01  8.50000000E-01  8.00000000E-01  8.50000000E-01
  8.50000000E-01  8.50000000E-01  8.00000000E-01  8.50000000E-01  8.50000000E-01
  8.50000000E-01  8.00000000E-01  8.50000000E-01  8.50000000E-01  8.50000000E-01
  8.00000000E-01  8.50000000E-01  8.50000000E-01  8.50000000E-01  8.00000000E-01
  8.50000000E-01  8.50000000E-01  8.50000000E-01  8.00000000E-01  8.50000000E-01
  8.50000000E-01  8.50000000E-01  8.00000000E-01  8.50000000E-01  8.50000000E-01
  8.50000000E-01  8.00000000E-01  8.50000000E-01  8.50000000E-01  8.50000000E-01
  8.00000000E-01  8.50000000E-01  8.50000000E-01  8.50000000E-01  8.00000000E-01
  8.50000000E-01  8.50000000E-01  8.50000000E-01  8.00000000E-01  8.50000000E-01
  8.50000000E-01  8.50000000E-01  8.00000000E-01  8.50000000E-01  8.50000000E-01
  8.50000000E-01  8.00000000E-01  8.50000000E-01  8.50000000E-01  8.50000000E-01
  8.00000000E-01  8.50000000E-01  8.50000000E-01  8.50000000E-01  8.00000000E-01
  8.50000000E-01  8.50000000E-01  8.50000000E-01  8.00000000E-01  8.50000000E-01
  8.50000000E-01  8.50000000E-01  8.00000000E-01  8.50000000E-01  8.50000000E-01
  8.50000000E-01  8.00000000E-01  8.50000000E-01  8.50000000E-01  8.50000000E-01
  8.00000000E-01  8.50000000E-01  8.50000000E-01  8.50000000E-01  8.00000000E-01
  8.50000000E-01  8.50000000E-01  8.50000000E-01  8.00000000E-01  8.50000000E-01
  8.50000000E-01  8.50000000E-01  8.00000000E-01  8.50000000E-01  8.50000000E-01
  8.50000000E-01  8.00000000E-01  8.50000000E-01  8.50000000E-01  8.50000000E-01
  8.00000000E-01  8.50000000E-01  8.50000000E-01  8.50000000E-01  8.00000000E-01
  8.50000000E-01  8.50000000E-01  8.50000000E-01  8.00000000E-01  8.50000000E-01
  8.50000000E-01  8.50000000E-01  8.00000000E-01  8.50000000E-01  8.50000000E-01
  8.50000000E-01  8.00000000E-01  8.50000000E-01  8.50000000E-01  8.50000000E-01
  8.00000000E-01  8.50000000E-01  8.50000000E-01  8.50000000E-01  8.00000000E-01
  8.50000000E-01  8.50000000E-01  8.50000000E-01  8.00000000E-01  8.50000000E-01
  8.50000000E-01  8.50000000E-01  8.00000000E-01  8.50000000E-01  8.50000000E-01
  8.50000000E-01  8.00000000E-01  8.50000000E-01  8.50000000E-01  8.50000000E-01
  8.00000000E-01  8.50000000E-01  8.50000000E-01  8.50000000E-01  8.00000000E-01
  8.50000000E-01  8.50000000E-01  8.50000000E-01  8.00000000E-01  8.50000000E-01
  8.50000000E-01  8.50000000E-01  8.00000000E-01  8.50000000E-01  8.50000000E-01
  8.50000000E-01  8.00000000E-01  8.50000000E-01  8.50000000E-01  8.50000000E-01
  8.00000000E-01  8.50000000E-01  8.50000000E-01  8.50000000E-01  8.00000000E-01
  8.50000000E-01  8.50000000E-01  8.50000000E-01  8.00000000E-01  8.50000000E-01
  8.50000000E-01  8.50000000E-01  8.00000000E-01  8.50000000E-01  8.50000000E-01
  8.50000000E-01  8.00000000E-01  8.50000000E-01  8.50000000E-01  8.50000000E-01
  8.00000000E-01  8.50000000E-01  8.50000000E-01  8.50000000E-01  8.00000000E-01
  8.50000000E-01  8.50000000E-01  8.50000000E-01  8.00000000E-01  8.50000000E-01
  8.50000000E-01  8.50000000E-01  8.00000000E-01  8.50000000E-01  8.50000000E-01
  8.50000000E-01  8.00000000E-01  8.50000000E-01  8.50000000E-01  8.50000000E-01
  8.00000000E-01  8.50000000E-01  8.50000000E-01  8.50000000E-01  8.00000000E-01
  8.50000000E-01  8.50000000E-01  8.50000000E-01  8.00000000E-01  8.50000000E-01
  8.50000000E-01  8.50000000E-01  8.00000000E-01  8.50000000E-01  8.50000000E-01
  8.50000000E-01  8.00000000E-01  8.50000000E-01  8.50000000E-01  8.50000000E-01
  8.00000000E-01  8.50000000E-01  8.50000000E-01  8.50000000E-01  8.00000000E-01
  8.50000000E-01  8.50000000E-01  8.50000000E-01  8.00000000E-01  8.50000000E-01
  8.50000000E-01  8.50000000E-01  8.00000000E-01  8.50000000E-01  8.50000000E-01
  8.50000000E-01  8.00000000E-01  8.50000000E-01  8.50000000E-01  8.50000000E-01
  8.00000000E-01  8.50000000E-01  8.50000000E-01  8.50000000E-01  8.00000000E-01
  8.50000000E-01  8.50000000E-01  8.50000000E-01  8.00000000E-01  8.50000000E-01
  8.50000000E-01  8.50000000E-01  8.00000000E-01  8.50000000E-01  8.50000000E-01
  8.50000000E-01  8.00000000E-01  8.50000000E-01  8.50000000E-01  8.50000000E-01
  8.00000000E-01  8.50000000E-01  8.50000000E-01  8.50000000E-01  8.00000000E-01
  8.50000000E-01  8.50000000E-01  8.50000000E-01  8.00000000E-01  8.50000000E-01
  8.50000000E-01  8.50000000E-01  8.00000000E-01  8.50000000E-01  8.50000000E-01
  8.50000000E-01  8.00000000E-01  8.50000000E-01  8.50000000E-01  8.50000000E-01
  8.00000000E-01  8.50000000E-01  8.50000000E-01  8.50000000E-01  8.00000000E-01
  8.50000000E-01  8.50000000E-01  8.50000000E-01  8.00000000E-01  8.50000000E-01
  8.50000000E-01  8.50000000E-01  8.00000000E-01  8.50000000E-01  8.50000000E-01
  8.50000000E-01  8.00000000E-01  8.50000000E-01  8.50000000E-01  8.50000000E-01
  8.00000000E-01  8.50000000E-01  8.50000000E-01  8.50000000E-01  8.00000000E-01
  8.50000000E-01  8.50000000E-01  8.50000000E-01  8.00000000E-01  8.50000000E-01
  8.50000000E-01  8.50000000E-01  8.00000000E-01  8.50000000E-01  8.50000000E-01
  8.50000000E-01  8.00000000E-01  8.50000000E-01  8.50000000E-01  8.50000000E-01
  8.00000000E-01  8.50000000E-01  8.50000000E-01  8.50000000E-01  8.00000000E-01
  8.50000000E-01  8.50000000E-01  8.50000000E-01  8.00000000E-01  8.50000000E-01
  8.50000000E-01  8.50000000E-01  8.00000000E-01  8.50000000E-01  8.50000000E-01
  8.50000000E-01  8.00000000E-01  8.50000000E-01  8.50000000E-01  8.50000000E-01
  8.00000000E-01  8.50000000E-01  8.50000000E-01  8.50000000E-01  8.00000000E-01
  8.50000000E-01  8.50000000E-01  8.50000000E-01  8.00000000E-01  8.50000000E-01
  8.50000000E-01  8.50000000E-01  8.00000000E-01  8.50000000E-01  8.50000000E-01
  8.50000000E-01  8.00000000E-01  8.50000000E-01  8.50000000E-01  8.50000000E-01
  8.00000000E-01  8.50000000E-01  8.50000000E-01  8.50000000E-01  8.00000000E-01
  8.50000000E-01  8.50000000E-01  8.50000000E-01  8.00000000E-01  8.50000000E-01
  8.50000000E-01  8.50000000E-01  8.00000000E-01  8.50000000E-01  8.50000000E-01
  8.50000000E-01  8.00000000E-01  8.50000000E-01  8.50000000E-01  8.50000000E-01
  8.00000000E-01  8.50000000E-01  8.50000000E-01  8.50000000E-01  8.00000000E-01
  8.50000000E-01  8.50000000E-01  8.50000000E-01  8.00000000E-01  8.50000000E-01
  8.50000000E-01  8.50000000E-01  8.00000000E-01  8.50000000E-01  8.50000000E-01
  8.50000000E-01  8.00000000E-01  8.50000000E-01  8.50000000E-01  8.50000000E-01
  8.00000000E-01  8.50000000E-01  8.50000000E-01  8.50000000E-01  8.00000000E-01
  8.50000000E-01  8.50000000E-01  8.50000000E-01  8.00000000E-01  8.50000000E-01
  8.50000000E-01  8.50000000E-01  8.00000000E-01  8.50000000E-01  8.50000000E-01
  8.50000000E-01  8.00000000E-01  8.50000000E-01  8.50000000E-01  8.50000000E-01
  8.00000000E-01  8.50000000E-01  8.50000000E-01  8.50000000E-01  8.00000000E-01
  8.50000000E-01  8.50000000E-01  8.50000000E-01  8.00000000E-01  8.50000000E-01
  8.50000000E-01  8.50000000E-01  8.00000000E-01  8.50000000E-01  8.50000000E-01
  8.50000000E-01  8.00000000E-01  8.50000000E-01  8.50000000E-01  8.50000000E-01
  8.00000000E-01  8.50000000E-01  8.50000000E-01  8.50000000E-01  8.00000000E-01
  8.50000000E-01  8.50000000E-01  8.50000000E-01  8.00000000E-01  8.50000000E-01
  8.50000000E-01  8.50000000E-01  8.00000000E-01  8.50000000E-01  8.50000000E-01
  8.50000000E-01  8.00000000E-01  8.50000000E-01  8.50000000E-01  8.50000000E-01
  8.00000000E-01  8.50000000E-01  8.50000000E-01  8.50000000E-01  8.00000000E-01
  8.50000000E-01  8.50000000E-01  8.50000000E-01  8.00000000E-01  8.50000000E-01
  8.50000000E-01  8.50000000E-01  8.00000000E-01  8.50000000E-01  8.50000000E-01
  8.50000000E-01  8.00000000E-01  8.50000000E-01  8.50000000E-01  8.50000000E-01
  8.00000000E-01  8.50000000E-01  8.50000000E-01  8.50000000E-01  8.00000000E-01
  8.50000000E-01  8.50000000E-01  8.50000000E-01  8.00000000E-01  8.50000000E-01
  8.50000000E-01  8.50000000E-01  8.00000000E-01  8.50000000E-01  8.50000000E-01
  8.50000000E-01  8.00000000E-01  8.50000000E-01  8.50000000E-01  8.50000000E-01
  8.00000000E-01  8.50000000E-01  8.50000000E-01  8.50000000E-01  8.00000000E-01
  8.50000000E-01  8.50000000E-01  8.50000000E-01  8.00000000E-01  8.50000000E-01
  8.50000000E-01  8.50000000E-01  8.00000000E-01  8.50000000E-01  8.50000000E-01
  8.50000000E-01  8.00000000E-01  8.50000000E-01  8.50000000E-01  8.50000000E-01
  8.00000000E-01  8.50000000E-01  8.50000000E-01  8.50000000E-01  8.00000000E-01
  8.50000000E-01  8.50000000E-01  8.50000000E-01  8.00000000E-01  8.50000000E-01
  8.50000000E-01  8.50000000E-01  8.00000000E-01  8.50000000E-01  8.50000000E-01
  8.50000000E-01  8.00000000E-01  8.50000000E-01  8.50000000E-01  8.50000000E-01
  8.00000000E-01  8.50000000E-01  8.50000000E-01  8.50000000E-01  8.00000000E-01
  8.50000000E-01  8.50000000E-01  8.50000000E-01  8.00000000E-01  8.50000000E-01
  8.50000000E-01  8.50000000E-01  8.00000000E-01  8.50000000E-01  8.50000000E-01
  8.50000000E-01  8.00000000E-01  8.50000000E-01  8.50000000E-01  8.50000000E-01
  8.00000000E-01  8.50000000E-01  8.50000000E-01  8.50000000E-01  8.00000000E-01
  8.50000000E-01  8.50000000E-01  8.50000000E-01  8.00000000E-01  8.50000000E-01
  8.50000000E-01  8.50000000E-01  8.00000000E-01  8.50000000E-01  8.50000000E-01
  8.50000000E-01  8.00000000E-01  8.50000000E-01  8.50000000E-01  8.50000000E-01
  8.00000000E-01  8.50000000E-01  8.50000000E-01  8.50000000E-01  8.00000000E-01
  8.50000000E-01  8.50000000E-01  8.50000000E-01  8.00000000E-01  8.50000000E-01
  8.50000000E-01  8.50000000E-01  8.00000000E-01  8.50000000E-01  8.50000000E-01
  8.50000000E-01  8.00000000E-01  8.50000000E-01  8.50000000E-01  8.50000000E-01
  8.00000000E-01  8.50000000E-01  8.50000000E-01  8.50000000E-01  8.00000000E-01
  8.50000000E-01  8.50000000E-01  8.50000000E-01  8.00000000E-01  8.50000000E-01
  8.50000000E-01  8.50000000E-01  8.00000000E-01  8.50000000E-01  8.50000000E-01
  8.50000000E-01  8.00000000E-01  8.50000000E-01  8.50000000E-01  8.50000000E-01
  8.00000000E-01  8.50000000E-01  8.50000000E-01  8.50000000E-01  8.00000000E-01
  8.50000000E-01  8.50000000E-01  8.50000000E-01  8.00000000E-01  8.50000000E-01
  8.50000000E-01  8.50000000E-01  8.00000000E-01  8.50000000E-01  8.50000000E-01
  8.50000000E-01  8.00000000E-01  8.50000000E-01  8.50000000E-01  8.50000000E-01
  8.00000000E-01  8.50000000E-01  8.50000000E-01  8.50000000E-01  8.00000000E-01
  8.50000000E-01  8.50000000E-01  8.50000000E-01  8.00000000E-01  8.50000000E-01
  8.50000000E-01  8.50000000E-01  8.00000000E-01  8.50000000E-01  8.50000000E-01
  8.50000000E-01  8.00000000E-01  8.50000000E-01  8.50000000E-01  8.50000000E-01
  8.00000000E-01  8.50000000E-01  8.50000000E-01  8.50000000E-01  8.00000000E-01
  8.50000000E-01  8.50000000E-01  8.50000000E-01  8.00000000E-01  8.50000000E-01
  8.50000000E-01  8.50000000E-01  8.00000000E-01  8.50000000E-01  8.50000000E-01
  8.50000000E-01  8.00000000E-01  8.50000000E-01  8.50000000E-01  8.50000000E-01
  8.00000000E-01  8.50000000E-01  8.50000000E-01  8.50000000E-01  8.00000000E-01
  8.50000000E-01  8.50000000E-01  8.50000000E-01  8.00000000E-01  8.50000000E-01
  8.50000000E-01  8.50000000E-01  8.00000000E-01  8.50000000E-01  8.50000000E-01
  8.50000000E-01  8.00000000E-01  8.50000000E-01  8.50000000E-01  8.50000000E-01
  8.00000000E-01  8.50000000E-01  8.50000000E-01  8.50000000E-01  8.00000000E-01
  8.50000000E-01  8.50000000E-01  8.50000000E-01  8.00000000E-01  8.50000000E-01
  8.50000000E-01  8.50000000E-01  8.00000000E-01  8.50000000E-01  8.50000000E-01
  8.50000000E-01  8.00000000E-01  8.50000000E-01  8.50000000E-01  8.50000000E-01
  8.00000000E-01  8.50000000E-01  8.50000000E-01  8.50000000E-01  8.00000000E-01
  8.50000000E-01  8.50000000E-01  8.50000000E-01  8.00000000E-01  8.50000000E-01
  8.50000000E-01  8.50000000E-01  8.00000000E-01  8.50000000E-01  8.50000000E-01
  8.50000000E-01  8.00000000E-01  8.50000000E-01  8.50000000E-01  8.50000000E-01
  8.00000000E-01  8.50000000E-01  8.50000000E-01  8.50000000E-01  8.00000000E-01
  8.50000000E-01  8.50000000E-01  8.50000000E-01  8.00000000E-01  8.50000000E-01
  8.50000000E-01  8.50000000E-01  8.00000000E-01  8.50000000E-01  8.50000000E-01
  8.50000000E-01  8.00000000E-01  8.50000000E-01  8.50000000E-01  8.50000000E-01
  8.00000000E-01  8.50000000E-01  8.50000000E-01  8.50000000E-01  8.00000000E-01
  8.50000000E-01  8.50000000E-01  8.50000000E-01  8.00000000E-01  8.50000000E-01
  8.50000000E-01  8.50000000E-01  8.00000000E-01  8.50000000E-01  8.50000000E-01
  8.50000000E-01  8.00000000E-01  8.50000000E-01  8.50000000E-01  8.50000000E-01
  8.00000000E-01  8.50000000E-01  8.50000000E-01  8.50000000E-01  8.00000000E-01
  8.50000000E-01  8.50000000E-01  8.50000000E-01  8.00000000E-01  8.50000000E-01
  8.50000000E-01  8.50000000E-01  8.00000000E-01  8.50000000E-01  8.50000000E-01
  8.50000000E-01  8.00000000E-01  8.50000000E-01  8.50000000E-01  8.50000000E-01
  8.00000000E-01  8.50000000E-01  8.50000000E-01  8.50000000E-01  8.00000000E-01
  8.50000000E-01  8.50000000E-01  8.50000000E-01  8.00000000E-01  8.50000000E-01
  8.50000000E-01  8.50000000E-01  8.00000000E-01  8.50000000E-01  8.50000000E-01
  8.50000000E-01  8.00000000E-01  8.50000000E-01  8.50000000E-01  8.50000000E-01
  8.00000000E-01  8.50000000E-01  8.50000000E-01  8.50000000E-01  8.00000000E-01
  8.50000000E-01  8.50000000E-01  8.50000000E-01  8.00000000E-01  8.50000000E-01
  8.50000000E-01  8.50000000E-01  8.00000000E-01  8.50000000E-01  8.50000000E-01
  8.50000000E-01  8.00000000E-01  8.50000000E-01  8.50000000E-01  8.50000000E-01
  8.00000000E-01  8.50000000E-01  8.50000000E-01  8.50000000E-01  8.00000000E-01
  8.50000000E-01  8.50000000E-01  8.50000000E-01  8.00000000E-01  8.50000000E-01
  8.50000000E-01  8.50000000E-01  8.00000000E-01  8.50000000E-01  8.50000000E-01
  8.50000000E-01  8.00000000E-01  8.50000000E-01  8.50000000E-01  8.50000000E-01
  8.00000000E-01  8.50000000E-01  8.50000000E-01  8.50000000E-01  8.00000000E-01
  8.50000000E-01  8.50000000E-01  8.50000000E-01  8.00000000E-01  8.50000000E-01
  8.50000000E-01  8.50000000E-01  8.00000000E-01  8.50000000E-01  8.50000000E-01
  8.50000000E-01  8.00000000E-01  8.50000000E-01  8.50000000E-01  8.50000000E-01
  8.00000000E-01  8.50000000E-01  8.50000000E-01  8.50000000E-01  8.00000000E-01
  8.50000000E-01  8.50000000E-01  8.50000000E-01  8.00000000E-01  8.50000000E-01
  8.50000000E-01  8.50000000E-01  8.00000000E-01  8.50000000E-01  8.50000000E-01
  8.50000000E-01  8.00000000E-01  8.50000000E-01  8.50000000E-01  8.50000000E-01
  8.00000000E-01  8.50000000E-01  8.50000000E-01  8.50000000E-01  8.00000000E-01
  8.50000000E-01  8.50000000E-01  8.50000000E-01  8.00000000E-01  8.50000000E-01
  8.50000000E-01  8.50000000E-01  8.00000000E-01  8.50000000E-01  8.50000000E-01
  8.50000000E-01  8.00000000E-01  8.50000000E-01  8.50000000E-01  8.50000000E-01
  8.00000000E-01  8.50000000E-01  8.50000000E-01  8.50000000E-01  8.00000000E-01
  8.50000000E-01  8.50000000E-01  8.50000000E-01  8.00000000E-01  8.50000000E-01
  8.50000000E-01  8.50000000E-01  8.00000000E-01  8.50000000E-01  8.50000000E-01
  8.50000000E-01  8.00000000E-01  8.50000000E-01  8.50000000E-01  8.50000000E-01
  8.00000000E-01  8.50000000E-01  8.50000000E-01  8.50000000E-01  8.00000000E-01
  8.50000000E-01  8.50000000E-01  8.50000000E-01  8.00000000E-01  8.50000000E-01
  8.50000000E-01  8.50000000E-01  8.00000000E-01  8.50000000E-01  8.50000000E-01
  8.50000000E-01  8.00000000E-01  8.50000000E-01  8.50000000E-01  8.50000000E-01
  8.00000000E-01  8.50000000E-01  8.50000000E-01  8.50000000E-01  8.00000000E-01
  8.50000000E-01  8.50000000E-01  8.50000000E-01  8.00000000E-01  8.50000000E-01
  8.50000000E-01  8.50000000E-01  8.00000000E-01  8.50000000E-01  8.50000000E-01
  8.50000000E-01  8.00000000E-01  8.50000000E-01  8.50000000E-01  8.50000000E-01
  8.00000000E-01  8.50000000E-01  8.50000000E-01  8.50000000E-01  8.00000000E-01
  8.50000000E-01  8.50000000E-01  8.50000000E-01  8.00000000E-01  8.50000000E-01
  8.50000000E-01  8.50000000E-01  8.00000000E-01  8.50000000E-01  8.50000000E-01
  8.50000000E-01  8.00000000E-01  8.50000000E-01  8.50000000E-01  8.50000000E-01
  8.00000000E-01  8.50000000E-01  8.50000000E-01  8.50000000E-01  8.00000000E-01
  8.50000000E-01  8.50000000E-01  8.50000000E-01  8.00000000E-01  8.50000000E-01
  8.50000000E-01  8.50000000E-01  8.00000000E-01  8.50000000E-01  8.50000000E-01
  8.50000000E-01  8.00000000E-01  8.50000000E-01  8.50000000E-01  8.50000000E-01
  8.00000000E-01  8.50000000E-01  8.50000000E-01  8.50000000E-01  8.00000000E-01
  8.50000000E-01  8.50000000E-01  8.50000000E-01  8.00000000E-01  8.50000000E-01
  8.50000000E-01  8.50000000E-01  8.00000000E-01  8.50000000E-01  8.50000000E-01
  8.50000000E-01  8.00000000E-01  8.50000000E-01  8.50000000E-01  8.50000000E-01
  8.00000000E-01  8.50000000E-01  8.50000000E-01  8.50000000E-01  8.00000000E-01
  8.50000000E-01  8.50000000E-01  8.50000000E-01  8.00000000E-01  8.50000000E-01
  8.50000000E-01  8.50000000E-01  8.00000000E-01  8.50000000E-01  8.50000000E-01
  8.50000000E-01  8.00000000E-01  8.50000000E-01  8.50000000E-01  8.50000000E-01
  8.00000000E-01  8.50000000E-01  8.50000000E-01  8.50000000E-01  8.00000000E-01
  8.50000000E-01  8.50000000E-01  8.50000000E-01  8.00000000E-01  8.50000000E-01
  8.50000000E-01  8.50000000E-01  8.00000000E-01  8.50000000E-01  8.50000000E-01
  8.50000000E-01  8.00000000E-01  8.50000000E-01  8.50000000E-01  8.50000000E-01
  8.00000000E-01  8.50000000E-01  8.50000000E-01  8.50000000E-01  8.00000000E-01
  8.50000000E-01  8.50000000E-01  8.50000000E-01  8.00000000E-01  8.50000000E-01
  8.50000000E-01  8.50000000E-01  8.00000000E-01  8.50000000E-01  8.50000000E-01
  8.50000000E-01  8.00000000E-01  8.50000000E-01  8.50000000E-01  8.50000000E-01
  8.00000000E-01  8.50000000E-01  8.50000000E-01  8.50000000E-01  8.00000000E-01
  8.50000000E-01  8.50000000E-01  8.50000000E-01  8.00000000E-01  8.50000000E-01
  8.50000000E-01  8.50000000E-01  8.00000000E-01  8.50000000E-01  8.50000000E-01
  8.50000000E-01  8.00000000E-01  8.50000000E-01  8.50000000E-01  8.50000000E-01
  8.00000000E-01  8.50000000E-01  8.50000000E-01  8.50000000E-01  8.00000000E-01
  8.50000000E-01  8.50000000E-01  8.50000000E-01  8.00000000E-01  8.50000000E-01
  8.50000000E-01  8.50000000E-01  8.00000000E-01  8.50000000E-01  8.50000000E-01
  8.50000000E-01  8.00000000E-01  8.50000000E-01  8.50000000E-01  8.50000000E-01
  8.00000000E-01  8.50000000E-01  8.50000000E-01  8.50000000E-01  8.00000000E-01
  8.50000000E-01  8.50000000E-01  8.50000000E-01  8.00000000E-01  8.50000000E-01
  8.50000000E-01  8.50000000E-01  8.00000000E-01  8.50000000E-01  8.50000000E-01
  8.50000000E-01  8.00000000E-01  8.50000000E-01  8.50000000E-01  8.50000000E-01
  8.00000000E-01  8.50000000E-01  8.50000000E-01  8.50000000E-01  8.00000000E-01
  8.50000000E-01  8.50000000E-01  8.50000000E-01  8.00000000E-01  8.50000000E-01
  8.50000000E-01  8.50000000E-01  8.00000000E-01  8.50000000E-01  8.50000000E-01
  8.50000000E-01  8.00000000E-01  8.50000000E-01  8.50000000E-01  8.50000000E-01
  8.00000000E-01  8.50000000E-01  8.50000000E-01  8.50000000E-01  8.00000000E-01
  8.50000000E-01  8.50000000E-01  8.50000000E-01  8.00000000E-01  8.50000000E-01
  8.50000000E-01  8.50000000E-01  8.00000000E-01  8.50000000E-01  8.50000000E-01
  8.50000000E-01  8.00000000E-01  8.50000000E-01  8.50000000E-01  8.50000000E-01
  8.00000000E-01  8.50000000E-01  8.50000000E-01  8.50000000E-01  8.00000000E-01
  8.50000000E-01  8.50000000E-01  8.50000000E-01  8.00000000E-01  8.50000000E-01
  8.50000000E-01  8.50000000E-01  8.00000000E-01  8.50000000E-01  8.50000000E-01
  8.50000000E-01  8.00000000E-01  8.50000000E-01  8.50000000E-01  8.50000000E-01
  8.00000000E-01  8.50000000E-01  8.50000000E-01  8.50000000E-01  8.00000000E-01
  8.50000000E-01  8.50000000E-01  8.50000000E-01  8.00000000E-01  8.50000000E-01
  8.50000000E-01  8.50000000E-01  8.00000000E-01  8.50000000E-01  8.50000000E-01
  8.50000000E-01  8.00000000E-01  8.50000000E-01  8.50000000E-01  8.50000000E-01
  8.00000000E-01  8.50000000E-01  8.50000000E-01  8.50000000E-01  8.00000000E-01
  8.50000000E-01  8.50000000E-01  8.50000000E-01  8.00000000E-01  8.50000000E-01
  8.50000000E-01  8.50000000E-01  8.00000000E-01  8.50000000E-01  8.50000000E-01
  8.50000000E-01  8.00000000E-01  8.50000000E-01  8.50000000E-01  8.50000000E-01
  8.00000000E-01  8.50000000E-01  8.50000000E-01  8.50000000E-01  8.00000000E-01
  8.50000000E-01  8.50000000E-01  8.50000000E-01  8.00000000E-01  8.50000000E-01
  8.50000000E-01  8.50000000E-01  8.00000000E-01  8.50000000E-01  8.50000000E-01
  8.50000000E-01  8.00000000E-01  8.50000000E-01  8.50000000E-01  8.50000000E-01
  8.00000000E-01  8.50000000E-01  8.50000000E-01  8.50000000E-01  8.00000000E-01
  8.50000000E-01  8.50000000E-01  8.50000000E-01  8.00000000E-01  8.50000000E-01
  8.50000000E-01  8.50000000E-01  8.00000000E-01  8.50000000E-01  8.50000000E-01
  8.50000000E-01  8.00000000E-01  8.50000000E-01  8.50000000E-01  8.50000000E-01
  8.00000000E-01  8.50000000E-01  8.50000000E-01  8.50000000E-01  8.00000000E-01
  8.50000000E-01  8.50000000E-01  8.50000000E-01  8.00000000E-01  8.50000000E-01
  8.50000000E-01  8.50000000E-01  8.00000000E-01  8.50000000E-01  8.50000000E-01
  8.50000000E-01  8.00000000E-01  8.50000000E-01  8.50000000E-01  8.50000000E-01
  8.00000000E-01  8.50000000E-01  8.50000000E-01  8.50000000E-01  8.00000000E-01
  8.50000000E-01  8.50000000E-01  8.50000000E-01  8.00000000E-01  8.50000000E-01
  8.50000000E-01  8.50000000E-01  8.00000000E-01  8.50000000E-01  8.50000000E-01
  8.50000000E-01  8.00000000E-01  8.50000000E-01  8.50000000E-01  8.50000000E-01
  8.00000000E-01  8.50000000E-01  8.50000000E-01  8.50000000E-01  8.00000000E-01
  8.50000000E-01  8.50000000E-01  8.50000000E-01  8.00000000E-01  8.50000000E-01
  8.50000000E-01  8.50000000E-01  8.00000000E-01  8.50000000E-01  8.50000000E-01
  8.50000000E-01  8.00000000E-01  8.50000000E-01  8.50000000E-01  8.50000000E-01
  8.00000000E-01  8.50000000E-01  8.50000000E-01  8.50000000E-01  8.00000000E-01
  8.50000000E-01  8.50000000E-01  8.50000000E-01  8.00000000E-01  8.50000000E-01
  8.50000000E-01  8.50000000E-01  8.00000000E-01  8.50000000E-01  8.50000000E-01
  8.50000000E-01  8.00000000E-01  8.50000000E-01  8.50000000E-01  8.50000000E-01
  8.00000000E-01  8.50000000E-01  8.50000000E-01  8.50000000E-01  8.00000000E-01
  8.50000000E-01  8.50000000E-01  8.50000000E-01  8.00000000E-01  8.50000000E-01
  8.50000000E-01  8.50000000E-01  8.00000000E-01  8.50000000E-01  8.50000000E-01
  8.50000000E-01  8.00000000E-01  8.50000000E-01  8.50000000E-01  8.50000000E-01
  8.00000000E-01  8.50000000E-01  8.50000000E-01  8.50000000E-01  8.00000000E-01
  8.50000000E-01  8.50000000E-01  8.50000000E-01  8.00000000E-01  8.50000000E-01
  8.50000000E-01  8.50000000E-01  8.00000000E-01  8.50000000E-01  8.50000000E-01
  8.50000000E-01  8.00000000E-01  8.50000000E-01  8.50000000E-01  8.50000000E-01
  8.00000000E-01  8.50000000E-01  8.50000000E-01  8.50000000E-01  8.00000000E-01
  8.50000000E-01  8.50000000E-01  8.50000000E-01  8.00000000E-01  8.50000000E-01
  8.50000000E-01  8.50000000E-01  8.00000000E-01  8.50000000E-01  8.50000000E-01
  8.50000000E-01  8.00000000E-01  8.50000000E-01  8.50000000E-01  8.50000000E-01
  8.00000000E-01  8.50000000E-01  8.50000000E-01  8.50000000E-01  8.00000000E-01
  8.50000000E-01  8.50000000E-01  8.50000000E-01  8.00000000E-01  8.50000000E-01
  8.50000000E-01  8.50000000E-01  8.00000000E-01  8.50000000E-01  8.50000000E-01
  8.50000000E-01  8.00000000E-01  8.50000000E-01  8.50000000E-01  8.50000000E-01
  8.00000000E-01  8.50000000E-01  8.50000000E-01  8.50000000E-01  8.00000000E-01
  8.50000000E-01  8.50000000E-01  8.50000000E-01  8.00000000E-01  8.50000000E-01
  8.50000000E-01  8.50000000E-01  8.00000000E-01  8.50000000E-01  8.50000000E-01
  8.50000000E-01  8.00000000E-01  8.50000000E-01  8.50000000E-01  8.50000000E-01
  8.00000000E-01  8.50000000E-01  8.50000000E-01  8.50000000E-01  8.00000000E-01
  8.50000000E-01  8.50000000E-01  8.50000000E-01  8.00000000E-01  8.50000000E-01
  8.50000000E-01  8.50000000E-01  8.00000000E-01  8.50000000E-01  8.50000000E-01
  8.50000000E-01  8.00000000E-01  8.50000000E-01  8.50000000E-01  8.50000000E-01
  8.00000000E-01  8.50000000E-01  8.50000000E-01  8.50000000E-01  8.00000000E-01
  8.50000000E-01  8.50000000E-01  8.50000000E-01  8.00000000E-01  8.50000000E-01
  8.50000000E-01  8.50000000E-01  8.00000000E-01  8.50000000E-01  8.50000000E-01
  8.50000000E-01  8.00000000E-01  8.50000000E-01  8.50000000E-01  8.50000000E-01
  8.00000000E-01  8.50000000E-01  8.50000000E-01  8.50000000E-01  8.00000000E-01
  8.50000000E-01  8.50000000E-01  8.50000000E-01  8.00000000E-01  8.50000000E-01
  8.50000000E-01  8.50000000E-01  8.00000000E-01  8.50000000E-01  8.50000000E-01
  8.50000000E-01  8.00000000E-01  8.50000000E-01  8.50000000E-01  8.50000000E-01
  8.00000000E-01  8.50000000E-01  8.50000000E-01  8.50000000E-01  8.00000000E-01
  8.50000000E-01  8.50000000E-01  8.50000000E-01  8.00000000E-01  8.50000000E-01
  8.50000000E-01  8.50000000E-01  8.00000000E-01  8.50000000E-01  8.50000000E-01
  8.50000000E-01  8.00000000E-01  8.50000000E-01  8.50000000E-01  8.50000000E-01
  8.00000000E-01  8.50000000E-01  8.50000000E-01  8.50000000E-01  8.00000000E-01
  8.50000000E-01  8.50000000E-01  8.50000000E-01  8.00000000E-01  8.50000000E-01
  8.50000000E-01  8.50000000E-01  8.00000000E-01  8.50000000E-01  8.50000000E-01
  8.50000000E-01  8.00000000E-01  8.50000000E-01  8.50000000E-01  8.50000000E-01
  8.00000000E-01  8.50000000E-01  8.50000000E-01  8.50000000E-01  8.00000000E-01
  8.50000000E-01  8.50000000E-01  8.50000000E-01  8.00000000E-01  8.50000000E-01
  8.50000000E-01  8.50000000E-01  8.00000000E-01  8.50000000E-01  8.50000000E-01
  8.50000000E-01  8.00000000E-01  8.50000000E-01  8.50000000E-01  8.50000000E-01
  8.00000000E-01  8.50000000E-01  8.50000000E-01  8.50000000E-01  8.00000000E-01
  8.50000000E-01  8.50000000E-01  8.50000000E-01  8.00000000E-01  8.50000000E-01
  8.50000000E-01  8.50000000E-01  8.00000000E-01  8.50000000E-01  8.50000000E-01
  8.50000000E-01  8.00000000E-01  8.50000000E-01  8.50000000E-01  8.50000000E-01
  8.00000000E-01  8.50000000E-01  8.50000000E-01  8.50000000E-01  8.00000000E-01
  8.50000000E-01  8.50000000E-01  8.50000000E-01  8.00000000E-01  8.50000000E-01
  8.50000000E-01  8.50000000E-01  8.00000000E-01  8.50000000E-01  8.50000000E-01
  8.50000000E-01  8.00000000E-01  8.50000000E-01  8.50000000E-01  8.50000000E-01
  8.00000000E-01  8.50000000E-01  8.50000000E-01  8.50000000E-01  8.00000000E-01
  8.50000000E-01  8.50000000E-01  8.50000000E-01  8.00000000E-01  8.50000000E-01
  8.50000000E-01  8.50000000E-01  8.00000000E-01  8.50000000E-01  8.50000000E-01
  8.50000000E-01  8.00000000E-01  8.50000000E-01  8.50000000E-01  8.50000000E-01
  8.00000000E-01  8.50000000E-01  8.50000000E-01  8.50000000E-01  8.00000000E-01
  8.50000000E-01  8.50000000E-01  8.50000000E-01  8.00000000E-01  8.50000000E-01
  8.50000000E-01  8.50000000E-01  8.00000000E-01  8.50000000E-01  8.50000000E-01
  8.50000000E-01  8.00000000E-01  8.50000000E-01  8.50000000E-01  8.50000000E-01
  8.00000000E-01  8.50000000E-01  8.50000000E-01  8.50000000E-01  8.00000000E-01
  8.50000000E-01  8.50000000E-01  8.50000000E-01  8.00000000E-01  8.50000000E-01
  8.50000000E-01  8.50000000E-01  8.00000000E-01  8.50000000E-01  8.50000000E-01
  8.50000000E-01  8.00000000E-01  8.50000000E-01  8.50000000E-01  8.50000000E-01
  8.00000000E-01  8.50000000E-01  8.50000000E-01  8.50000000E-01  8.00000000E-01
  8.50000000E-01  8.50000000E-01  8.50000000E-01  8.00000000E-01  8.50000000E-01
  8.50000000E-01  8.50000000E-01  8.00000000E-01  8.50000000E-01  8.50000000E-01
  8.50000000E-01  8.00000000E-01  8.50000000E-01  8.50000000E-01  8.50000000E-01
  8.00000000E-01  8.50000000E-01  8.50000000E-01  8.50000000E-01  8.00000000E-01
  8.50000000E-01  8.50000000E-01  8.50000000E-01  8.00000000E-01  8.50000000E-01
  8.50000000E-01  8.50000000E-01  8.00000000E-01  8.50000000E-01  8.50000000E-01
  8.50000000E-01  8.00000000E-01  8.50000000E-01  8.50000000E-01  8.50000000E-01
  8.00000000E-01  8.50000000E-01  8.50000000E-01  8.50000000E-01  8.00000000E-01
  8.50000000E-01  8.50000000E-01  8.50000000E-01  8.00000000E-01  8.50000000E-01
  8.50000000E-01  8.50000000E-01  8.00000000E-01  8.50000000E-01  8.50000000E-01
  8.50000000E-01  8.00000000E-01  8.50000000E-01  8.50000000E-01  8.50000000E-01
  8.00000000E-01  8.50000000E-01  8.50000000E-01  8.50000000E-01  8.00000000E-01
  8.50000000E-01  8.50000000E-01  8.50000000E-01  8.00000000E-01  8.50000000E-01
  8.50000000E-01  8.50000000E-01  8.00000000E-01  8.50000000E-01  8.50000000E-01
  8.50000000E-01  8.00000000E-01  8.50000000E-01  8.50000000E-01  8.50000000E-01
  8.00000000E-01  8.50000000E-01  8.50000000E-01  8.50000000E-01  8.00000000E-01
  8.50000000E-01  8.50000000E-01  8.50000000E-01  8.00000000E-01  8.50000000E-01
  8.50000000E-01  8.50000000E-01  8.00000000E-01  8.50000000E-01  8.50000000E-01
  8.50000000E-01  8.00000000E-01  8.50000000E-01  8.50000000E-01  8.50000000E-01
  8.00000000E-01  8.50000000E-01  8.50000000E-01  8.50000000E-01  8.00000000E-01
  8.50000000E-01  8.50000000E-01  8.50000000E-01  8.00000000E-01  8.50000000E-01
  8.50000000E-01  8.50000000E-01  8.00000000E-01  8.50000000E-01  8.50000000E-01
  8.50000000E-01  8.00000000E-01  8.50000000E-01  8.50000000E-01  8.50000000E-01
  8.00000000E-01  8.50000000E-01  8.50000000E-01  8.50000000E-01  8.00000000E-01
  8.50000000E-01  8.50000000E-01  8.50000000E-01  8.00000000E-01  8.50000000E-01
  8.50000000E-01  8.50000000E-01  8.00000000E-01  8.50000000E-01  8.50000000E-01
  8.50000000E-01  8.00000000E-01  8.50000000E-01  8.50000000E-01  8.50000000E-01
  8.00000000E-01  8.50000000E-01  8.50000000E-01  8.50000000E-01  8.00000000E-01
  8.50000000E-01  8.50000000E-01  8.50000000E-01  8.00000000E-01  8.50000000E-01
  8.50000000E-01  8.50000000E-01  8.00000000E-01  8.50000000E-01  8.50000000E-01
  8.50000000E-01  8.00000000E-01  8.50000000E-01  8.50000000E-01  8.50000000E-01
  8.00000000E-01  8.50000000E-01  8.50000000E-01  8.50000000E-01  8.00000000E-01
  8.50000000E-01  8.50000000E-01  8.50000000E-01  8.00000000E-01  8.50000000E-01
  8.50000000E-01  8.50000000E-01  8.00000000E-01  8.50000000E-01  8.50000000E-01
  8.50000000E-01  8.00000000E-01  8.50000000E-01  8.50000000E-01  8.50000000E-01
  8.00000000E-01  8.50000000E-01  8.50000000E-01  8.50000000E-01  8.00000000E-01
  8.50000000E-01  8.50000000E-01  8.50000000E-01  8.00000000E-01  8.50000000E-01
  8.50000000E-01  8.50000000E-01  8.00000000E-01  8.50000000E-01  8.50000000E-01
  8.50000000E-01  8.00000000E-01  8.50000000E-01  8.50000000E-01  8.50000000E-01
  8.00000000E-01  8.50000000E-01  8.50000000E-01  8.50000000E-01  8.00000000E-01
  8.50000000E-01  8.50000000E-01  8.50000000E-01  8.00000000E-01  8.50000000E-01
  8.50000000E-01  8.50000000E-01  8.00000000E-01  8.50000000E-01  8.50000000E-01
  8.50000000E-01  8.00000000E-01  8.50000000E-01  8.50000000E-01  8.50000000E-01
  8.00000000E-01  8.50000000E-01  8.50000000E-01  8.50000000E-01  8.00000000E-01
  8.50000000E-01  8.50000000E-01  8.50000000E-01  8.00000000E-01  8.50000000E-01
  8.50000000E-01  8.50000000E-01  8.00000000E-01  8.50000000E-01  8.50000000E-01
  8.50000000E-01  8.00000000E-01  8.50000000E-01  8.50000000E-01  8.50000000E-01
  8.00000000E-01  8.50000000E-01  8.50000000E-01  8.50000000E-01  8.00000000E-01
  8.50000000E-01  8.50000000E-01  8.50000000E-01  8.00000000E-01  8.50000000E-01
  8.50000000E-01  8.50000000E-01  8.00000000E-01  8.50000000E-01  8.50000000E-01
  8.50000000E-01  8.00000000E-01  8.50000000E-01  8.50000000E-01  8.50000000E-01
  8.00000000E-01  8.50000000E-01  8.50000000E-01  8.50000000E-01  8.00000000E-01
  8.50000000E-01  8.50000000E-01  8.50000000E-01  8.00000000E-01  8.50000000E-01
  8.50000000E-01  8.50000000E-01  8.00000000E-01  8.50000000E-01  8.50000000E-01
  8.50000000E-01  8.00000000E-01  8.50000000E-01  8.50000000E-01  8.50000000E-01
  8.00000000E-01  8.50000000E-01  8.50000000E-01  8.50000000E-01  8.00000000E-01
  8.50000000E-01  8.50000000E-01  8.50000000E-01  8.00000000E-01  8.50000000E-01
  8.50000000E-01  8.50000000E-01  8.00000000E-01  8.50000000E-01  8.50000000E-01
  8.50000000E-01  8.00000000E-01  8.50000000E-01  8.50000000E-01  8.50000000E-01
  8.00000000E-01  8.50000000E-01  8.50000000E-01  8.50000000E-01  8.00000000E-01
  8.50000000E-01  8.50000000E-01  8.50000000E-01  8.00000000E-01  8.50000000E-01
  8.50000000E-01  8.50000000E-01  8.00000000E-01  8.50000000E-01  8.50000000E-01
  8.50000000E-01  8.00000000E-01  8.50000000E-01  8.50000000E-01  8.50000000E-01
  8.00000000E-01  8.50000000E-01  8.50000000E-01  8.50000000E-01  8.00000000E-01
  8.50000000E-01  8.50000000E-01  8.50000000E-01  8.00000000E-01  8.50000000E-01
  8.50000000E-01  8.50000000E-01  8.00000000E-01  8.50000000E-01  8.50000000E-01
  8.50000000E-01  8.00000000E-01  8.50000000E-01  8.50000000E-01  8.50000000E-01
  8.00000000E-01  8.50000000E-01  8.50000000E-01  8.50000000E-01  8.00000000E-01
  8.50000000E-01  8.50000000E-01  8.50000000E-01  8.00000000E-01  8.50000000E-01
  8.50000000E-01  8.50000000E-01  8.00000000E-01  8.50000000E-01  8.50000000E-01
  8.50000000E-01  8.00000000E-01  8.50000000E-01  8.50000000E-01  8.50000000E-01
  8.00000000E-01  8.50000000E-01  8.50000000E-01  8.50000000E-01  8.00000000E-01
  8.50000000E-01  8.50000000E-01  8.50000000E-01  8.00000000E-01  8.50000000E-01
  8.50000000E-01  8.50000000E-01  8.00000000E-01  8.50000000E-01  8.50000000E-01
  8.50000000E-01  8.00000000E-01  8.50000000E-01  8.50000000E-01  8.50000000E-01
  8.00000000E-01  8.50000000E-01  8.50000000E-01  8.50000000E-01  8.00000000E-01
  8.50000000E-01  8.50000000E-01  8.50000000E-01  8.00000000E-01  8.50000000E-01
  8.50000000E-01  8.50000000E-01  8.00000000E-01  8.50000000E-01  8.50000000E-01
  8.50000000E-01  8.00000000E-01  8.50000000E-01  8.50000000E-01  8.50000000E-01
  8.00000000E-01  8.50000000E-01  8.50000000E-01  8.50000000E-01  8.00000000E-01
  8.50000000E-01  8.50000000E-01  8.50000000E-01  8.00000000E-01  8.50000000E-01
  8.50000000E-01  8.50000000E-01  8.00000000E-01  8.50000000E-01  8.50000000E-01
  8.50000000E-01  8.00000000E-01  8.50000000E-01  8.50000000E-01  8.50000000E-01
  8.00000000E-01  8.50000000E-01  8.50000000E-01  8.50000000E-01  8.00000000E-01
  8.50000000E-01  8.50000000E-01  8.50000000E-01  8.00000000E-01  8.50000000E-01
  8.50000000E-01  8.50000000E-01  8.00000000E-01  8.50000000E-01  8.50000000E-01
  8.50000000E-01  8.00000000E-01  8.50000000E-01  8.50000000E-01  8.50000000E-01
  8.00000000E-01  8.50000000E-01  8.50000000E-01  8.50000000E-01  8.00000000E-01
  8.50000000E-01  8.50000000E-01  8.50000000E-01  8.00000000E-01  8.50000000E-01
  8.50000000E-01  8.50000000E-01  8.00000000E-01  8.50000000E-01  8.50000000E-01
  8.50000000E-01  8.00000000E-01  8.50000000E-01  8.50000000E-01  8.50000000E-01
  8.00000000E-01  8.50000000E-01  8.50000000E-01  8.50000000E-01  8.00000000E-01
  8.50000000E-01  8.50000000E-01  8.50000000E-01  8.00000000E-01  8.50000000E-01
  8.50000000E-01  8.50000000E-01  8.00000000E-01  8.50000000E-01  8.50000000E-01
  8.50000000E-01  8.00000000E-01  8.50000000E-01  8.50000000E-01  8.50000000E-01
  8.00000000E-01  8.50000000E-01  8.50000000E-01  8.50000000E-01  8.00000000E-01
  8.50000000E-01  8.50000000E-01  8.50000000E-01  8.00000000E-01  8.50000000E-01
  8.50000000E-01  8.50000000E-01  8.00000000E-01  8.50000000E-01  8.50000000E-01
  8.50000000E-01  8.00000000E-01  8.50000000E-01  8.50000000E-01  8.50000000E-01
  8.00000000E-01  8.50000000E-01  8.50000000E-01  8.50000000E-01  8.00000000E-01
  8.50000000E-01  8.50000000E-01  8.50000000E-01  8.00000000E-01  8.50000000E-01
  8.50000000E-01  8.50000000E-01  8.00000000E-01  8.50000000E-01  8.50000000E-01
  8.50000000E-01  8.00000000E-01  8.50000000E-01  8.50000000E-01  8.50000000E-01
  8.00000000E-01  8.50000000E-01  8.50000000E-01  8.50000000E-01  8.00000000E-01
  8.50000000E-01  8.50000000E-01  8.50000000E-01  8.00000000E-01  8.50000000E-01
  8.50000000E-01  8.50000000E-01  8.00000000E-01  8.50000000E-01  8.50000000E-01
  8.50000000E-01  8.00000000E-01  8.50000000E-01  8.50000000E-01  8.50000000E-01
  8.00000000E-01  8.50000000E-01  8.50000000E-01  8.50000000E-01  8.00000000E-01
  8.50000000E-01  8.50000000E-01  8.50000000E-01  8.00000000E-01  8.50000000E-01
  8.50000000E-01  8.50000000E-01  8.00000000E-01  8.50000000E-01  8.50000000E-01
  8.50000000E-01  8.00000000E-01  8.50000000E-01  8.50000000E-01  8.50000000E-01
  8.00000000E-01  8.50000000E-01  8.50000000E-01  8.50000000E-01  8.00000000E-01
  8.50000000E-01  8.50000000E-01  8.50000000E-01  8.00000000E-01  8.50000000E-01
  8.50000000E-01  8.50000000E-01  8.00000000E-01  8.50000000E-01  8.50000000E-01
  8.50000000E-01  8.00000000E-01  8.50000000E-01  8.50000000E-01  8.50000000E-01
  8.00000000E-01  8.50000000E-01  8.50000000E-01  8.50000000E-01  8.00000000E-01
  8.50000000E-01  8.50000000E-01  8.50000000E-01  8.00000000E-01  8.50000000E-01
  8.50000000E-01  8.50000000E-01  8.00000000E-01  8.50000000E-01  8.50000000E-01
  8.50000000E-01  8.00000000E-01  8.50000000E-01  8.50000000E-01  8.50000000E-01
  8.00000000E-01  8.50000000E-01  8.50000000E-01  8.50000000E-01  8.00000000E-01
  8.50000000E-01  8.50000000E-01  8.50000000E-01  8.00000000E-01  8.50000000E-01
  8.50000000E-01  8.50000000E-01  8.00000000E-01  8.50000000E-01  8.50000000E-01
  8.50000000E-01  8.00000000E-01  8.50000000E-01  8.50000000E-01  8.50000000E-01
  8.00000000E-01  8.50000000E-01  8.50000000E-01  8.50000000E-01  8.00000000E-01
  8.50000000E-01  8.50000000E-01  8.50000000E-01  8.00000000E-01  8.50000000E-01
  8.50000000E-01  8.50000000E-01  8.00000000E-01  8.50000000E-01  8.50000000E-01
  8.50000000E-01  8.00000000E-01  8.50000000E-01  8.50000000E-01  8.50000000E-01
  8.00000000E-01  8.50000000E-01  8.50000000E-01  8.50000000E-01  8.00000000E-01
  8.50000000E-01  8.50000000E-01  8.50000000E-01  8.00000000E-01  8.50000000E-01
  8.50000000E-01  8.50000000E-01  8.00000000E-01  8.50000000E-01  8.50000000E-01
  8.50000000E-01  8.00000000E-01  8.50000000E-01  8.50000000E-01  8.50000000E-01
  8.00000000E-01  8.50000000E-01  8.50000000E-01  8.50000000E-01  8.00000000E-01
  8.50000000E-01  8.50000000E-01  8.50000000E-01  8.00000000E-01  8.50000000E-01
  8.50000000E-01  8.50000000E-01  8.00000000E-01  8.50000000E-01  8.50000000E-01
  8.50000000E-01  8.00000000E-01  8.50000000E-01  8.50000000E-01  8.50000000E-01
  8.00000000E-01  8.50000000E-01  8.50000000E-01  8.50000000E-01  8.00000000E-01
  8.50000000E-01  8.50000000E-01  8.50000000E-01  8.00000000E-01  8.50000000E-01
  8.50000000E-01  8.50000000E-01  8.00000000E-01  8.50000000E-01  8.50000000E-01
  8.50000000E-01  8.00000000E-01  8.50000000E-01  8.50000000E-01  8.50000000E-01
  8.00000000E-01  8.50000000E-01  8.50000000E-01  8.50000000E-01  8.00000000E-01
  8.50000000E-01  8.50000000E-01  8.50000000E-01  8.00000000E-01  8.50000000E-01
  8.50000000E-01  8.50000000E-01  8.00000000E-01  8.50000000E-01  8.50000000E-01
  8.50000000E-01  8.00000000E-01  8.50000000E-01  8.50000000E-01  8.50000000E-01
  8.00000000E-01  8.50000000E-01  8.50000000E-01  8.50000000E-01  8.00000000E-01
  8.50000000E-01  8.50000000E-01  8.50000000E-01  8.00000000E-01  8.50000000E-01
  8.50000000E-01  8.50000000E-01  8.00000000E-01  8.50000000E-01  8.50000000E-01
  8.50000000E-01  8.00000000E-01  8.50000000E-01  8.50000000E-01  8.50000000E-01
  8.00000000E-01  8.50000000E-01  8.50000000E-01  8.50000000E-01  8.00000000E-01
  8.50000000E-01  8.50000000E-01  8.50000000E-01  8.00000000E-01  8.50000000E-01
  8.50000000E-01  8.50000000E-01  8.00000000E-01  8.50000000E-01  8.50000000E-01
  8.50000000E-01  8.00000000E-01  8.50000000E-01  8.50000000E-01  8.50000000E-01
  8.00000000E-01  8.50000000E-01  8.50000000E-01  8.50000000E-01  8.00000000E-01
  8.50000000E-01  8.50000000E-01  8.50000000E-01  8.00000000E-01  8.50000000E-01
  8.50000000E-01  8.50000000E-01  8.00000000E-01  8.50000000E-01  8.50000000E-01
  8.50000000E-01  8.00000000E-01  8.50000000E-01  8.50000000E-01  8.50000000E-01
  8.00000000E-01  8.50000000E-01  8.50000000E-01  8.50000000E-01  8.00000000E-01
  8.50000000E-01  8.50000000E-01  8.50000000E-01  8.00000000E-01  8.50000000E-01
  8.50000000E-01  8.50000000E-01  8.00000000E-01  8.50000000E-01  8.50000000E-01
  8.50000000E-01  8.00000000E-01  8.50000000E-01  8.50000000E-01  8.50000000E-01
  8.00000000E-01  8.50000000E-01  8.50000000E-01  8.50000000E-01  8.00000000E-01
  8.50000000E-01  8.50000000E-01  8.50000000E-01  8.00000000E-01  8.50000000E-01
  8.50000000E-01  8.50000000E-01  8.00000000E-01  8.50000000E-01  8.50000000E-01
  8.50000000E-01  8.00000000E-01  8.50000000E-01  8.50000000E-01  8.50000000E-01
  8.00000000E-01  8.50000000E-01  8.50000000E-01  8.50000000E-01  8.00000000E-01
  8.50000000E-01  8.50000000E-01  8.50000000E-01  8.00000000E-01  8.50000000E-01
  8.50000000E-01  8.50000000E-01  8.00000000E-01  8.50000000E-01  8.50000000E-01
  8.50000000E-01  8.00000000E-01  8.50000000E-01  8.50000000E-01  8.50000000E-01
  8.00000000E-01  8.50000000E-01  8.50000000E-01  8.50000000E-01  8.00000000E-01
  8.50000000E-01  8.50000000E-01  8.50000000E-01  8.00000000E-01  8.50000000E-01
  8.50000000E-01  8.50000000E-01  8.00000000E-01  8.50000000E-01  8.50000000E-01
  8.50000000E-01  8.00000000E-01  8.50000000E-01  8.50000000E-01  8.50000000E-01
  8.00000000E-01  8.50000000E-01  8.50000000E-01  8.50000000E-01  8.00000000E-01
  8.50000000E-01  8.50000000E-01  8.50000000E-01  8.00000000E-01  8.50000000E-01
  8.50000000E-01  8.50000000E-01  8.00000000E-01  8.50000000E-01  8.50000000E-01
  8.50000000E-01  8.00000000E-01  8.50000000E-01  8.50000000E-01  8.50000000E-01
  8.00000000E-01  8.50000000E-01  8.50000000E-01  8.50000000E-01  8.00000000E-01
  8.50000000E-01  8.50000000E-01  8.50000000E-01  8.00000000E-01  8.50000000E-01
  8.50000000E-01  8.50000000E-01  8.00000000E-01  8.50000000E-01  8.50000000E-01
  8.50000000E-01  8.00000000E-01  8.50000000E-01  8.50000000E-01  8.50000000E-01
  8.00000000E-01  8.50000000E-01  8.50000000E-01  8.50000000E-01  8.00000000E-01
  8.50000000E-01  8.50000000E-01  8.50000000E-01  8.00000000E-01  8.50000000E-01
  8.50000000E-01  8.50000000E-01  8.00000000E-01  8.50000000E-01  8.50000000E-01
  8.50000000E-01  8.00000000E-01  8.50000000E-01  8.50000000E-01  8.50000000E-01
  8.00000000E-01  8.50000000E-01  8.50000000E-01  8.50000000E-01  8.00000000E-01
  8.50000000E-01  8.50000000E-01  8.50000000E-01  8.00000000E-01  8.50000000E-01
  8.50000000E-01  8.50000000E-01  8.00000000E-01  8.50000000E-01  8.50000000E-01
  8.50000000E-01  8.00000000E-01  8.50000000E-01  8.50000000E-01  8.50000000E-01
  8.00000000E-01  8.50000000E-01  8.50000000E-01  8.50000000E-01  8.00000000E-01
  8.50000000E-01  8.50000000E-01  8.50000000E-01  8.00000000E-01  8.50000000E-01
  8.50000000E-01  8.50000000E-01  8.00000000E-01  8.50000000E-01  8.50000000E-01
  8.50000000E-01  8.00000000E-01  8.50000000E-01  8.50000000E-01  8.50000000E-01
  8.00000000E-01  8.50000000E-01  8.50000000E-01  8.50000000E-01  8.00000000E-01
  8.50000000E-01  8.50000000E-01  8.50000000E-01  8.00000000E-01  8.50000000E-01
  8.50000000E-01  8.50000000E-01  8.00000000E-01  8.50000000E-01  8.50000000E-01
  8.50000000E-01  8.00000000E-01  8.50000000E-01  8.50000000E-01  8.50000000E-01
  8.00000000E-01  8.50000000E-01  8.50000000E-01  8.50000000E-01  8.00000000E-01
  8.50000000E-01  8.50000000E-01  8.50000000E-01  8.00000000E-01  8.50000000E-01
  8.50000000E-01  8.50000000E-01  8.00000000E-01  8.50000000E-01  8.50000000E-01
  8.50000000E-01  8.00000000E-01  8.50000000E-01  8.50000000E-01  8.50000000E-01
  8.00000000E-01  8.50000000E-01  8.50000000E-01  8.50000000E-01  8.00000000E-01
  8.50000000E-01  8.50000000E-01  8.50000000E-01  8.00000000E-01  8.50000000E-01
  8.50000000E-01  8.50000000E-01  8.00000000E-01  8.50000000E-01  8.50000000E-01
  8.50000000E-01  8.00000000E-01  8.50000000E-01  8.50000000E-01  8.50000000E-01
  8.00000000E-01  8.50000000E-01  8.50000000E-01  8.50000000E-01  8.00000000E-01
  8.50000000E-01  8.50000000E-01  8.50000000E-01  8.00000000E-01  8.50000000E-01
  8.50000000E-01  8.50000000E-01  8.00000000E-01  8.50000000E-01  8.50000000E-01
  8.50000000E-01  8.00000000E-01  8.50000000E-01  8.50000000E-01  8.50000000E-01
  8.00000000E-01  8.50000000E-01  8.50000000E-01  8.50000000E-01  8.00000000E-01
  8.50000000E-01  8.50000000E-01  8.50000000E-01  8.00000000E-01  8.50000000E-01
  8.50000000E-01  8.50000000E-01  8.00000000E-01  8.50000000E-01  8.50000000E-01
  8.50000000E-01  8.00000000E-01  8.50000000E-01  8.50000000E-01  8.50000000E-01
  8.00000000E-01  8.50000000E-01  8.50000000E-01  8.50000000E-01  8.00000000E-01
  8.50000000E-01  8.50000000E-01  8.50000000E-01  8.00000000E-01  8.50000000E-01
  8.50000000E-01  8.50000000E-01  8.00000000E-01  8.50000000E-01  8.50000000E-01
  8.50000000E-01  8.00000000E-01  8.50000000E-01  8.50000000E-01  8.50000000E-01
  8.00000000E-01  8.50000000E-01  8.50000000E-01  8.50000000E-01  8.00000000E-01
  8.50000000E-01  8.50000000E-01  8.50000000E-01  8.00000000E-01  8.50000000E-01
  8.50000000E-01  8.50000000E-01  8.00000000E-01  8.50000000E-01  8.50000000E-01
  8.50000000E-01  8.00000000E-01  8.50000000E-01  8.50000000E-01  8.50000000E-01
  8.00000000E-01  8.50000000E-01  8.50000000E-01  8.50000000E-01  8.00000000E-01
  8.50000000E-01  8.50000000E-01  8.50000000E-01  8.00000000E-01  8.50000000E-01
  8.50000000E-01  8.50000000E-01  8.00000000E-01  8.50000000E-01  8.50000000E-01
  8.50000000E-01  8.00000000E-01  8.50000000E-01  8.50000000E-01  8.50000000E-01
  8.00000000E-01  8.50000000E-01  8.50000000E-01  8.50000000E-01  8.00000000E-01
  8.50000000E-01  8.50000000E-01  8.50000000E-01  8.00000000E-01  8.50000000E-01
  8.50000000E-01  8.50000000E-01  8.00000000E-01  8.50000000E-01  8.50000000E-01
  8.50000000E-01  8.00000000E-01  8.50000000E-01  8.50000000E-01  8.50000000E-01
  8.00000000E-01  8.50000000E-01  8.50000000E-01  8.50000000E-01  8.00000000E-01
  8.50000000E-01  8.50000000E-01  8.50000000E-01  8.00000000E-01  8.50000000E-01
  8.50000000E-01  8.50000000E-01  8.00000000E-01  8.50000000E-01  8.50000000E-01
  8.50000000E-01  8.00000000E-01  8.50000000E-01  8.50000000E-01  8.50000000E-01
  8.00000000E-01  8.50000000E-01  8.50000000E-01  8.50000000E-01  8.00000000E-01
  8.50000000E-01  8.50000000E-01  8.50000000E-01  8.00000000E-01  8.50000000E-01
  8.50000000E-01  8.50000000E-01  8.00000000E-01  8.50000000E-01  8.50000000E-01
  8.50000000E-01  8.00000000E-01  8.50000000E-01  8.50000000E-01  8.50000000E-01
  8.00000000E-01  8.50000000E-01  8.50000000E-01  8.50000000E-01  8.00000000E-01
  8.50000000E-01  8.50000000E-01  8.50000000E-01  8.00000000E-01  8.50000000E-01
  8.50000000E-01  8.50000000E-01  8.00000000E-01  8.50000000E-01  8.50000000E-01
  8.50000000E-01  8.00000000E-01  8.50000000E-01  8.50000000E-01  8.50000000E-01
  8.00000000E-01  8.50000000E-01  8.50000000E-01  8.50000000E-01  8.00000000E-01
  8.50000000E-01  8.50000000E-01  8.50000000E-01  8.00000000E-01  8.50000000E-01
  8.50000000E-01  8.50000000E-01  8.00000000E-01  8.50000000E-01  8.50000000E-01
  8.50000000E-01  8.00000000E-01  8.50000000E-01  8.50000000E-01  8.50000000E-01
  8.00000000E-01  8.50000000E-01  8.50000000E-01  8.50000000E-01  8.00000000E-01
  8.50000000E-01  8.50000000E-01  8.50000000E-01  8.00000000E-01  8.50000000E-01
  8.50000000E-01  8.50000000E-01  8.00000000E-01  8.50000000E-01  8.50000000E-01
  8.50000000E-01  8.00000000E-01  8.50000000E-01  8.50000000E-01  8.50000000E-01
  8.00000000E-01  8.50000000E-01  8.50000000E-01  8.50000000E-01  8.00000000E-01
  8.50000000E-01  8.50000000E-01  8.50000000E-01  8.00000000E-01  8.50000000E-01
  8.50000000E-01  8.50000000E-01  8.00000000E-01  8.50000000E-01  8.50000000E-01
  8.50000000E-01  8.00000000E-01  8.50000000E-01  8.50000000E-01  8.50000000E-01
  8.00000000E-01  8.50000000E-01  8.50000000E-01  8.50000000E-01  8.00000000E-01
  8.50000000E-01  8.50000000E-01  8.50000000E-01  8.00000000E-01  8.50000000E-01
  8.50000000E-01  8.50000000E-01  8.00000000E-01  8.50000000E-01  8.50000000E-01
  8.50000000E-01  8.00000000E-01  8.50000000E-01  8.50000000E-01  8.50000000E-01
  8.00000000E-01  8.50000000E-01  8.50000000E-01  8.50000000E-01  8.00000000E-01
  8.50000000E-01  8.50000000E-01  8.50000000E-01  8.00000000E-01  8.50000000E-01
  8.50000000E-01  8.50000000E-01  8.00000000E-01  8.50000000E-01  8.50000000E-01
  8.50000000E-01  8.00000000E-01  8.50000000E-01  8.50000000E-01  8.50000000E-01
  8.00000000E-01  8.50000000E-01  8.50000000E-01  8.50000000E-01  8.00000000E-01
  8.50000000E-01  8.50000000E-01  8.50000000E-01  8.00000000E-01  8.50000000E-01
  8.50000000E-01  8.50000000E-01  8.00000000E-01  8.50000000E-01  8.50000000E-01
  8.50000000E-01  8.00000000E-01  8.50000000E-01  8.50000000E-01  8.50000000E-01
  8.00000000E-01  8.50000000E-01  8.50000000E-01  8.50000000E-01  8.00000000E-01
  8.50000000E-01  8.50000000E-01  8.50000000E-01  8.00000000E-01  8.50000000E-01
  8.50000000E-01  8.50000000E-01  8.00000000E-01  8.50000000E-01  8.50000000E-01
  8.50000000E-01  8.00000000E-01  8.50000000E-01  8.50000000E-01  8.50000000E-01
  8.00000000E-01  8.50000000E-01  8.50000000E-01  8.50000000E-01  8.00000000E-01
  8.50000000E-01  8.50000000E-01  8.50000000E-01  8.00000000E-01  8.50000000E-01
  8.50000000E-01  8.50000000E-01  8.00000000E-01  8.50000000E-01  8.50000000E-01
  8.50000000E-01  8.00000000E-01  8.50000000E-01  8.50000000E-01  8.50000000E-01
  8.00000000E-01  8.50000000E-01  8.50000000E-01  8.50000000E-01  8.00000000E-01
  8.50000000E-01  8.50000000E-01  8.50000000E-01  8.00000000E-01  8.50000000E-01
  8.50000000E-01  8.50000000E-01  8.00000000E-01  8.50000000E-01  8.50000000E-01
  8.50000000E-01  8.00000000E-01  8.50000000E-01  8.50000000E-01  8.50000000E-01
  8.00000000E-01  8.50000000E-01  8.50000000E-01  8.50000000E-01  8.00000000E-01
  8.50000000E-01  8.50000000E-01  8.50000000E-01  8.00000000E-01  8.50000000E-01
  8.50000000E-01  8.50000000E-01  8.00000000E-01  8.50000000E-01  8.50000000E-01
  8.50000000E-01  8.00000000E-01  8.50000000E-01  8.50000000E-01  8.50000000E-01
  8.00000000E-01  8.50000000E-01  8.50000000E-01  8.50000000E-01  8.00000000E-01
  8.50000000E-01  8.50000000E-01  8.50000000E-01  8.00000000E-01  8.50000000E-01
  8.50000000E-01  8.50000000E-01  8.00000000E-01  8.50000000E-01  8.50000000E-01
  8.50000000E-01  8.00000000E-01  8.50000000E-01  8.50000000E-01  8.50000000E-01
  8.00000000E-01  8.50000000E-01  8.50000000E-01  8.50000000E-01  8.00000000E-01
  8.50000000E-01  8.50000000E-01  8.50000000E-01  8.00000000E-01  8.50000000E-01
  8.50000000E-01  8.50000000E-01  8.00000000E-01  8.50000000E-01  8.50000000E-01
  8.50000000E-01  8.00000000E-01  8.50000000E-01  8.50000000E-01  8.50000000E-01
  8.00000000E-01  8.50000000E-01  8.50000000E-01  8.50000000E-01  8.00000000E-01
  8.50000000E-01  8.50000000E-01  8.50000000E-01  8.00000000E-01  8.50000000E-01
  8.50000000E-01  8.50000000E-01  8.00000000E-01  8.50000000E-01  8.50000000E-01
  8.50000000E-01  8.00000000E-01  8.50000000E-01  8.50000000E-01  8.50000000E-01
  8.00000000E-01  8.50000000E-01  8.50000000E-01  8.50000000E-01  8.00000000E-01
  8.50000000E-01  8.50000000E-01  8.50000000E-01  8.00000000E-01  8.50000000E-01
  8.50000000E-01  8.50000000E-01  8.00000000E-01  8.50000000E-01  8.50000000E-01
  8.50000000E-01  8.00000000E-01  8.50000000E-01  8.50000000E-01  8.50000000E-01
  8.00000000E-01  8.50000000E-01  8.50000000E-01  8.50000000E-01  8.00000000E-01
  8.50000000E-01  8.50000000E-01  8.50000000E-01  8.00000000E-01  8.50000000E-01
  8.50000000E-01  8.50000000E-01  8.00000000E-01  8.50000000E-01  8.50000000E-01
  8.50000000E-01  8.00000000E-01  8.50000000E-01  8.50000000E-01  8.50000000E-01
  8.00000000E-01  8.50000000E-01  8.50000000E-01  8.50000000E-01  8.00000000E-01
  8.50000000E-01  8.50000000E-01  8.50000000E-01  8.00000000E-01  8.50000000E-01
  8.50000000E-01  8.50000000E-01  8.00000000E-01  8.50000000E-01  8.50000000E-01
  8.50000000E-01  8.00000000E-01  8.50000000E-01  8.50000000E-01  8.50000000E-01
  8.00000000E-01  8.50000000E-01  8.50000000E-01  8.50000000E-01  8.00000000E-01
  8.50000000E-01  8.50000000E-01  8.50000000E-01  8.00000000E-01  8.50000000E-01
  8.50000000E-01  8.50000000E-01  8.00000000E-01  8.50000000E-01  8.50000000E-01
  8.50000000E-01  8.00000000E-01  8.50000000E-01  8.50000000E-01  8.50000000E-01
  8.00000000E-01  8.50000000E-01  8.50000000E-01  8.50000000E-01  8.00000000E-01
  8.50000000E-01  8.50000000E-01  8.50000000E-01  8.00000000E-01  8.50000000E-01
  8.50000000E-01  8.50000000E-01  8.00000000E-01  8.50000000E-01  8.50000000E-01
  8.50000000E-01  8.00000000E-01  8.50000000E-01  8.50000000E-01  8.50000000E-01
  8.00000000E-01  8.50000000E-01  8.50000000E-01  8.50000000E-01  8.00000000E-01
  8.50000000E-01  8.50000000E-01  8.50000000E-01  8.00000000E-01  8.50000000E-01
  8.50000000E-01  8.50000000E-01  8.00000000E-01  8.50000000E-01  8.50000000E-01
  8.50000000E-01  8.00000000E-01  8.50000000E-01  8.50000000E-01  8.50000000E-01
  8.00000000E-01  8.50000000E-01  8.50000000E-01  8.50000000E-01  8.00000000E-01
  8.50000000E-01  8.50000000E-01  8.50000000E-01  8.00000000E-01  8.50000000E-01
  8.50000000E-01  8.50000000E-01  8.00000000E-01  8.50000000E-01  8.50000000E-01
  8.50000000E-01  8.00000000E-01  8.50000000E-01  8.50000000E-01  8.50000000E-01
  8.00000000E-01  8.50000000E-01  8.50000000E-01  8.50000000E-01  8.00000000E-01
  8.50000000E-01  8.50000000E-01  8.50000000E-01  8.00000000E-01  8.50000000E-01
  8.50000000E-01  8.50000000E-01  8.00000000E-01  8.50000000E-01  8.50000000E-01
  8.50000000E-01  8.00000000E-01  8.50000000E-01  8.50000000E-01  8.50000000E-01
  8.00000000E-01  8.50000000E-01  8.50000000E-01  8.50000000E-01  8.00000000E-01
  8.50000000E-01  8.50000000E-01  8.50000000E-01  8.00000000E-01  8.50000000E-01
  8.50000000E-01  8.50000000E-01  8.00000000E-01  8.50000000E-01  8.50000000E-01
  8.50000000E-01  8.00000000E-01  8.50000000E-01  8.50000000E-01  8.50000000E-01
  8.00000000E-01  8.50000000E-01  8.50000000E-01  8.50000000E-01  8.00000000E-01
  8.50000000E-01  8.50000000E-01  8.50000000E-01  8.00000000E-01  8.50000000E-01
  8.50000000E-01  8.50000000E-01  8.00000000E-01  8.50000000E-01  8.50000000E-01
  8.50000000E-01  8.00000000E-01  8.50000000E-01  8.50000000E-01  8.50000000E-01
  8.00000000E-01  8.50000000E-01  8.50000000E-01  8.50000000E-01  8.00000000E-01
  8.50000000E-01  8.50000000E-01  8.50000000E-01  8.00000000E-01  8.50000000E-01
  8.50000000E-01  8.50000000E-01  8.00000000E-01  8.50000000E-01  8.50000000E-01
  8.50000000E-01  8.00000000E-01  8.50000000E-01  8.50000000E-01  8.50000000E-01
  8.00000000E-01  8.50000000E-01  8.50000000E-01  8.50000000E-01  8.00000000E-01
  8.50000000E-01  8.50000000E-01  8.50000000E-01  8.00000000E-01  8.50000000E-01
  8.50000000E-01  8.50000000E-01  8.00000000E-01  8.50000000E-01  8.50000000E-01
  8.50000000E-01  8.00000000E-01  8.50000000E-01  8.50000000E-01  8.50000000E-01
  8.00000000E-01  8.50000000E-01  8.50000000E-01  8.50000000E-01  8.00000000E-01
  8.50000000E-01  8.50000000E-01  8.50000000E-01  8.00000000E-01  8.50000000E-01
  8.50000000E-01  8.50000000E-01  8.00000000E-01  8.50000000E-01  8.50000000E-01
  8.50000000E-01  8.00000000E-01  8.50000000E-01  8.50000000E-01  8.50000000E-01
  8.00000000E-01  8.50000000E-01  8.50000000E-01  8.50000000E-01  8.00000000E-01
  8.50000000E-01  8.50000000E-01  8.50000000E-01  8.00000000E-01  8.50000000E-01
  8.50000000E-01  8.50000000E-01  8.00000000E-01  8.50000000E-01  8.50000000E-01
  8.50000000E-01  8.00000000E-01  8.50000000E-01  8.50000000E-01  8.50000000E-01
  8.00000000E-01  8.50000000E-01  8.50000000E-01  8.50000000E-01  8.00000000E-01
  8.50000000E-01  8.50000000E-01  8.50000000E-01  8.00000000E-01  8.50000000E-01
  8.50000000E-01  8.50000000E-01  8.00000000E-01  8.50000000E-01  8.50000000E-01
  8.50000000E-01  8.00000000E-01  8.50000000E-01  8.50000000E-01  8.50000000E-01
  8.00000000E-01  8.50000000E-01  8.50000000E-01  8.50000000E-01  8.00000000E-01
  8.50000000E-01  8.50000000E-01  8.50000000E-01  8.00000000E-01  8.50000000E-01
  8.50000000E-01  8.50000000E-01  8.00000000E-01  8.50000000E-01  8.50000000E-01
  8.50000000E-01  8.00000000E-01  8.50000000E-01  8.50000000E-01  8.50000000E-01
  8.00000000E-01  8.50000000E-01  8.50000000E-01  8.50000000E-01  8.00000000E-01
  8.50000000E-01  8.50000000E-01  8.50000000E-01  8.00000000E-01  8.50000000E-01
  8.50000000E-01  8.50000000E-01  8.00000000E-01  8.50000000E-01  8.50000000E-01
  8.50000000E-01  8.00000000E-01  8.50000000E-01  8.50000000E-01  8.50000000E-01
  8.00000000E-01  8.50000000E-01  8.50000000E-01  8.50000000E-01  8.00000000E-01
  8.50000000E-01  8.50000000E-01  8.50000000E-01  8.00000000E-01  8.50000000E-01
  8.50000000E-01  8.50000000E-01  8.00000000E-01  8.50000000E-01  8.50000000E-01
  8.50000000E-01  8.00000000E-01  8.50000000E-01  8.50000000E-01  8.50000000E-01
  8.00000000E-01  8.50000000E-01  8.50000000E-01  8.50000000E-01  8.00000000E-01
  8.50000000E-01  8.50000000E-01  8.50000000E-01  8.00000000E-01  8.50000000E-01
  8.50000000E-01  8.50000000E-01  8.00000000E-01  8.50000000E-01  8.50000000E-01
  8.50000000E-01  8.00000000E-01  8.50000000E-01  8.50000000E-01  8.50000000E-01
  8.00000000E-01  8.50000000E-01  8.50000000E-01  8.50000000E-01  8.00000000E-01
  8.50000000E-01  8.50000000E-01  8.50000000E-01  8.00000000E-01  8.50000000E-01
  8.50000000E-01  8.50000000E-01  8.00000000E-01  8.50000000E-01  8.50000000E-01
  8.50000000E-01  8.00000000E-01  8.50000000E-01  8.50000000E-01  8.50000000E-01
  8.00000000E-01  8.50000000E-01  8.50000000E-01  8.50000000E-01  8.00000000E-01
  8.50000000E-01  8.50000000E-01  8.50000000E-01  8.00000000E-01  8.50000000E-01
  8.50000000E-01  8.50000000E-01  8.00000000E-01  8.50000000E-01  8.50000000E-01
  8.50000000E-01  8.00000000E-01  8.50000000E-01  8.50000000E-01  8.50000000E-01
  8.00000000E-01  8.50000000E-01  8.50000000E-01  8.50000000E-01  8.00000000E-01
  8.50000000E-01  8.50000000E-01  8.50000000E-01  8.00000000E-01  8.50000000E-01
  8.50000000E-01  8.50000000E-01  8.00000000E-01  8.50000000E-01  8.50000000E-01
  8.50000000E-01  8.00000000E-01  8.50000000E-01  8.50000000E-01  8.50000000E-01
  8.00000000E-01  8.50000000E-01  8.50000000E-01  8.50000000E-01  8.00000000E-01
  8.50000000E-01  8.50000000E-01  8.50000000E-01  8.00000000E-01  8.50000000E-01
  8.50000000E-01  8.50000000E-01  8.00000000E-01  8.50000000E-01  8.50000000E-01
  8.50000000E-01  8.00000000E-01  8.50000000E-01  8.50000000E-01  8.50000000E-01
  8.00000000E-01  8.50000000E-01  8.50000000E-01  8.50000000E-01  8.00000000E-01
  8.50000000E-01  8.50000000E-01  8.50000000E-01  8.00000000E-01  8.50000000E-01
  8.50000000E-01  8.50000000E-01  8.00000000E-01  8.50000000E-01  8.50000000E-01
  8.50000000E-01  8.00000000E-01  8.50000000E-01  8.50000000E-01  8.50000000E-01
  8.00000000E-01  8.50000000E-01  8.50000000E-01  8.50000000E-01  8.00000000E-01
  8.50000000E-01  8.50000000E-01  8.50000000E-01  8.00000000E-01  8.50000000E-01
  8.50000000E-01  8.50000000E-01  8.00000000E-01  8.50000000E-01  8.50000000E-01
  8.50000000E-01  8.00000000E-01  8.50000000E-01  8.50000000E-01  8.50000000E-01
  8.00000000E-01  8.50000000E-01  8.50000000E-01  8.50000000E-01  8.00000000E-01
  8.50000000E-01  8.50000000E-01  8.50000000E-01  8.00000000E-01  8.50000000E-01
  8.50000000E-01  8.50000000E-01  8.00000000E-01  8.50000000E-01  8.50000000E-01
  8.50000000E-01  8.00000000E-01  8.50000000E-01  8.50000000E-01  8.50000000E-01
  8.00000000E-01  8.50000000E-01  8.50000000E-01  8.50000000E-01  8.00000000E-01
  8.50000000E-01  8.50000000E-01  8.50000000E-01  8.00000000E-01  8.50000000E-01
  8.50000000E-01  8.50000000E-01  8.00000000E-01  8.50000000E-01  8.50000000E-01
  8.50000000E-01  8.00000000E-01  8.50000000E-01  8.50000000E-01  8.50000000E-01
  8.00000000E-01  8.50000000E-01  8.50000000E-01  8.50000000E-01  8.00000000E-01
  8.50000000E-01  8.50000000E-01  8.50000000E-01  8.00000000E-01  8.50000000E-01
  8.50000000E-01  8.50000000E-01  8.00000000E-01  8.50000000E-01  8.50000000E-01
  8.50000000E-01  8.00000000E-01  8.50000000E-01  8.50000000E-01  8.50000000E-01
  8.00000000E-01  8.50000000E-01  8.50000000E-01  8.50000000E-01  8.00000000E-01
  8.50000000E-01  8.50000000E-01  8.50000000E-01  8.00000000E-01  8.50000000E-01
  8.50000000E-01  8.50000000E-01  8.00000000E-01  8.50000000E-01  8.50000000E-01
  8.50000000E-01  8.00000000E-01  8.50000000E-01  8.50000000E-01  8.50000000E-01
  8.00000000E-01  8.50000000E-01  8.50000000E-01  8.50000000E-01  8.00000000E-01
  8.50000000E-01  8.50000000E-01  8.50000000E-01  8.00000000E-01  8.50000000E-01
  8.50000000E-01  8.50000000E-01  8.00000000E-01  8.50000000E-01  8.50000000E-01
  8.50000000E-01  8.00000000E-01  8.50000000E-01  8.50000000E-01  8.50000000E-01
  8.00000000E-01  8.50000000E-01  8.50000000E-01  8.50000000E-01  8.00000000E-01
  8.50000000E-01  8.50000000E-01  8.50000000E-01  8.00000000E-01  8.50000000E-01
  8.50000000E-01  8.50000000E-01  8.00000000E-01  8.50000000E-01  8.50000000E-01
  8.50000000E-01  8.00000000E-01  8.50000000E-01  8.50000000E-01  8.50000000E-01
  8.00000000E-01  8.50000000E-01  8.50000000E-01  8.50000000E-01  8.00000000E-01
  8.50000000E-01  8.50000000E-01  8.50000000E-01  8.00000000E-01  8.50000000E-01
  8.50000000E-01  8.50000000E-01  8.00000000E-01  8.50000000E-01  8.50000000E-01
  8.50000000E-01  8.00000000E-01  8.50000000E-01  8.50000000E-01  8.50000000E-01
  8.00000000E-01  8.50000000E-01  8.50000000E-01  8.50000000E-01  8.00000000E-01
  8.50000000E-01  8.50000000E-01  8.50000000E-01  8.00000000E-01  8.50000000E-01
  8.50000000E-01  8.50000000E-01  8.00000000E-01  8.50000000E-01  8.50000000E-01
  8.50000000E-01  8.00000000E-01  8.50000000E-01  8.50000000E-01  8.50000000E-01
  8.00000000E-01  8.50000000E-01  8.50000000E-01  8.50000000E-01  8.00000000E-01
  8.50000000E-01  8.50000000E-01  8.50000000E-01  8.00000000E-01  8.50000000E-01
  8.50000000E-01  8.50000000E-01  8.00000000E-01  8.50000000E-01  8.50000000E-01
  8.50000000E-01  8.00000000E-01  8.50000000E-01  8.50000000E-01  8.50000000E-01
  8.00000000E-01  8.50000000E-01  8.50000000E-01  8.50000000E-01  8.00000000E-01
  8.50000000E-01  8.50000000E-01  8.50000000E-01  8.00000000E-01  8.50000000E-01
  8.50000000E-01  8.50000000E-01  8.00000000E-01  8.50000000E-01  8.50000000E-01
  8.50000000E-01  8.00000000E-01  8.50000000E-01  8.50000000E-01  8.50000000E-01
  8.00000000E-01  8.50000000E-01  8.50000000E-01  8.50000000E-01  8.00000000E-01
  8.50000000E-01  8.50000000E-01  8.50000000E-01  8.00000000E-01  8.50000000E-01
  8.50000000E-01  8.50000000E-01  8.00000000E-01  8.50000000E-01  8.50000000E-01
  8.50000000E-01  8.00000000E-01  8.50000000E-01  8.50000000E-01  8.50000000E-01
  8.00000000E-01  8.50000000E-01  8.50000000E-01  8.50000000E-01  8.00000000E-01
  8.50000000E-01  8.50000000E-01  8.50000000E-01  8.00000000E-01  8.50000000E-01
  8.50000000E-01  8.50000000E-01  8.00000000E-01  8.50000000E-01  8.50000000E-01
  8.50000000E-01  8.00000000E-01  8.50000000E-01  8.50000000E-01  8.50000000E-01
  8.00000000E-01  8.50000000E-01  8.50000000E-01  8.50000000E-01  8.00000000E-01
  8.50000000E-01  8.50000000E-01  8.50000000E-01  8.00000000E-01  8.50000000E-01
  8.50000000E-01  8.50000000E-01  8.00000000E-01  8.50000000E-01  8.50000000E-01
  8.50000000E-01  8.00000000E-01  8.50000000E-01  8.50000000E-01  8.50000000E-01
  8.00000000E-01  8.50000000E-01  8.50000000E-01  8.50000000E-01  8.00000000E-01
  8.50000000E-01  8.50000000E-01  8.50000000E-01  8.00000000E-01  8.50000000E-01
  8.50000000E-01  8.50000000E-01  8.00000000E-01  8.50000000E-01  8.50000000E-01
  8.50000000E-01  8.00000000E-01  8.50000000E-01  8.50000000E-01  8.50000000E-01
  8.00000000E-01  8.50000000E-01  8.50000000E-01  8.50000000E-01  8.00000000E-01
  8.50000000E-01  8.50000000E-01  8.50000000E-01  8.00000000E-01  8.50000000E-01
  8.50000000E-01  8.50000000E-01  8.00000000E-01  8.50000000E-01  8.50000000E-01
  8.50000000E-01  8.00000000E-01  8.50000000E-01  8.50000000E-01  8.50000000E-01
  8.00000000E-01  8.50000000E-01  8.50000000E-01  8.50000000E-01  8.00000000E-01
  8.50000000E-01  8.50000000E-01  8.50000000E-01  8.00000000E-01  8.50000000E-01
  8.50000000E-01  8.50000000E-01  8.00000000E-01  8.50000000E-01  8.50000000E-01
  8.50000000E-01  8.00000000E-01  8.50000000E-01  8.50000000E-01  8.50000000E-01
  8.00000000E-01  8.50000000E-01  8.50000000E-01  8.50000000E-01  8.00000000E-01
  8.50000000E-01  8.50000000E-01  8.50000000E-01  8.00000000E-01  8.50000000E-01
  8.50000000E-01  8.50000000E-01  8.00000000E-01  8.50000000E-01  8.50000000E-01
  8.50000000E-01  8.00000000E-01  8.50000000E-01  8.50000000E-01  8.50000000E-01
  8.00000000E-01  8.50000000E-01  8.50000000E-01  8.50000000E-01  8.00000000E-01
  8.50000000E-01  8.50000000E-01  8.50000000E-01  8.00000000E-01  8.50000000E-01
  8.50000000E-01  8.50000000E-01  8.00000000E-01  8.50000000E-01  8.50000000E-01
  8.50000000E-01  8.00000000E-01  8.50000000E-01  8.50000000E-01  8.50000000E-01
  8.00000000E-01  8.50000000E-01  8.50000000E-01  8.50000000E-01  8.00000000E-01
  8.50000000E-01  8.50000000E-01  8.50000000E-01  8.00000000E-01  8.50000000E-01
  8.50000000E-01  8.50000000E-01  8.00000000E-01  8.50000000E-01  8.50000000E-01
  8.50000000E-01  8.00000000E-01  8.50000000E-01  8.50000000E-01  8.50000000E-01
  8.00000000E-01  8.50000000E-01  8.50000000E-01  8.50000000E-01  8.00000000E-01
  8.50000000E-01  8.50000000E-01  8.50000000E-01  8.00000000E-01  8.50000000E-01
  8.50000000E-01  8.50000000E-01  8.00000000E-01  8.50000000E-01  8.50000000E-01
  8.50000000E-01  8.00000000E-01  8.50000000E-01  8.50000000E-01  8.50000000E-01
  8.00000000E-01  8.50000000E-01  8.50000000E-01  8.50000000E-01  8.00000000E-01
  8.50000000E-01  8.50000000E-01  8.50000000E-01  8.00000000E-01  8.50000000E-01
  8.50000000E-01  8.50000000E-01  8.00000000E-01  8.50000000E-01  8.50000000E-01
  8.50000000E-01  8.00000000E-01  8.50000000E-01  8.50000000E-01  8.50000000E-01
  8.00000000E-01  8.50000000E-01  8.50000000E-01  8.50000000E-01  8.00000000E-01
  8.50000000E-01  8.50000000E-01  8.50000000E-01  8.00000000E-01  8.50000000E-01
  8.50000000E-01  8.50000000E-01  8.00000000E-01  8.50000000E-01  8.50000000E-01
  8.50000000E-01  8.00000000E-01  8.50000000E-01  8.50000000E-01  8.50000000E-01
  8.00000000E-01  8.50000000E-01  8.50000000E-01  8.50000000E-01  8.00000000E-01
  8.50000000E-01  8.50000000E-01  8.50000000E-01  8.00000000E-01  8.50000000E-01
  8.50000000E-01  8.50000000E-01  8.00000000E-01  8.50000000E-01  8.50000000E-01
  8.50000000E-01  8.00000000E-01  8.50000000E-01  8.50000000E-01  8.50000000E-01
  8.00000000E-01  8.50000000E-01  8.50000000E-01  8.50000000E-01  8.00000000E-01
  8.50000000E-01  8.50000000E-01  8.50000000E-01  8.00000000E-01  8.50000000E-01
  8.50000000E-01  8.50000000E-01  8.00000000E-01  8.50000000E-01  8.50000000E-01
  8.50000000E-01  8.00000000E-01  8.50000000E-01  8.50000000E-01  8.50000000E-01
  8.00000000E-01  8.50000000E-01  8.50000000E-01  8.50000000E-01  8.00000000E-01
  8.50000000E-01  8.50000000E-01  8.50000000E-01  8.00000000E-01  8.50000000E-01
  8.50000000E-01  8.50000000E-01  8.00000000E-01  8.50000000E-01  8.50000000E-01
  8.50000000E-01  8.00000000E-01  8.50000000E-01  8.50000000E-01  8.50000000E-01
  8.00000000E-01  8.50000000E-01  8.50000000E-01  8.50000000E-01  8.00000000E-01
  8.50000000E-01  8.50000000E-01  8.50000000E-01  8.00000000E-01  8.50000000E-01
  8.50000000E-01  8.50000000E-01  8.00000000E-01  8.50000000E-01  8.50000000E-01
  8.50000000E-01  8.00000000E-01  8.50000000E-01  8.50000000E-01  8.50000000E-01
  8.00000000E-01  8.50000000E-01  8.50000000E-01  8.50000000E-01  8.00000000E-01
  8.50000000E-01  8.50000000E-01  8.50000000E-01  8.00000000E-01  8.50000000E-01
  8.50000000E-01  8.50000000E-01  8.00000000E-01  8.50000000E-01  8.50000000E-01
  8.50000000E-01  8.00000000E-01  8.50000000E-01  8.50000000E-01  8.50000000E-01
  8.00000000E-01  8.50000000E-01  8.50000000E-01  8.50000000E-01  8.00000000E-01
  8.50000000E-01  8.50000000E-01  8.50000000E-01  8.00000000E-01  8.50000000E-01
  8.50000000E-01  8.50000000E-01  8.00000000E-01  8.50000000E-01  8.50000000E-01
  8.50000000E-01  8.00000000E-01  8.50000000E-01  8.50000000E-01  8.50000000E-01
  8.00000000E-01  8.50000000E-01  8.50000000E-01  8.50000000E-01  8.00000000E-01
  8.50000000E-01  8.50000000E-01  8.50000000E-01  8.00000000E-01  8.50000000E-01
  8.50000000E-01  8.50000000E-01  8.00000000E-01  8.50000000E-01  8.50000000E-01
  8.50000000E-01  8.00000000E-01  8.50000000E-01  8.50000000E-01  8.50000000E-01
  8.00000000E-01  8.50000000E-01  8.50000000E-01  8.50000000E-01  8.00000000E-01
  8.50000000E-01  8.50000000E-01  8.50000000E-01  8.00000000E-01  8.50000000E-01
  8.50000000E-01  8.50000000E-01  8.00000000E-01  8.50000000E-01  8.50000000E-01
  8.50000000E-01  8.00000000E-01  8.50000000E-01  8.50000000E-01  8.50000000E-01
  8.00000000E-01  8.50000000E-01  8.50000000E-01  8.50000000E-01  8.00000000E-01
  8.50000000E-01  8.50000000E-01  8.50000000E-01  8.00000000E-01  8.50000000E-01
  8.50000000E-01  8.50000000E-01  8.00000000E-01  8.50000000E-01  8.50000000E-01
  8.50000000E-01  8.00000000E-01  8.50000000E-01  8.50000000E-01  8.50000000E-01
  8.00000000E-01  8.50000000E-01  8.50000000E-01  8.50000000E-01  8.00000000E-01
  8.50000000E-01  8.50000000E-01  8.50000000E-01  8.00000000E-01  8.50000000E-01
  8.50000000E-01  8.50000000E-01  8.00000000E-01  8.50000000E-01  8.50000000E-01
  8.50000000E-01  8.00000000E-01  8.50000000E-01  8.50000000E-01  8.50000000E-01
  8.00000000E-01  8.50000000E-01  8.50000000E-01  8.50000000E-01  8.00000000E-01
  8.50000000E-01  8.50000000E-01  8.50000000E-01  8.00000000E-01  8.50000000E-01
  8.50000000E-01  8.50000000E-01  8.00000000E-01  8.50000000E-01  8.50000000E-01
  8.50000000E-01  8.00000000E-01  8.50000000E-01  8.50000000E-01  8.50000000E-01
  8.00000000E-01  8.50000000E-01  8.50000000E-01  8.50000000E-01  8.00000000E-01
  8.50000000E-01  8.50000000E-01  8.50000000E-01  8.00000000E-01  8.50000000E-01
  8.50000000E-01  8.50000000E-01  8.00000000E-01  8.50000000E-01  8.50000000E-01
  8.50000000E-01  8.00000000E-01  8.50000000E-01  8.50000000E-01  8.50000000E-01
  8.00000000E-01  8.50000000E-01  8.50000000E-01  8.50000000E-01  8.00000000E-01
  8.50000000E-01  8.50000000E-01  8.50000000E-01  8.00000000E-01  8.50000000E-01
  8.50000000E-01  8.50000000E-01  8.00000000E-01  8.50000000E-01  8.50000000E-01
  8.50000000E-01  8.00000000E-01  8.50000000E-01  8.50000000E-01  8.50000000E-01
  8.00000000E-01  8.50000000E-01  8.50000000E-01  8.50000000E-01  8.00000000E-01
  8.50000000E-01  8.50000000E-01  8.50000000E-01  8.00000000E-01  8.50000000E-01
  8.50000000E-01  8.50000000E-01  8.00000000E-01  8.50000000E-01  8.50000000E-01
  8.50000000E-01  8.00000000E-01  8.50000000E-01  8.50000000E-01  8.50000000E-01
  8.00000000E-01  8.50000000E-01  8.50000000E-01  8.50000000E-01  8.00000000E-01
  8.50000000E-01  8.50000000E-01  8.50000000E-01  8.00000000E-01  8.50000000E-01
  8.50000000E-01  8.50000000E-01  8.00000000E-01  8.50000000E-01  8.50000000E-01
  8.50000000E-01  8.00000000E-01  8.50000000E-01  8.50000000E-01  8.50000000E-01
  8.00000000E-01  8.50000000E-01  8.50000000E-01  8.50000000E-01  8.00000000E-01
  8.50000000E-01  8.50000000E-01  8.50000000E-01  8.00000000E-01  8.50000000E-01
  8.50000000E-01  8.50000000E-01  8.00000000E-01  8.50000000E-01  8.50000000E-01
  8.50000000E-01  8.00000000E-01  8.50000000E-01  8.50000000E-01  8.50000000E-01
  8.00000000E-01  8.50000000E-01  8.50000000E-01  8.50000000E-01  8.00000000E-01
  8.50000000E-01  8.50000000E-01  8.50000000E-01  8.00000000E-01  8.50000000E-01
  8.50000000E-01  8.50000000E-01  8.00000000E-01  8.50000000E-01  8.50000000E-01
  8.50000000E-01  8.00000000E-01  8.50000000E-01  8.50000000E-01  8.50000000E-01
  8.00000000E-01  8.50000000E-01  8.50000000E-01  8.50000000E-01  8.00000000E-01
  8.50000000E-01  8.50000000E-01  8.50000000E-01  8.00000000E-01  8.50000000E-01
  8.50000000E-01  8.50000000E-01  8.00000000E-01  8.50000000E-01  8.50000000E-01
  8.50000000E-01  8.00000000E-01  8.50000000E-01  8.50000000E-01  8.50000000E-01
  8.00000000E-01  8.50000000E-01  8.50000000E-01  8.50000000E-01  8.00000000E-01
  8.50000000E-01  8.50000000E-01  8.50000000E-01  8.00000000E-01  8.50000000E-01
  8.50000000E-01  8.50000000E-01  8.00000000E-01  8.50000000E-01  8.50000000E-01
  8.50000000E-01  8.00000000E-01  8.50000000E-01  8.50000000E-01  8.50000000E-01
  8.00000000E-01  8.50000000E-01  8.50000000E-01  8.50000000E-01  8.00000000E-01
  8.50000000E-01  8.50000000E-01  8.50000000E-01  8.00000000E-01  8.50000000E-01
  8.50000000E-01  8.50000000E-01  8.00000000E-01  8.50000000E-01  8.50000000E-01
  8.50000000E-01  8.00000000E-01  8.50000000E-01  8.50000000E-01  8.50000000E-01
  8.00000000E-01  8.50000000E-01  8.50000000E-01  8.50000000E-01  8.00000000E-01
  8.50000000E-01  8.50000000E-01  8.50000000E-01  8.00000000E-01  8.50000000E-01
  8.50000000E-01  8.50000000E-01  8.00000000E-01  8.50000000E-01  8.50000000E-01
  8.50000000E-01  8.00000000E-01  8.50000000E-01  8.50000000E-01  8.50000000E-01
  8.00000000E-01  8.50000000E-01  8.50000000E-01  8.50000000E-01  8.00000000E-01
  8.50000000E-01  8.50000000E-01  8.50000000E-01  8.00000000E-01  8.50000000E-01
  8.50000000E-01  8.50000000E-01  8.00000000E-01  8.50000000E-01  8.50000000E-01
  8.50000000E-01  8.00000000E-01  8.50000000E-01  8.50000000E-01  8.50000000E-01
  8.00000000E-01  8.50000000E-01  8.50000000E-01  8.50000000E-01  8.00000000E-01
  8.50000000E-01  8.50000000E-01  8.50000000E-01  8.00000000E-01  8.50000000E-01
  8.50000000E-01  8.50000000E-01  8.00000000E-01  8.50000000E-01  8.50000000E-01
  8.50000000E-01  8.00000000E-01  8.50000000E-01  8.50000000E-01  8.50000000E-01
  8.00000000E-01  8.50000000E-01  8.50000000E-01  8.50000000E-01  8.00000000E-01
  8.50000000E-01  8.50000000E-01  8.50000000E-01  8.00000000E-01  8.50000000E-01
  8.50000000E-01  8.50000000E-01  8.00000000E-01  8.50000000E-01  8.50000000E-01
  8.50000000E-01  8.00000000E-01  8.50000000E-01  8.50000000E-01  8.50000000E-01
  8.00000000E-01  8.50000000E-01  8.50000000E-01  8.50000000E-01  8.00000000E-01
  8.50000000E-01  8.50000000E-01  8.50000000E-01  8.00000000E-01  8.50000000E-01
  8.50000000E-01  8.50000000E-01  8.00000000E-01  8.50000000E-01  8.50000000E-01
  8.50000000E-01  8.00000000E-01  8.50000000E-01  8.50000000E-01  8.50000000E-01
  8.00000000E-01  8.50000000E-01  8.50000000E-01  8.50000000E-01  8.00000000E-01
  8.50000000E-01  8.50000000E-01  8.50000000E-01  8.00000000E-01  8.50000000E-01
  8.50000000E-01  8.50000000E-01  8.00000000E-01  8.50000000E-01  8.50000000E-01
  8.50000000E-01  8.00000000E-01  8.50000000E-01  8.50000000E-01  8.50000000E-01
  8.00000000E-01  8.50000000E-01  8.50000000E-01  8.50000000E-01  8.00000000E-01
  8.50000000E-01  8.50000000E-01  8.50000000E-01  8.00000000E-01  8.50000000E-01
  8.50000000E-01  8.50000000E-01  8.00000000E-01  8.50000000E-01  8.50000000E-01
  8.50000000E-01  8.00000000E-01  8.50000000E-01  8.50000000E-01  8.50000000E-01
  8.00000000E-01  8.50000000E-01  8.50000000E-01  8.50000000E-01  8.00000000E-01
  8.50000000E-01  8.50000000E-01  8.50000000E-01  8.00000000E-01  8.50000000E-01
  8.50000000E-01  8.50000000E-01  8.00000000E-01  8.50000000E-01  8.50000000E-01
  8.50000000E-01  8.00000000E-01  8.50000000E-01  8.50000000E-01  8.50000000E-01
  8.00000000E-01  8.50000000E-01  8.50000000E-01  8.50000000E-01  8.00000000E-01
  8.50000000E-01  8.50000000E-01  8.50000000E-01  8.00000000E-01  8.50000000E-01
  8.50000000E-01  8.50000000E-01  8.00000000E-01  8.50000000E-01  8.50000000E-01
  8.50000000E-01  8.00000000E-01  8.50000000E-01  8.50000000E-01  8.50000000E-01
  8.00000000E-01  8.50000000E-01  8.50000000E-01  8.50000000E-01  8.00000000E-01
  8.50000000E-01  8.50000000E-01  8.50000000E-01  8.00000000E-01  8.50000000E-01
  8.50000000E-01  8.50000000E-01  8.00000000E-01  8.50000000E-01  8.50000000E-01
  8.50000000E-01  8.00000000E-01  8.50000000E-01  8.50000000E-01  8.50000000E-01
  8.00000000E-01  8.50000000E-01  8.50000000E-01  8.50000000E-01  8.00000000E-01
  8.50000000E-01  8.50000000E-01  8.50000000E-01  8.00000000E-01  8.50000000E-01
  8.50000000E-01  8.50000000E-01  8.00000000E-01  8.50000000E-01  8.50000000E-01
  8.50000000E-01  8.00000000E-01  8.50000000E-01  8.50000000E-01  8.50000000E-01
  8.00000000E-01  8.50000000E-01  8.50000000E-01  8.50000000E-01  8.00000000E-01
  8.50000000E-01  8.50000000E-01  8.50000000E-01  8.00000000E-01  8.50000000E-01
  8.50000000E-01  8.50000000E-01  8.00000000E-01  8.50000000E-01  8.50000000E-01
  8.50000000E-01  8.00000000E-01  8.50000000E-01  8.50000000E-01  8.50000000E-01
  8.00000000E-01  8.50000000E-01  8.50000000E-01  8.50000000E-01  8.00000000E-01
  8.50000000E-01  8.50000000E-01  8.50000000E-01  8.00000000E-01  8.50000000E-01
  8.50000000E-01  8.50000000E-01  8.00000000E-01  8.50000000E-01  8.50000000E-01
  8.50000000E-01  8.00000000E-01  8.50000000E-01  8.50000000E-01  8.50000000E-01
  8.00000000E-01  8.50000000E-01  8.50000000E-01  8.50000000E-01  8.00000000E-01
  8.50000000E-01  8.50000000E-01  8.50000000E-01  8.00000000E-01  8.50000000E-01
  8.50000000E-01  8.50000000E-01  8.00000000E-01  8.50000000E-01  8.50000000E-01
  8.50000000E-01  8.00000000E-01  8.50000000E-01  8.50000000E-01  8.50000000E-01
  8.00000000E-01  8.50000000E-01  8.50000000E-01  8.50000000E-01  8.00000000E-01
  8.50000000E-01  8.50000000E-01  8.50000000E-01  8.00000000E-01  8.50000000E-01
  8.50000000E-01  8.50000000E-01  8.00000000E-01  8.50000000E-01  8.50000000E-01
  8.50000000E-01  8.00000000E-01  8.50000000E-01  8.50000000E-01  8.50000000E-01
  8.00000000E-01  8.50000000E-01  8.50000000E-01  8.50000000E-01  8.00000000E-01
  8.50000000E-01  8.50000000E-01  8.50000000E-01  8.00000000E-01  8.50000000E-01
  8.50000000E-01  8.50000000E-01  8.00000000E-01  8.50000000E-01  8.50000000E-01
  8.50000000E-01  8.00000000E-01  8.50000000E-01  8.50000000E-01  8.50000000E-01
  8.00000000E-01  8.50000000E-01  8.50000000E-01  8.50000000E-01  8.00000000E-01
  8.50000000E-01  8.50000000E-01  8.50000000E-01  8.00000000E-01  8.50000000E-01
  8.50000000E-01  8.50000000E-01  8.00000000E-01  8.50000000E-01  8.50000000E-01
  8.50000000E-01  8.00000000E-01  8.50000000E-01  8.50000000E-01  8.50000000E-01
  8.00000000E-01  8.50000000E-01  8.50000000E-01  8.50000000E-01  8.00000000E-01
  8.50000000E-01  8.50000000E-01  8.50000000E-01  8.00000000E-01  8.50000000E-01
  8.50000000E-01  8.50000000E-01  8.00000000E-01  8.50000000E-01  8.50000000E-01
  8.50000000E-01  8.00000000E-01  8.50000000E-01  8.50000000E-01  8.50000000E-01
  8.00000000E-01  8.50000000E-01  8.50000000E-01  8.50000000E-01  8.00000000E-01
  8.50000000E-01  8.50000000E-01  8.50000000E-01  8.00000000E-01  8.50000000E-01
  8.50000000E-01  8.50000000E-01  8.00000000E-01  8.50000000E-01  8.50000000E-01
  8.50000000E-01  8.00000000E-01  8.50000000E-01  8.50000000E-01  8.50000000E-01
  8.00000000E-01  8.50000000E-01  8.50000000E-01  8.50000000E-01  8.00000000E-01
  8.50000000E-01  8.50000000E-01  8.50000000E-01  8.00000000E-01  8.50000000E-01
  8.50000000E-01  8.50000000E-01  8.00000000E-01  8.50000000E-01  8.50000000E-01
  8.50000000E-01  8.00000000E-01  8.50000000E-01  8.50000000E-01  8.50000000E-01
  8.00000000E-01  8.50000000E-01  8.50000000E-01  8.50000000E-01  8.00000000E-01
  8.50000000E-01  8.50000000E-01  8.50000000E-01  8.00000000E-01  8.50000000E-01
  8.50000000E-01  8.50000000E-01  8.00000000E-01  8.50000000E-01  8.50000000E-01
  8.50000000E-01  8.00000000E-01  8.50000000E-01  8.50000000E-01  8.50000000E-01
  8.00000000E-01  8.50000000E-01  8.50000000E-01  8.50000000E-01  8.00000000E-01
  8.50000000E-01  8.50000000E-01  8.50000000E-01  8.00000000E-01  8.50000000E-01
  8.50000000E-01  8.50000000E-01  8.00000000E-01  8.50000000E-01  8.50000000E-01
  8.50000000E-01  8.00000000E-01  8.50000000E-01  8.50000000E-01  8.50000000E-01
  8.00000000E-01  8.50000000E-01  8.50000000E-01  8.50000000E-01  8.00000000E-01
  8.50000000E-01  8.50000000E-01  8.50000000E-01  8.00000000E-01  8.50000000E-01
  8.50000000E-01  8.50000000E-01  8.00000000E-01  8.50000000E-01  8.50000000E-01
  8.50000000E-01  8.00000000E-01  8.50000000E-01  8.50000000E-01  8.50000000E-01
  8.00000000E-01  8.50000000E-01  8.50000000E-01  8.50000000E-01  8.00000000E-01
  8.50000000E-01  8.50000000E-01  8.50000000E-01  8.00000000E-01  8.50000000E-01
  8.50000000E-01  8.50000000E-01  8.00000000E-01  8.50000000E-01  8.50000000E-01
  8.50000000E-01  8.00000000E-01  8.50000000E-01  8.50000000E-01  8.50000000E-01
  8.00000000E-01  8.50000000E-01  8.50000000E-01  8.50000000E-01  8.00000000E-01
  8.50000000E-01  8.50000000E-01  8.50000000E-01  8.00000000E-01  8.50000000E-01
  8.50000000E-01  8.50000000E-01  8.00000000E-01  8.50000000E-01  8.50000000E-01
  8.50000000E-01  8.00000000E-01  8.50000000E-01  8.50000000E-01  8.50000000E-01
  8.00000000E-01  8.50000000E-01  8.50000000E-01  8.50000000E-01  8.00000000E-01
  8.50000000E-01  8.50000000E-01  8.50000000E-01  8.00000000E-01  8.50000000E-01
  8.50000000E-01  8.50000000E-01  8.00000000E-01  8.50000000E-01  8.50000000E-01
  8.50000000E-01  8.00000000E-01  8.50000000E-01  8.50000000E-01  8.50000000E-01
  8.00000000E-01  8.50000000E-01  8.50000000E-01  8.50000000E-01  8.00000000E-01
  8.50000000E-01  8.50000000E-01  8.50000000E-01  8.00000000E-01  8.50000000E-01
  8.50000000E-01  8.50000000E-01  8.00000000E-01  8.50000000E-01  8.50000000E-01
  8.50000000E-01  8.00000000E-01  8.50000000E-01  8.50000000E-01  8.50000000E-01
  8.00000000E-01  8.50000000E-01  8.50000000E-01  8.50000000E-01  8.00000000E-01
  8.50000000E-01  8.50000000E-01  8.50000000E-01  8.00000000E-01  8.50000000E-01
  8.50000000E-01  8.50000000E-01  8.00000000E-01  8.50000000E-01  8.50000000E-01
  8.50000000E-01  8.00000000E-01  8.50000000E-01  8.50000000E-01  8.50000000E-01
  8.00000000E-01  8.50000000E-01  8.50000000E-01  8.50000000E-01  8.00000000E-01
  8.50000000E-01  8.50000000E-01  8.50000000E-01  8.00000000E-01  8.50000000E-01
  8.50000000E-01  8.50000000E-01  8.00000000E-01  8.50000000E-01  8.50000000E-01
  8.50000000E-01  8.00000000E-01  8.50000000E-01  8.50000000E-01  8.50000000E-01
  8.00000000E-01  8.50000000E-01  8.50000000E-01  8.50000000E-01  8.00000000E-01
  8.50000000E-01  8.50000000E-01  8.50000000E-01  8.00000000E-01  8.50000000E-01
  8.50000000E-01  8.50000000E-01  8.00000000E-01  8.50000000E-01  8.50000000E-01
  8.50000000E-01  8.00000000E-01  8.50000000E-01  8.50000000E-01  8.50000000E-01
  8.00000000E-01  8.50000000E-01  8.50000000E-01  8.50000000E-01  8.00000000E-01
  8.50000000E-01  8.50000000E-01  8.50000000E-01  8.00000000E-01  8.50000000E-01
  8.50000000E-01  8.50000000E-01  8.00000000E-01  8.50000000E-01  8.50000000E-01
  8.50000000E-01  8.00000000E-01  8.50000000E-01  8.50000000E-01  8.50000000E-01
  8.00000000E-01  8.50000000E-01  8.50000000E-01  8.50000000E-01  8.00000000E-01
  8.50000000E-01  8.50000000E-01  8.50000000E-01  8.00000000E-01  8.50000000E-01
  8.50000000E-01  8.50000000E-01  8.00000000E-01  8.50000000E-01  8.50000000E-01
  8.50000000E-01  8.00000000E-01  8.50000000E-01  8.50000000E-01  8.50000000E-01
  8.00000000E-01  8.50000000E-01  8.50000000E-01  8.50000000E-01  8.00000000E-01
  8.50000000E-01  8.50000000E-01  8.50000000E-01  8.00000000E-01  8.50000000E-01
  8.50000000E-01  8.50000000E-01  8.00000000E-01  8.50000000E-01  8.50000000E-01
  8.50000000E-01  8.00000000E-01  8.50000000E-01  8.50000000E-01  8.50000000E-01
  8.00000000E-01  8.50000000E-01  8.50000000E-01  8.50000000E-01  8.00000000E-01
  8.50000000E-01  8.50000000E-01  8.50000000E-01  8.00000000E-01  8.50000000E-01
  8.50000000E-01  8.50000000E-01  8.00000000E-01  8.50000000E-01  8.50000000E-01
  8.50000000E-01  8.00000000E-01  8.50000000E-01  8.50000000E-01  8.50000000E-01
  8.00000000E-01  8.50000000E-01  8.50000000E-01  8.50000000E-01  8.00000000E-01
  8.50000000E-01  8.50000000E-01  8.50000000E-01  8.00000000E-01  8.50000000E-01
  8.50000000E-01  8.50000000E-01  8.00000000E-01  8.50000000E-01  8.50000000E-01
  8.50000000E-01  8.00000000E-01  8.50000000E-01  8.50000000E-01  8.50000000E-01
  8.00000000E-01  8.50000000E-01  8.50000000E-01  8.50000000E-01  8.00000000E-01
  8.50000000E-01  8.50000000E-01  8.50000000E-01  8.00000000E-01  8.50000000E-01
  8.50000000E-01  8.50000000E-01  8.00000000E-01  8.50000000E-01  8.50000000E-01
  8.50000000E-01  8.00000000E-01  8.50000000E-01  8.50000000E-01  8.50000000E-01
  8.00000000E-01  8.50000000E-01  8.50000000E-01  8.50000000E-01  8.00000000E-01
  8.50000000E-01  8.50000000E-01  8.50000000E-01  8.00000000E-01  8.50000000E-01
  8.50000000E-01  8.50000000E-01  8.00000000E-01  8.50000000E-01  8.50000000E-01
  8.50000000E-01  8.00000000E-01  8.50000000E-01  8.50000000E-01  8.50000000E-01
  8.00000000E-01  8.50000000E-01  8.50000000E-01  8.50000000E-01  8.00000000E-01
  8.50000000E-01  8.50000000E-01  8.50000000E-01  8.00000000E-01  8.50000000E-01
  8.50000000E-01  8.50000000E-01  8.00000000E-01  8.50000000E-01  8.50000000E-01
  8.50000000E-01  8.00000000E-01  8.50000000E-01  8.50000000E-01  8.50000000E-01
  8.00000000E-01  8.50000000E-01  8.50000000E-01  8.50000000E-01  8.00000000E-01
  8.50000000E-01  8.50000000E-01  8.50000000E-01  8.00000000E-01  8.50000000E-01
  8.50000000E-01  8.50000000E-01  8.00000000E-01  8.50000000E-01  8.50000000E-01
  8.50000000E-01  8.00000000E-01  8.50000000E-01  8.50000000E-01  8.50000000E-01
  8.00000000E-01  8.50000000E-01  8.50000000E-01  8.50000000E-01  8.00000000E-01
  8.50000000E-01  8.50000000E-01  8.50000000E-01  8.00000000E-01  8.50000000E-01
  8.50000000E-01  8.50000000E-01  8.00000000E-01  8.50000000E-01  8.50000000E-01
  8.50000000E-01  8.00000000E-01  8.50000000E-01  8.50000000E-01  8.50000000E-01
  8.00000000E-01  8.50000000E-01  8.50000000E-01  8.50000000E-01  8.00000000E-01
  8.50000000E-01  8.50000000E-01  8.50000000E-01  8.00000000E-01  8.50000000E-01
  8.50000000E-01  8.50000000E-01  8.00000000E-01  8.50000000E-01  8.50000000E-01
  8.50000000E-01  8.00000000E-01  8.50000000E-01  8.50000000E-01  8.50000000E-01
  8.00000000E-01  8.50000000E-01  8.50000000E-01  8.50000000E-01  8.00000000E-01
  8.50000000E-01  8.50000000E-01  8.50000000E-01  8.00000000E-01  8.50000000E-01
  8.50000000E-01  8.50000000E-01  8.00000000E-01  8.50000000E-01  8.50000000E-01
  8.50000000E-01  8.00000000E-01  8.50000000E-01  8.50000000E-01  8.50000000E-01
  8.00000000E-01  8.50000000E-01  8.50000000E-01  8.50000000E-01  8.00000000E-01
  8.50000000E-01  8.50000000E-01  8.50000000E-01  8.00000000E-01  8.50000000E-01
  8.50000000E-01  8.50000000E-01  8.00000000E-01  8.50000000E-01  8.50000000E-01
  8.50000000E-01  8.00000000E-01  8.50000000E-01  8.50000000E-01  8.50000000E-01
  8.00000000E-01  8.50000000E-01  8.50000000E-01  8.50000000E-01  8.00000000E-01
  8.50000000E-01  8.50000000E-01  8.50000000E-01  8.00000000E-01  8.50000000E-01
  8.50000000E-01  8.50000000E-01  8.00000000E-01  8.50000000E-01  8.50000000E-01
  8.50000000E-01  8.00000000E-01  8.50000000E-01  8.50000000E-01  8.50000000E-01
  8.00000000E-01  8.50000000E-01  8.50000000E-01  8.50000000E-01  8.00000000E-01
  8.50000000E-01  8.50000000E-01  8.50000000E-01  8.00000000E-01  8.50000000E-01
  8.50000000E-01  8.50000000E-01  8.00000000E-01  8.50000000E-01  8.50000000E-01
  8.50000000E-01  8.00000000E-01  8.50000000E-01  8.50000000E-01  8.50000000E-01
  8.00000000E-01  8.50000000E-01  8.50000000E-01  8.50000000E-01  8.00000000E-01
  8.50000000E-01  8.50000000E-01  8.50000000E-01  8.00000000E-01  8.50000000E-01
  8.50000000E-01  8.50000000E-01  8.00000000E-01  8.50000000E-01  8.50000000E-01
  8.50000000E-01  8.00000000E-01  8.50000000E-01  8.50000000E-01  8.50000000E-01
  8.00000000E-01  8.50000000E-01  8.50000000E-01  8.50000000E-01  8.00000000E-01
  8.50000000E-01  8.50000000E-01  8.50000000E-01  8.00000000E-01  8.50000000E-01
  8.50000000E-01  8.50000000E-01  8.00000000E-01  8.50000000E-01  8.50000000E-01
  8.50000000E-01  8.00000000E-01  8.50000000E-01  8.50000000E-01  8.50000000E-01
  8.00000000E-01  8.50000000E-01  8.50000000E-01  8.50000000E-01  8.00000000E-01
  8.50000000E-01  8.50000000E-01  8.50000000E-01  8.00000000E-01  8.50000000E-01
  8.50000000E-01  8.50000000E-01  8.00000000E-01  8.50000000E-01  8.50000000E-01
  8.50000000E-01  8.00000000E-01  8.50000000E-01  8.50000000E-01  8.50000000E-01
  8.00000000E-01  8.50000000E-01  8.50000000E-01  8.50000000E-01  8.00000000E-01
  8.50000000E-01  8.50000000E-01  8.50000000E-01  8.00000000E-01  8.50000000E-01
  8.50000000E-01  8.50000000E-01  8.00000000E-01  8.50000000E-01  8.50000000E-01
  8.50000000E-01  8.00000000E-01  8.50000000E-01  8.50000000E-01  8.50000000E-01
  8.00000000E-01  8.50000000E-01  8.50000000E-01  8.50000000E-01  8.00000000E-01
  8.50000000E-01  8.50000000E-01  8.50000000E-01  8.00000000E-01  8.50000000E-01
  8.50000000E-01  8.50000000E-01  8.00000000E-01  8.50000000E-01  8.50000000E-01
  8.50000000E-01  8.00000000E-01  8.50000000E-01  8.50000000E-01  8.50000000E-01
  8.00000000E-01  8.50000000E-01  8.50000000E-01  8.50000000E-01  8.00000000E-01
  8.50000000E-01  8.50000000E-01  8.50000000E-01  8.00000000E-01  8.50000000E-01
  8.50000000E-01  8.50000000E-01  8.00000000E-01  8.50000000E-01  8.50000000E-01
  8.50000000E-01  8.00000000E-01  8.50000000E-01  8.50000000E-01  8.50000000E-01
  8.00000000E-01  8.50000000E-01  8.50000000E-01  8.50000000E-01  8.00000000E-01
  8.50000000E-01  8.50000000E-01  8.50000000E-01  8.00000000E-01  8.50000000E-01
  8.50000000E-01  8.50000000E-01  8.00000000E-01  8.50000000E-01  8.50000000E-01
  8.50000000E-01  8.00000000E-01  8.50000000E-01  8.50000000E-01  8.50000000E-01
  8.00000000E-01  8.50000000E-01  8.50000000E-01  8.50000000E-01  8.00000000E-01
  8.50000000E-01  8.50000000E-01  8.50000000E-01  8.00000000E-01  8.50000000E-01
  8.50000000E-01  8.50000000E-01  8.00000000E-01  8.50000000E-01  8.50000000E-01
  8.50000000E-01  8.00000000E-01  8.50000000E-01  8.50000000E-01  8.50000000E-01
  8.00000000E-01  8.50000000E-01  8.50000000E-01  8.50000000E-01  8.00000000E-01
  8.50000000E-01  8.50000000E-01  8.50000000E-01  8.00000000E-01  8.50000000E-01
  8.50000000E-01  8.50000000E-01  8.00000000E-01  8.50000000E-01  8.50000000E-01
  8.50000000E-01  8.00000000E-01  8.50000000E-01  8.50000000E-01  8.50000000E-01
  8.00000000E-01  8.50000000E-01  8.50000000E-01  8.50000000E-01  8.00000000E-01
  8.50000000E-01  8.50000000E-01  8.50000000E-01  8.00000000E-01  8.50000000E-01
  8.50000000E-01  8.50000000E-01  8.00000000E-01  8.50000000E-01  8.50000000E-01
  8.50000000E-01  8.00000000E-01  8.50000000E-01  8.50000000E-01  8.50000000E-01
  8.00000000E-01  8.50000000E-01  8.50000000E-01  8.50000000E-01  8.00000000E-01
  8.50000000E-01  8.50000000E-01  8.50000000E-01  8.00000000E-01  8.50000000E-01
  8.50000000E-01  8.50000000E-01  8.00000000E-01  8.50000000E-01  8.50000000E-01
  8.50000000E-01  8.00000000E-01  8.50000000E-01  8.50000000E-01  8.50000000E-01
  8.00000000E-01  8.50000000E-01  8.50000000E-01  8.50000000E-01  8.00000000E-01
  8.50000000E-01  8.50000000E-01  8.50000000E-01  8.00000000E-01  8.50000000E-01
  8.50000000E-01  8.50000000E-01  8.00000000E-01  8.50000000E-01  8.50000000E-01
  8.50000000E-01  8.00000000E-01  8.50000000E-01  8.50000000E-01  8.50000000E-01
  8.00000000E-01  8.50000000E-01  8.50000000E-01  8.50000000E-01  8.00000000E-01
  8.50000000E-01  8.50000000E-01  8.50000000E-01  8.00000000E-01  8.50000000E-01
  8.50000000E-01  8.50000000E-01  8.00000000E-01  8.50000000E-01  8.50000000E-01
  8.50000000E-01  8.00000000E-01  8.50000000E-01  8.50000000E-01  8.50000000E-01
  8.00000000E-01  8.50000000E-01  8.50000000E-01  8.50000000E-01  8.00000000E-01
  8.50000000E-01  8.50000000E-01  8.50000000E-01  8.00000000E-01  8.50000000E-01
  8.50000000E-01  8.50000000E-01  8.00000000E-01  8.50000000E-01  8.50000000E-01
  8.50000000E-01  8.00000000E-01  8.50000000E-01  8.50000000E-01  8.50000000E-01
  8.00000000E-01  8.50000000E-01  8.50000000E-01  8.50000000E-01  8.00000000E-01
  8.50000000E-01  8.50000000E-01  8.50000000E-01  8.00000000E-01  8.50000000E-01
  8.50000000E-01  8.50000000E-01  8.00000000E-01  8.50000000E-01  8.50000000E-01
  8.50000000E-01  8.00000000E-01  8.50000000E-01  8.50000000E-01  8.50000000E-01
  8.00000000E-01  8.50000000E-01  8.50000000E-01  8.50000000E-01  8.00000000E-01
  8.50000000E-01  8.50000000E-01  8.50000000E-01  8.00000000E-01  8.50000000E-01
  8.50000000E-01  8.50000000E-01  8.00000000E-01  8.50000000E-01  8.50000000E-01
  8.50000000E-01  8.00000000E-01  8.50000000E-01  8.50000000E-01  8.50000000E-01
  8.00000000E-01  8.50000000E-01  8.50000000E-01  8.50000000E-01  8.00000000E-01
  8.50000000E-01  8.50000000E-01  8.50000000E-01  8.00000000E-01  8.50000000E-01
  8.50000000E-01  8.50000000E-01  8.00000000E-01  8.50000000E-01  8.50000000E-01
  8.50000000E-01  8.00000000E-01  8.50000000E-01  8.50000000E-01  8.50000000E-01
  8.00000000E-01  8.50000000E-01  8.50000000E-01  8.50000000E-01  8.00000000E-01
  8.50000000E-01  8.50000000E-01  8.50000000E-01  8.00000000E-01  8.50000000E-01
  8.50000000E-01  8.50000000E-01  8.00000000E-01  8.50000000E-01  8.50000000E-01
  8.50000000E-01  8.00000000E-01  8.50000000E-01  8.50000000E-01  8.50000000E-01
  8.00000000E-01  8.50000000E-01  8.50000000E-01  8.50000000E-01  8.00000000E-01
  8.50000000E-01  8.50000000E-01  8.50000000E-01  8.00000000E-01  8.50000000E-01
  8.50000000E-01  8.50000000E-01  8.00000000E-01  8.50000000E-01  8.50000000E-01
  8.50000000E-01  8.00000000E-01  8.50000000E-01  8.50000000E-01  8.50000000E-01
  8.00000000E-01  8.50000000E-01  8.50000000E-01  8.50000000E-01  8.00000000E-01
  8.50000000E-01  8.50000000E-01  8.50000000E-01  8.00000000E-01  8.50000000E-01
  8.50000000E-01  8.50000000E-01  8.00000000E-01  8.50000000E-01  8.50000000E-01
  8.50000000E-01  8.00000000E-01  8.50000000E-01  8.50000000E-01  8.50000000E-01
  8.00000000E-01  8.50000000E-01  8.50000000E-01  8.50000000E-01  8.00000000E-01
  8.50000000E-01  8.50000000E-01  8.50000000E-01  8.00000000E-01  8.50000000E-01
  8.50000000E-01  8.50000000E-01  8.00000000E-01  8.50000000E-01  8.50000000E-01
  8.50000000E-01  8.00000000E-01  8.50000000E-01  8.50000000E-01  8.50000000E-01
  8.00000000E-01  8.50000000E-01  8.50000000E-01  8.50000000E-01  8.00000000E-01
  8.50000000E-01  8.50000000E-01  8.50000000E-01  8.00000000E-01  8.50000000E-01
  8.50000000E-01  8.50000000E-01  8.00000000E-01  8.50000000E-01  8.50000000E-01
  8.50000000E-01  8.00000000E-01  8.50000000E-01  8.50000000E-01  8.50000000E-01
  8.00000000E-01  8.50000000E-01  8.50000000E-01  8.50000000E-01  8.00000000E-01
  8.50000000E-01  8.50000000E-01  8.50000000E-01  8.00000000E-01  8.50000000E-01
  8.50000000E-01  8.50000000E-01  8.00000000E-01  8.50000000E-01  8.50000000E-01
  8.50000000E-01  8.00000000E-01  8.50000000E-01  8.50000000E-01  8.50000000E-01
  8.00000000E-01  8.50000000E-01  8.50000000E-01  8.50000000E-01  8.00000000E-01
  8.50000000E-01  8.50000000E-01  8.50000000E-01  8.00000000E-01  8.50000000E-01
  8.50000000E-01  8.50000000E-01  8.00000000E-01  8.50000000E-01  8.50000000E-01
  8.50000000E-01  8.00000000E-01  8.50000000E-01  8.50000000E-01  8.50000000E-01
  8.00000000E-01  8.50000000E-01  8.50000000E-01  8.50000000E-01  8.00000000E-01
  8.50000000E-01  8.50000000E-01  8.50000000E-01  8.00000000E-01  8.50000000E-01
  8.50000000E-01  8.50000000E-01  8.00000000E-01  8.50000000E-01  8.50000000E-01
  8.50000000E-01  8.00000000E-01  8.50000000E-01  8.50000000E-01  8.50000000E-01
  8.00000000E-01  8.50000000E-01  8.50000000E-01  8.50000000E-01  8.00000000E-01
  8.50000000E-01  8.50000000E-01  8.50000000E-01  8.00000000E-01  8.50000000E-01
  8.50000000E-01  8.50000000E-01  8.00000000E-01  8.50000000E-01  8.50000000E-01
  8.50000000E-01  8.00000000E-01  8.50000000E-01  8.50000000E-01  8.50000000E-01
  8.00000000E-01  8.50000000E-01  8.50000000E-01  8.50000000E-01  8.00000000E-01
  8.50000000E-01  8.50000000E-01  8.50000000E-01  8.00000000E-01  8.50000000E-01
  8.50000000E-01  8.50000000E-01  8.00000000E-01  8.50000000E-01  8.50000000E-01
  8.50000000E-01  8.00000000E-01  8.50000000E-01  8.50000000E-01  8.50000000E-01
  8.00000000E-01  8.50000000E-01  8.50000000E-01  8.50000000E-01  8.00000000E-01
  8.50000000E-01  8.50000000E-01  8.50000000E-01  8.00000000E-01  8.50000000E-01
  8.50000000E-01  8.50000000E-01  8.00000000E-01  8.50000000E-01  8.50000000E-01
  8.50000000E-01  8.00000000E-01  8.50000000E-01  8.50000000E-01  8.50000000E-01
  8.00000000E-01  8.50000000E-01  8.50000000E-01  8.50000000E-01  8.00000000E-01
  8.50000000E-01  8.50000000E-01  8.50000000E-01  8.00000000E-01  8.50000000E-01
  8.50000000E-01  8.50000000E-01  8.00000000E-01  8.50000000E-01  8.50000000E-01
  8.50000000E-01  8.00000000E-01  8.50000000E-01  8.50000000E-01  8.50000000E-01
  8.00000000E-01  8.50000000E-01  8.50000000E-01  8.50000000E-01  8.00000000E-01
  8.50000000E-01  8.50000000E-01  8.50000000E-01  8.00000000E-01  8.50000000E-01
  8.50000000E-01  8.50000000E-01  8.00000000E-01  8.50000000E-01  8.50000000E-01
  8.50000000E-01  8.00000000E-01  8.50000000E-01  8.50000000E-01  8.50000000E-01
  8.00000000E-01  8.50000000E-01  8.50000000E-01  8.50000000E-01  8.00000000E-01
  8.50000000E-01  8.50000000E-01  8.50000000E-01  8.00000000E-01  8.50000000E-01
  8.50000000E-01  8.50000000E-01  8.00000000E-01  8.50000000E-01  8.50000000E-01
  8.50000000E-01  8.00000000E-01  8.50000000E-01  8.50000000E-01  8.50000000E-01
  8.00000000E-01  8.50000000E-01  8.50000000E-01  8.50000000E-01  8.00000000E-01
  8.50000000E-01  8.50000000E-01  8.50000000E-01  8.00000000E-01  8.50000000E-01
  8.50000000E-01  8.50000000E-01  8.00000000E-01  8.50000000E-01  8.50000000E-01
  8.50000000E-01  8.00000000E-01  8.50000000E-01  8.50000000E-01  8.50000000E-01
  8.00000000E-01  8.50000000E-01  8.50000000E-01  8.50000000E-01  8.00000000E-01
  8.50000000E-01  8.50000000E-01  8.50000000E-01  8.00000000E-01  8.50000000E-01
  8.50000000E-01  8.50000000E-01  8.00000000E-01  8.50000000E-01  8.50000000E-01
  8.50000000E-01  8.00000000E-01  8.50000000E-01  8.50000000E-01  8.50000000E-01
  8.00000000E-01  8.50000000E-01  8.50000000E-01  8.50000000E-01  8.00000000E-01
  8.50000000E-01  8.50000000E-01  8.50000000E-01  8.00000000E-01  8.50000000E-01
  8.50000000E-01  8.50000000E-01  8.00000000E-01  8.50000000E-01  8.50000000E-01
  8.50000000E-01  8.00000000E-01  8.50000000E-01  8.50000000E-01  8.50000000E-01
  8.00000000E-01  8.50000000E-01  8.50000000E-01  8.50000000E-01  8.00000000E-01
  8.50000000E-01  8.50000000E-01  8.50000000E-01  8.00000000E-01  8.50000000E-01
  8.50000000E-01  8.50000000E-01  8.00000000E-01  8.50000000E-01  8.50000000E-01
  8.50000000E-01  8.00000000E-01  8.50000000E-01  8.50000000E-01  8.50000000E-01
  8.00000000E-01  8.50000000E-01  8.50000000E-01  8.50000000E-01  8.00000000E-01
  8.50000000E-01  8.50000000E-01  8.50000000E-01  8.00000000E-01  8.50000000E-01
  8.50000000E-01  8.50000000E-01  8.00000000E-01  8.50000000E-01  8.50000000E-01
  8.50000000E-01  8.00000000E-01  8.50000000E-01  8.50000000E-01  8.50000000E-01
  8.00000000E-01  8.50000000E-01  8.50000000E-01  8.50000000E-01  8.00000000E-01
  8.50000000E-01  8.50000000E-01  8.50000000E-01  8.00000000E-01  8.50000000E-01
  8.50000000E-01  8.50000000E-01  8.00000000E-01  8.50000000E-01  8.50000000E-01
  8.50000000E-01  8.00000000E-01  8.50000000E-01  8.50000000E-01  8.50000000E-01
  8.00000000E-01  8.50000000E-01  8.50000000E-01  8.50000000E-01  8.00000000E-01
  8.50000000E-01  8.50000000E-01  8.50000000E-01  8.00000000E-01  8.50000000E-01
  8.50000000E-01  8.50000000E-01  8.00000000E-01  8.50000000E-01  8.50000000E-01
  8.50000000E-01  8.00000000E-01  8.50000000E-01  8.50000000E-01  8.50000000E-01
  8.00000000E-01  8.50000000E-01  8.50000000E-01  8.50000000E-01  8.00000000E-01
  8.50000000E-01  8.50000000E-01  8.50000000E-01  8.00000000E-01  8.50000000E-01
  8.50000000E-01  8.50000000E-01  8.00000000E-01  8.50000000E-01  8.50000000E-01
  8.50000000E-01  8.00000000E-01  8.50000000E-01  8.50000000E-01  8.50000000E-01
  8.00000000E-01  8.50000000E-01  8.50000000E-01  8.50000000E-01  8.00000000E-01
  8.50000000E-01  8.50000000E-01  8.50000000E-01  8.00000000E-01  8.50000000E-01
  8.50000000E-01  8.50000000E-01  8.00000000E-01  8.50000000E-01  8.50000000E-01
  8.50000000E-01  8.00000000E-01  8.50000000E-01  8.50000000E-01  8.50000000E-01
  8.00000000E-01  8.50000000E-01  8.50000000E-01  8.50000000E-01  8.00000000E-01
  8.50000000E-01  8.50000000E-01  8.50000000E-01  8.00000000E-01  8.50000000E-01
  8.50000000E-01  8.50000000E-01  8.00000000E-01  8.50000000E-01  8.50000000E-01
  8.50000000E-01  8.00000000E-01  8.50000000E-01  8.50000000E-01  8.50000000E-01
  8.00000000E-01  8.50000000E-01  8.50000000E-01  8.50000000E-01  8.00000000E-01
  8.50000000E-01  8.50000000E-01  8.50000000E-01  8.00000000E-01  8.50000000E-01
  8.50000000E-01  8.50000000E-01  8.00000000E-01  8.50000000E-01  8.50000000E-01
  8.50000000E-01  8.00000000E-01  8.50000000E-01  8.50000000E-01  8.50000000E-01
  8.00000000E-01  8.50000000E-01  8.50000000E-01  8.50000000E-01  8.00000000E-01
  8.50000000E-01  8.50000000E-01  8.50000000E-01  8.00000000E-01  8.50000000E-01
  8.50000000E-01  8.50000000E-01  8.00000000E-01  8.50000000E-01  8.50000000E-01
  8.50000000E-01  8.00000000E-01  8.50000000E-01  8.50000000E-01  8.50000000E-01
  8.00000000E-01  8.50000000E-01  8.50000000E-01  8.50000000E-01  8.00000000E-01
  8.50000000E-01  8.50000000E-01  8.50000000E-01  8.00000000E-01  8.50000000E-01
  8.50000000E-01  8.50000000E-01  8.00000000E-01  8.50000000E-01  8.50000000E-01
  8.50000000E-01  8.00000000E-01  8.50000000E-01  8.50000000E-01  8.50000000E-01
  8.00000000E-01  8.50000000E-01  8.50000000E-01  8.50000000E-01  8.00000000E-01
  8.50000000E-01  8.50000000E-01  8.50000000E-01  8.00000000E-01  8.50000000E-01
  8.50000000E-01  8.50000000E-01  8.00000000E-01  8.50000000E-01  8.50000000E-01
  8.50000000E-01  8.00000000E-01  8.50000000E-01  8.50000000E-01  8.50000000E-01
  8.00000000E-01  8.50000000E-01  8.50000000E-01  8.50000000E-01  8.00000000E-01
  8.50000000E-01  8.50000000E-01  8.50000000E-01  8.00000000E-01  8.50000000E-01
  8.50000000E-01  8.50000000E-01  8.00000000E-01  8.50000000E-01  8.50000000E-01
  8.50000000E-01  8.00000000E-01  8.50000000E-01  8.50000000E-01  8.50000000E-01
  8.00000000E-01  8.50000000E-01  8.50000000E-01  8.50000000E-01  8.00000000E-01
  8.50000000E-01  8.50000000E-01  8.50000000E-01  8.00000000E-01  8.50000000E-01
  8.50000000E-01  8.50000000E-01  8.00000000E-01  8.50000000E-01  8.50000000E-01
  8.50000000E-01  8.00000000E-01  8.50000000E-01  8.50000000E-01  8.50000000E-01
  8.00000000E-01  8.50000000E-01  8.50000000E-01  8.50000000E-01  8.00000000E-01
  8.50000000E-01  8.50000000E-01  8.50000000E-01  8.00000000E-01  8.50000000E-01
  8.50000000E-01  8.50000000E-01  8.00000000E-01  8.50000000E-01  8.50000000E-01
  8.50000000E-01  8.00000000E-01  8.50000000E-01  8.50000000E-01  8.50000000E-01
  8.00000000E-01  8.50000000E-01  8.50000000E-01  8.50000000E-01  8.00000000E-01
  8.50000000E-01  8.50000000E-01  8.50000000E-01  8.00000000E-01  8.50000000E-01
  8.50000000E-01  8.50000000E-01  8.00000000E-01  8.50000000E-01  8.50000000E-01
  8.50000000E-01  8.00000000E-01  8.50000000E-01  8.50000000E-01  8.50000000E-01
  8.00000000E-01  8.50000000E-01  8.50000000E-01  8.50000000E-01  8.00000000E-01
  8.50000000E-01  8.50000000E-01  8.50000000E-01  8.00000000E-01  8.50000000E-01
  8.50000000E-01  8.50000000E-01  8.00000000E-01  8.50000000E-01  8.50000000E-01
  8.50000000E-01  8.00000000E-01  8.50000000E-01  8.50000000E-01  8.50000000E-01
  8.00000000E-01  8.50000000E-01  8.50000000E-01  8.50000000E-01  8.00000000E-01
  8.50000000E-01  8.50000000E-01  8.50000000E-01  8.00000000E-01  8.50000000E-01
  8.50000000E-01  8.50000000E-01  8.00000000E-01  8.50000000E-01  8.50000000E-01
  8.50000000E-01  8.00000000E-01  8.50000000E-01  8.50000000E-01  8.50000000E-01
  8.00000000E-01  8.50000000E-01  8.50000000E-01  8.50000000E-01  8.00000000E-01
  8.50000000E-01  8.50000000E-01  8.50000000E-01  8.00000000E-01  8.50000000E-01
  8.50000000E-01  8.50000000E-01  8.00000000E-01  8.50000000E-01  8.50000000E-01
  8.50000000E-01  8.00000000E-01  8.50000000E-01  8.50000000E-01  8.50000000E-01
  8.00000000E-01  8.50000000E-01  8.50000000E-01  8.50000000E-01  8.00000000E-01
  8.50000000E-01  8.50000000E-01  8.50000000E-01  8.00000000E-01  8.50000000E-01
  8.50000000E-01  8.50000000E-01  8.00000000E-01  8.50000000E-01  8.50000000E-01
  8.50000000E-01  8.00000000E-01  8.50000000E-01  8.50000000E-01  8.50000000E-01
  8.00000000E-01  8.50000000E-01  8.50000000E-01  8.50000000E-01  8.00000000E-01
  8.50000000E-01  8.50000000E-01  8.50000000E-01  8.00000000E-01  8.50000000E-01
  8.50000000E-01  8.50000000E-01  8.00000000E-01  8.50000000E-01  8.50000000E-01
  8.50000000E-01  8.00000000E-01  8.50000000E-01  8.50000000E-01  8.50000000E-01
  8.00000000E-01  8.50000000E-01  8.50000000E-01  8.50000000E-01  8.00000000E-01
  8.50000000E-01  8.50000000E-01  8.50000000E-01  8.00000000E-01  8.50000000E-01
  8.50000000E-01  8.50000000E-01  8.00000000E-01  8.50000000E-01  8.50000000E-01
  8.50000000E-01  8.00000000E-01  8.50000000E-01  8.50000000E-01  8.50000000E-01
  8.00000000E-01  8.50000000E-01  8.50000000E-01  8.50000000E-01  8.00000000E-01
  8.50000000E-01  8.50000000E-01  8.50000000E-01  8.00000000E-01  8.50000000E-01
  8.50000000E-01  8.50000000E-01  8.00000000E-01  8.50000000E-01  8.50000000E-01
  8.50000000E-01  8.00000000E-01  8.50000000E-01  8.50000000E-01  8.50000000E-01
  8.00000000E-01  8.50000000E-01  8.50000000E-01  8.50000000E-01  8.00000000E-01
  8.50000000E-01  8.50000000E-01  8.50000000E-01  8.00000000E-01  8.50000000E-01
  8.50000000E-01  8.50000000E-01  8.00000000E-01  8.50000000E-01  8.50000000E-01
  8.50000000E-01  8.00000000E-01  8.50000000E-01  8.50000000E-01  8.50000000E-01
  8.00000000E-01  8.50000000E-01  8.50000000E-01  8.50000000E-01  8.00000000E-01
  8.50000000E-01  8.50000000E-01  8.50000000E-01  8.00000000E-01  8.50000000E-01
  8.50000000E-01  8.50000000E-01  8.00000000E-01  8.50000000E-01  8.50000000E-01
  8.50000000E-01  8.00000000E-01  8.50000000E-01  8.50000000E-01  8.50000000E-01
  8.00000000E-01  8.50000000E-01  8.50000000E-01  8.50000000E-01  8.00000000E-01
  8.50000000E-01  8.50000000E-01  8.50000000E-01  8.00000000E-01  8.50000000E-01
  8.50000000E-01  8.50000000E-01  8.00000000E-01  8.50000000E-01  8.50000000E-01
  8.50000000E-01  8.00000000E-01  8.50000000E-01  8.50000000E-01  8.50000000E-01
  8.00000000E-01  8.50000000E-01  8.50000000E-01  8.50000000E-01  8.00000000E-01
  8.50000000E-01  8.50000000E-01  8.50000000E-01  8.00000000E-01  8.50000000E-01
  8.50000000E-01  8.50000000E-01  8.00000000E-01  8.50000000E-01  8.50000000E-01
  8.50000000E-01  8.00000000E-01  8.50000000E-01  8.50000000E-01  8.50000000E-01
  8.00000000E-01  8.50000000E-01  8.50000000E-01  8.50000000E-01  8.00000000E-01
  8.50000000E-01  8.50000000E-01  8.50000000E-01  8.00000000E-01  8.50000000E-01
  8.50000000E-01  8.50000000E-01  8.00000000E-01  8.50000000E-01  8.50000000E-01
  8.50000000E-01  8.00000000E-01  8.50000000E-01  8.50000000E-01  8.50000000E-01
  8.00000000E-01  8.50000000E-01  8.50000000E-01  8.50000000E-01  8.00000000E-01
  8.50000000E-01  8.50000000E-01  8.50000000E-01  8.00000000E-01  8.50000000E-01
  8.50000000E-01  8.50000000E-01  8.00000000E-01  8.50000000E-01  8.50000000E-01
  8.50000000E-01  8.00000000E-01  8.50000000E-01  8.50000000E-01  8.50000000E-01
  8.00000000E-01  8.50000000E-01  8.50000000E-01  8.50000000E-01  8.00000000E-01
  8.50000000E-01  8.50000000E-01  8.50000000E-01  8.00000000E-01  8.50000000E-01
  8.50000000E-01  8.50000000E-01  8.00000000E-01  8.50000000E-01  8.50000000E-01
  8.50000000E-01  8.00000000E-01  8.50000000E-01  8.50000000E-01  8.50000000E-01
  8.00000000E-01  8.50000000E-01  8.50000000E-01  8.50000000E-01  8.00000000E-01
  8.50000000E-01  8.50000000E-01  8.50000000E-01  8.00000000E-01  8.50000000E-01
  8.50000000E-01  8.50000000E-01  8.00000000E-01  8.50000000E-01  8.50000000E-01
  8.50000000E-01  8.00000000E-01  8.50000000E-01  8.50000000E-01  8.50000000E-01
  8.00000000E-01  8.50000000E-01  8.50000000E-01  8.50000000E-01  8.00000000E-01
  8.50000000E-01  8.50000000E-01  8.50000000E-01  8.00000000E-01  8.50000000E-01
  8.50000000E-01  8.50000000E-01  8.00000000E-01  8.50000000E-01  8.50000000E-01
  8.50000000E-01  8.00000000E-01  8.50000000E-01  8.50000000E-01  8.50000000E-01
  8.00000000E-01  8.50000000E-01  8.50000000E-01  8.50000000E-01  8.00000000E-01
  8.50000000E-01  8.50000000E-01  8.50000000E-01  8.00000000E-01  8.50000000E-01
  8.50000000E-01  8.50000000E-01  8.00000000E-01  8.50000000E-01  8.50000000E-01
  8.50000000E-01  8.00000000E-01  8.50000000E-01  8.50000000E-01  8.50000000E-01
  8.00000000E-01  8.50000000E-01  8.50000000E-01  8.50000000E-01  8.00000000E-01
  8.50000000E-01  8.50000000E-01  8.50000000E-01  8.00000000E-01  8.50000000E-01
  8.50000000E-01  8.50000000E-01  8.00000000E-01  8.50000000E-01  8.50000000E-01
  8.50000000E-01  8.00000000E-01  8.50000000E-01  8.50000000E-01  8.50000000E-01
  8.00000000E-01  8.50000000E-01  8.50000000E-01  8.50000000E-01  8.00000000E-01
  8.50000000E-01  8.50000000E-01  8.50000000E-01  8.00000000E-01  8.50000000E-01
  8.50000000E-01  8.50000000E-01  8.00000000E-01  8.50000000E-01  8.50000000E-01
  8.50000000E-01  8.00000000E-01  8.50000000E-01  8.50000000E-01  8.50000000E-01
  8.00000000E-01  8.50000000E-01  8.50000000E-01  8.50000000E-01  8.00000000E-01
  8.50000000E-01  8.50000000E-01  8.50000000E-01  8.00000000E-01  8.50000000E-01
  8.50000000E-01  8.50000000E-01  8.00000000E-01  8.50000000E-01  8.50000000E-01
  8.50000000E-01  8.00000000E-01  8.50000000E-01  8.50000000E-01  8.50000000E-01
  8.00000000E-01  8.50000000E-01  8.50000000E-01  8.50000000E-01  8.00000000E-01
  8.50000000E-01  8.50000000E-01  8.50000000E-01  8.00000000E-01  8.50000000E-01
  8.50000000E-01  8.50000000E-01  8.00000000E-01  8.50000000E-01  8.50000000E-01
  8.50000000E-01  8.00000000E-01  8.50000000E-01  8.50000000E-01  8.50000000E-01
  8.00000000E-01  8.50000000E-01  8.50000000E-01  8.50000000E-01  8.00000000E-01
  8.50000000E-01  8.50000000E-01  8.50000000E-01  8.00000000E-01  8.50000000E-01
  8.50000000E-01  8.50000000E-01  8.00000000E-01  8.50000000E-01  8.50000000E-01
  8.50000000E-01  8.00000000E-01  8.50000000E-01  8.50000000E-01  8.50000000E-01
  8.00000000E-01  8.50000000E-01  8.50000000E-01  8.50000000E-01  8.00000000E-01
  8.50000000E-01  8.50000000E-01  8.50000000E-01  8.00000000E-01  8.50000000E-01
  8.50000000E-01  8.50000000E-01  8.00000000E-01  8.50000000E-01  8.50000000E-01
  8.50000000E-01  8.00000000E-01  8.50000000E-01  8.50000000E-01  8.50000000E-01
  8.00000000E-01  8.50000000E-01  8.50000000E-01  8.50000000E-01  8.00000000E-01
  8.50000000E-01  8.50000000E-01  8.50000000E-01  8.00000000E-01  8.50000000E-01
  8.50000000E-01  8.50000000E-01  8.00000000E-01  8.50000000E-01  8.50000000E-01
  8.50000000E-01  8.00000000E-01  8.50000000E-01  8.50000000E-01  8.50000000E-01
  8.00000000E-01  8.50000000E-01  8.50000000E-01  8.50000000E-01  8.00000000E-01
  8.50000000E-01  8.50000000E-01  8.50000000E-01  8.00000000E-01  8.50000000E-01
  8.50000000E-01  8.50000000E-01  8.00000000E-01  8.50000000E-01  8.50000000E-01
  8.50000000E-01  8.00000000E-01  8.50000000E-01  8.50000000E-01  8.50000000E-01
  8.00000000E-01  8.50000000E-01  8.50000000E-01  8.50000000E-01  8.00000000E-01
  8.50000000E-01  8.50000000E-01  8.50000000E-01  8.00000000E-01  8.50000000E-01
  8.50000000E-01  8.50000000E-01  8.00000000E-01  8.50000000E-01  8.50000000E-01
  8.50000000E-01  8.00000000E-01  8.50000000E-01  8.50000000E-01  8.50000000E-01
  8.00000000E-01  8.50000000E-01  8.50000000E-01  8.50000000E-01  8.00000000E-01
  8.50000000E-01  8.50000000E-01  8.50000000E-01  8.00000000E-01  8.50000000E-01
  8.50000000E-01  8.50000000E-01  8.00000000E-01  8.50000000E-01  8.50000000E-01
  8.50000000E-01  8.00000000E-01  8.50000000E-01  8.50000000E-01  8.50000000E-01
  8.00000000E-01  8.50000000E-01  8.50000000E-01  8.50000000E-01  8.00000000E-01
  8.50000000E-01  8.50000000E-01  8.50000000E-01  8.00000000E-01  8.50000000E-01
  8.50000000E-01  8.50000000E-01  8.00000000E-01  8.50000000E-01  8.50000000E-01
  8.50000000E-01  8.00000000E-01  8.50000000E-01  8.50000000E-01  8.50000000E-01
  8.00000000E-01  8.50000000E-01  8.50000000E-01  8.50000000E-01  8.00000000E-01
  8.50000000E-01  8.50000000E-01  8.50000000E-01  8.00000000E-01  8.50000000E-01
  8.50000000E-01  8.50000000E-01  8.00000000E-01  8.50000000E-01  8.50000000E-01
  8.50000000E-01  8.00000000E-01  8.50000000E-01  8.50000000E-01  8.50000000E-01
  8.00000000E-01  8.50000000E-01  8.50000000E-01  8.50000000E-01  8.00000000E-01
  8.50000000E-01  8.50000000E-01  8.50000000E-01  8.00000000E-01  8.50000000E-01
  8.50000000E-01  8.50000000E-01  8.00000000E-01  8.50000000E-01  8.50000000E-01
  8.50000000E-01  8.00000000E-01  8.50000000E-01  8.50000000E-01  8.50000000E-01
  8.00000000E-01  8.50000000E-01  8.50000000E-01  8.50000000E-01  8.00000000E-01
  8.50000000E-01  8.50000000E-01  8.50000000E-01  8.00000000E-01  8.50000000E-01
  8.50000000E-01  8.50000000E-01  8.00000000E-01  8.50000000E-01  8.50000000E-01
  8.50000000E-01  8.00000000E-01  8.50000000E-01  8.50000000E-01  8.50000000E-01
  8.00000000E-01  8.50000000E-01  8.50000000E-01  8.50000000E-01  8.00000000E-01
  8.50000000E-01  8.50000000E-01  8.50000000E-01  8.00000000E-01  8.50000000E-01
  8.50000000E-01  8.50000000E-01  8.00000000E-01  8.50000000E-01  8.50000000E-01
  8.50000000E-01  8.00000000E-01  8.50000000E-01  8.50000000E-01  8.50000000E-01
  8.00000000E-01  8.50000000E-01  8.50000000E-01  8.50000000E-01  8.00000000E-01
  8.50000000E-01  8.50000000E-01  8.50000000E-01  8.00000000E-01  8.50000000E-01
  8.50000000E-01  8.50000000E-01  8.00000000E-01  8.50000000E-01  8.50000000E-01
  8.50000000E-01  8.00000000E-01  8.50000000E-01  8.50000000E-01  8.50000000E-01
  8.00000000E-01  8.50000000E-01  8.50000000E-01  8.50000000E-01  8.00000000E-01
  8.50000000E-01  8.50000000E-01  8.50000000E-01  8.00000000E-01  8.50000000E-01
  8.50000000E-01  8.50000000E-01  8.00000000E-01  8.50000000E-01  8.50000000E-01
  8.50000000E-01  8.00000000E-01  8.50000000E-01  8.50000000E-01  8.50000000E-01
  8.00000000E-01  8.50000000E-01  8.50000000E-01  8.50000000E-01  8.00000000E-01
  8.50000000E-01  8.50000000E-01  8.50000000E-01  8.00000000E-01  8.50000000E-01
  8.50000000E-01  8.50000000E-01  8.00000000E-01  8.50000000E-01  8.50000000E-01
  8.50000000E-01  8.00000000E-01  8.50000000E-01  8.50000000E-01  8.50000000E-01
  8.00000000E-01  8.50000000E-01  8.50000000E-01  8.50000000E-01  8.00000000E-01
  8.50000000E-01  8.50000000E-01  8.50000000E-01  8.00000000E-01  8.50000000E-01
  8.50000000E-01  8.50000000E-01  8.00000000E-01  8.50000000E-01  8.50000000E-01
  8.50000000E-01  8.00000000E-01  8.50000000E-01  8.50000000E-01  8.50000000E-01
  8.00000000E-01  8.50000000E-01  8.50000000E-01  8.50000000E-01  8.00000000E-01
  8.50000000E-01  8.50000000E-01  8.50000000E-01  8.00000000E-01  8.50000000E-01
  8.50000000E-01  8.50000000E-01  8.00000000E-01  8.50000000E-01  8.50000000E-01
  8.50000000E-01  8.00000000E-01  8.50000000E-01  8.50000000E-01  8.50000000E-01
  8.00000000E-01  8.50000000E-01  8.50000000E-01  8.50000000E-01  8.00000000E-01
  8.50000000E-01  8.50000000E-01  8.50000000E-01  8.00000000E-01  8.50000000E-01
  8.50000000E-01  8.50000000E-01  8.00000000E-01  8.50000000E-01  8.50000000E-01
  8.50000000E-01  8.00000000E-01  8.50000000E-01  8.50000000E-01  8.50000000E-01
  8.00000000E-01  8.50000000E-01  8.50000000E-01  8.50000000E-01  8.00000000E-01
  8.50000000E-01  8.50000000E-01  8.50000000E-01  8.00000000E-01  8.50000000E-01
  8.50000000E-01  8.50000000E-01  8.00000000E-01  8.50000000E-01  8.50000000E-01
  8.50000000E-01  8.00000000E-01  8.50000000E-01  8.50000000E-01  8.50000000E-01
  8.00000000E-01  8.50000000E-01  8.50000000E-01  8.50000000E-01  8.00000000E-01
  8.50000000E-01  8.50000000E-01  8.50000000E-01  8.00000000E-01  8.50000000E-01
  8.50000000E-01  8.50000000E-01  8.00000000E-01  8.50000000E-01  8.50000000E-01
  8.50000000E-01  8.00000000E-01  8.50000000E-01  8.50000000E-01  8.50000000E-01
  8.00000000E-01  8.50000000E-01  8.50000000E-01  8.50000000E-01  8.00000000E-01
  8.50000000E-01  8.50000000E-01  8.50000000E-01  8.00000000E-01  8.50000000E-01
  8.50000000E-01  8.50000000E-01  8.00000000E-01  8.50000000E-01  8.50000000E-01
  8.50000000E-01  8.00000000E-01  8.50000000E-01  8.50000000E-01  8.50000000E-01
  8.00000000E-01  8.50000000E-01  8.50000000E-01  8.50000000E-01  8.00000000E-01
  8.50000000E-01  8.50000000E-01  8.50000000E-01  8.00000000E-01  8.50000000E-01
  8.50000000E-01  8.50000000E-01  8.00000000E-01  8.50000000E-01  8.50000000E-01
  8.50000000E-01  8.00000000E-01  8.50000000E-01  8.50000000E-01  8.50000000E-01
  8.00000000E-01  8.50000000E-01  8.50000000E-01  8.50000000E-01  8.00000000E-01
  8.50000000E-01  8.50000000E-01  8.50000000E-01  8.00000000E-01  8.50000000E-01
  8.50000000E-01  8.50000000E-01  8.00000000E-01  8.50000000E-01  8.50000000E-01
  8.50000000E-01  8.00000000E-01  8.50000000E-01  8.50000000E-01  8.50000000E-01
  8.00000000E-01  8.50000000E-01  8.50000000E-01  8.50000000E-01  8.00000000E-01
  8.50000000E-01  8.50000000E-01  8.50000000E-01  8.00000000E-01  8.50000000E-01
  8.50000000E-01  8.50000000E-01  8.00000000E-01  8.50000000E-01  8.50000000E-01
  8.50000000E-01  8.00000000E-01  8.50000000E-01  8.50000000E-01  8.50000000E-01
  8.00000000E-01  8.50000000E-01  8.50000000E-01  8.50000000E-01  8.00000000E-01
  8.50000000E-01  8.50000000E-01  8.50000000E-01  8.00000000E-01  8.50000000E-01
  8.50000000E-01  8.50000000E-01  8.00000000E-01  8.50000000E-01  8.50000000E-01
  8.50000000E-01  8.00000000E-01  8.50000000E-01  8.50000000E-01  8.50000000E-01
  8.00000000E-01  8.50000000E-01  8.50000000E-01  8.50000000E-01  8.00000000E-01
  8.50000000E-01  8.50000000E-01  8.50000000E-01  8.00000000E-01  8.50000000E-01
  8.50000000E-01  8.50000000E-01  8.00000000E-01  8.50000000E-01  8.50000000E-01
  8.50000000E-01  8.00000000E-01  8.50000000E-01  8.50000000E-01  8.50000000E-01
  8.00000000E-01  8.50000000E-01  8.50000000E-01  8.50000000E-01  8.00000000E-01
  8.50000000E-01  8.50000000E-01  8.50000000E-01  8.00000000E-01  8.50000000E-01
  8.50000000E-01  8.50000000E-01  8.00000000E-01  8.50000000E-01  8.50000000E-01
  8.50000000E-01  8.00000000E-01  8.50000000E-01  8.50000000E-01  8.50000000E-01
  8.00000000E-01  8.50000000E-01  8.50000000E-01  8.50000000E-01  8.00000000E-01
  8.50000000E-01  8.50000000E-01  8.50000000E-01  8.00000000E-01  8.50000000E-01
  8.50000000E-01  8.50000000E-01  8.00000000E-01  8.50000000E-01  8.50000000E-01
  8.50000000E-01  8.00000000E-01  8.50000000E-01  8.50000000E-01  8.50000000E-01
  8.00000000E-01  8.50000000E-01  8.50000000E-01  8.50000000E-01  8.00000000E-01
  8.50000000E-01  8.50000000E-01  8.50000000E-01  8.00000000E-01  8.50000000E-01
  8.50000000E-01  8.50000000E-01  8.00000000E-01  8.50000000E-01  8.50000000E-01
  8.50000000E-01  8.00000000E-01  8.50000000E-01  8.50000000E-01  8.50000000E-01
  8.00000000E-01  8.50000000E-01  8.50000000E-01  8.50000000E-01  8.00000000E-01
  8.50000000E-01  8.50000000E-01  8.50000000E-01  8.00000000E-01  8.50000000E-01
  8.50000000E-01  8.50000000E-01  8.00000000E-01  8.50000000E-01  8.50000000E-01
  8.50000000E-01  8.00000000E-01  8.50000000E-01  8.50000000E-01  8.50000000E-01
  8.00000000E-01  8.50000000E-01  8.50000000E-01  8.50000000E-01  8.00000000E-01
  8.50000000E-01  8.50000000E-01  8.50000000E-01  8.00000000E-01  8.50000000E-01
  8.50000000E-01  8.50000000E-01  8.00000000E-01  8.50000000E-01  8.50000000E-01
  8.50000000E-01  8.00000000E-01  8.50000000E-01  8.50000000E-01  8.50000000E-01
  8.00000000E-01  8.50000000E-01  8.50000000E-01  8.50000000E-01  8.00000000E-01
  8.50000000E-01  8.50000000E-01  8.50000000E-01  8.00000000E-01  8.50000000E-01
  8.50000000E-01  8.50000000E-01  8.00000000E-01  8.50000000E-01  8.50000000E-01
  8.50000000E-01  8.00000000E-01  8.50000000E-01  8.50000000E-01  8.50000000E-01
  8.00000000E-01  8.50000000E-01  8.50000000E-01  8.50000000E-01  8.00000000E-01
  8.50000000E-01  8.50000000E-01  8.50000000E-01  8.00000000E-01  8.50000000E-01
  8.50000000E-01  8.50000000E-01  8.00000000E-01  8.50000000E-01  8.50000000E-01
  8.50000000E-01  8.00000000E-01  8.50000000E-01  8.50000000E-01  8.50000000E-01
  8.00000000E-01  8.50000000E-01  8.50000000E-01  8.50000000E-01  8.00000000E-01
  8.50000000E-01  8.50000000E-01  8.50000000E-01  8.00000000E-01  8.50000000E-01
  8.50000000E-01  8.50000000E-01  8.00000000E-01  8.50000000E-01  8.50000000E-01
  8.50000000E-01  8.00000000E-01  8.50000000E-01  8.50000000E-01  8.50000000E-01
  8.00000000E-01  8.50000000E-01  8.50000000E-01  8.50000000E-01  8.00000000E-01
  8.50000000E-01  8.50000000E-01  8.50000000E-01  8.00000000E-01  8.50000000E-01
  8.50000000E-01  8.50000000E-01  8.00000000E-01  8.50000000E-01  8.50000000E-01
  8.50000000E-01  8.00000000E-01  8.50000000E-01  8.50000000E-01  8.50000000E-01
  8.00000000E-01  8.50000000E-01  8.50000000E-01  8.50000000E-01  8.00000000E-01
  8.50000000E-01  8.50000000E-01  8.50000000E-01  8.00000000E-01  8.50000000E-01
  8.50000000E-01  8.50000000E-01  8.00000000E-01  8.50000000E-01  8.50000000E-01
  8.50000000E-01  8.00000000E-01  8.50000000E-01  8.50000000E-01  8.50000000E-01
  8.00000000E-01  8.50000000E-01  8.50000000E-01  8.50000000E-01  8.00000000E-01
  8.50000000E-01  8.50000000E-01  8.50000000E-01  8.00000000E-01  8.50000000E-01
  8.50000000E-01  8.50000000E-01  8.00000000E-01  8.50000000E-01  8.50000000E-01
  8.50000000E-01  8.00000000E-01  8.50000000E-01  8.50000000E-01  8.50000000E-01
  8.00000000E-01  8.50000000E-01  8.50000000E-01  8.50000000E-01  8.00000000E-01
  8.50000000E-01  8.50000000E-01  8.50000000E-01  8.00000000E-01  8.50000000E-01
  8.50000000E-01  8.50000000E-01  8.00000000E-01  8.50000000E-01  8.50000000E-01
  8.50000000E-01  8.00000000E-01  8.50000000E-01  8.50000000E-01  8.50000000E-01
  8.00000000E-01  8.50000000E-01  8.50000000E-01  8.50000000E-01  8.00000000E-01
  8.50000000E-01  8.50000000E-01  8.50000000E-01  8.00000000E-01  8.50000000E-01
  8.50000000E-01  8.50000000E-01  8.00000000E-01  8.50000000E-01  8.50000000E-01
  8.50000000E-01  8.00000000E-01  8.50000000E-01  8.50000000E-01  8.50000000E-01
  8.00000000E-01  8.50000000E-01  8.50000000E-01  8.50000000E-01  8.00000000E-01
  8.50000000E-01  8.50000000E-01  8.50000000E-01  8.00000000E-01  8.50000000E-01
  8.50000000E-01  8.50000000E-01  8.00000000E-01  8.50000000E-01  8.50000000E-01
  8.50000000E-01  8.00000000E-01  8.50000000E-01  8.50000000E-01  8.50000000E-01
  8.00000000E-01  8.50000000E-01  8.50000000E-01  8.50000000E-01  8.00000000E-01
  8.50000000E-01  8.50000000E-01  8.50000000E-01  8.00000000E-01  8.50000000E-01
  8.50000000E-01  8.50000000E-01  8.00000000E-01  8.50000000E-01  8.50000000E-01
  8.50000000E-01  8.00000000E-01  8.50000000E-01  8.50000000E-01  8.50000000E-01
  8.00000000E-01  8.50000000E-01  8.50000000E-01  8.50000000E-01  8.00000000E-01
  8.50000000E-01  8.50000000E-01  8.50000000E-01  8.00000000E-01  8.50000000E-01
  8.50000000E-01  8.50000000E-01  8.00000000E-01  8.50000000E-01  8.50000000E-01
  8.50000000E-01  8.00000000E-01  8.50000000E-01  8.50000000E-01  8.50000000E-01
  8.00000000E-01  8.50000000E-01  8.50000000E-01  8.50000000E-01  8.00000000E-01
  8.50000000E-01  8.50000000E-01  8.50000000E-01  8.00000000E-01  8.50000000E-01
  8.50000000E-01  8.50000000E-01  8.00000000E-01  8.50000000E-01  8.50000000E-01
  8.50000000E-01  8.00000000E-01  8.50000000E-01  8.50000000E-01  8.50000000E-01
  8.00000000E-01  8.50000000E-01  8.50000000E-01  8.50000000E-01  8.00000000E-01
  8.50000000E-01  8.50000000E-01  8.50000000E-01  8.00000000E-01  8.50000000E-01
  8.50000000E-01  8.50000000E-01  8.00000000E-01  8.50000000E-01  8.50000000E-01
  8.50000000E-01  8.00000000E-01  8.50000000E-01  8.50000000E-01  8.50000000E-01
  8.00000000E-01  8.50000000E-01  8.50000000E-01  8.50000000E-01  8.00000000E-01
  8.50000000E-01  8.50000000E-01  8.50000000E-01  8.00000000E-01  8.50000000E-01
  8.50000000E-01  8.50000000E-01  8.00000000E-01  8.50000000E-01  8.50000000E-01
  8.50000000E-01  8.00000000E-01  8.50000000E-01  8.50000000E-01  8.50000000E-01
  8.00000000E-01  8.50000000E-01  8.50000000E-01  8.50000000E-01  8.00000000E-01
  8.50000000E-01  8.50000000E-01  8.50000000E-01  8.00000000E-01  8.50000000E-01
  8.50000000E-01  8.50000000E-01  8.00000000E-01  8.50000000E-01  8.50000000E-01
  8.50000000E-01  8.00000000E-01  8.50000000E-01  8.50000000E-01  8.50000000E-01
  8.00000000E-01  8.50000000E-01  8.50000000E-01  8.50000000E-01  8.00000000E-01
  8.50000000E-01  8.50000000E-01  8.50000000E-01  8.00000000E-01  8.50000000E-01
  8.50000000E-01  8.50000000E-01  8.00000000E-01  8.50000000E-01  8.50000000E-01
  8.50000000E-01  8.00000000E-01  8.50000000E-01  8.50000000E-01  8.50000000E-01
  8.00000000E-01  8.50000000E-01  8.50000000E-01  8.50000000E-01  8.00000000E-01
  8.50000000E-01  8.50000000E-01  8.50000000E-01  8.00000000E-01  8.50000000E-01
  8.50000000E-01  8.50000000E-01  8.00000000E-01  8.50000000E-01  8.50000000E-01
  8.50000000E-01  8.00000000E-01  8.50000000E-01  8.50000000E-01  8.50000000E-01
  8.00000000E-01  8.50000000E-01  8.50000000E-01  8.50000000E-01  8.00000000E-01
  8.50000000E-01  8.50000000E-01  8.50000000E-01  8.00000000E-01  8.50000000E-01
  8.50000000E-01  8.50000000E-01  8.00000000E-01  8.50000000E-01  8.50000000E-01
  8.50000000E-01  8.00000000E-01  8.50000000E-01  8.50000000E-01  8.50000000E-01
  8.00000000E-01  8.50000000E-01  8.50000000E-01  8.50000000E-01  8.00000000E-01
  8.50000000E-01  8.50000000E-01  8.50000000E-01  8.00000000E-01  8.50000000E-01
  8.50000000E-01  8.50000000E-01  8.00000000E-01  8.50000000E-01  8.50000000E-01
  8.50000000E-01  8.00000000E-01  8.50000000E-01  8.50000000E-01  8.50000000E-01
  8.00000000E-01  8.50000000E-01  8.50000000E-01  8.50000000E-01  8.00000000E-01
  8.50000000E-01  8.50000000E-01  8.50000000E-01  8.00000000E-01  8.50000000E-01
  8.50000000E-01  8.50000000E-01  8.00000000E-01  8.50000000E-01  8.50000000E-01
  8.50000000E-01  8.00000000E-01  8.50000000E-01  8.50000000E-01  8.50000000E-01
  8.00000000E-01  8.50000000E-01  8.50000000E-01  8.50000000E-01  8.00000000E-01
  8.50000000E-01  8.50000000E-01  8.50000000E-01  8.00000000E-01  8.50000000E-01
  8.50000000E-01  8.50000000E-01  8.00000000E-01  8.50000000E-01  8.50000000E-01
  8.50000000E-01  8.00000000E-01  8.50000000E-01  8.50000000E-01  8.50000000E-01
  8.00000000E-01  8.50000000E-01  8.50000000E-01  8.50000000E-01  8.00000000E-01
  8.50000000E-01  8.50000000E-01  8.50000000E-01  8.00000000E-01  8.50000000E-01
  8.50000000E-01  8.50000000E-01  8.00000000E-01  8.50000000E-01  8.50000000E-01
  8.50000000E-01  8.00000000E-01  8.50000000E-01  8.50000000E-01  8.50000000E-01
  8.00000000E-01  8.50000000E-01  8.50000000E-01  8.50000000E-01  8.00000000E-01
  8.50000000E-01  8.50000000E-01  8.50000000E-01  8.00000000E-01  8.50000000E-01
  8.50000000E-01  8.50000000E-01  8.00000000E-01  8.50000000E-01  8.50000000E-01
  8.50000000E-01  8.00000000E-01  8.50000000E-01  8.50000000E-01  8.50000000E-01
  8.00000000E-01  8.50000000E-01  8.50000000E-01  8.50000000E-01  8.00000000E-01
  8.50000000E-01  8.50000000E-01  8.50000000E-01  8.00000000E-01  8.50000000E-01
  8.50000000E-01  8.50000000E-01  8.00000000E-01  8.50000000E-01  8.50000000E-01
  8.50000000E-01  8.00000000E-01  8.50000000E-01  8.50000000E-01  8.50000000E-01
  8.00000000E-01  8.50000000E-01  8.50000000E-01  8.50000000E-01  8.00000000E-01
  8.50000000E-01  8.50000000E-01  8.50000000E-01  8.00000000E-01  8.50000000E-01
  8.50000000E-01  8.50000000E-01  8.00000000E-01  8.50000000E-01  8.50000000E-01
  8.50000000E-01  8.00000000E-01  8.50000000E-01  8.50000000E-01  8.50000000E-01
  8.00000000E-01  8.50000000E-01  8.50000000E-01  8.50000000E-01  8.00000000E-01
  8.50000000E-01  8.50000000E-01  8.50000000E-01  8.00000000E-01  8.50000000E-01
  8.50000000E-01  8.50000000E-01  8.00000000E-01  8.50000000E-01  8.50000000E-01
  8.50000000E-01  8.00000000E-01  8.50000000E-01  8.50000000E-01  8.50000000E-01
  8.00000000E-01  8.50000000E-01  8.50000000E-01  8.50000000E-01  8.00000000E-01
  8.50000000E-01  8.50000000E-01  8.50000000E-01  8.00000000E-01  8.50000000E-01
  8.50000000E-01  8.50000000E-01  8.00000000E-01  8.50000000E-01  8.50000000E-01
  8.50000000E-01  8.00000000E-01  8.50000000E-01  8.50000000E-01  8.50000000E-01
  8.00000000E-01  8.50000000E-01  8.50000000E-01  8.50000000E-01  8.00000000E-01
  8.50000000E-01  8.50000000E-01  8.50000000E-01  8.00000000E-01  8.50000000E-01
  8.50000000E-01  8.50000000E-01  8.00000000E-01  8.50000000E-01  8.50000000E-01
  8.50000000E-01  8.00000000E-01  8.50000000E-01  8.50000000E-01  8.50000000E-01
  8.00000000E-01  8.50000000E-01  8.50000000E-01  8.50000000E-01  8.00000000E-01
  8.50000000E-01  8.50000000E-01  8.50000000E-01  8.00000000E-01  8.50000000E-01
  8.50000000E-01  8.50000000E-01  8.00000000E-01  8.50000000E-01  8.50000000E-01
  8.50000000E-01  8.00000000E-01  8.50000000E-01  8.50000000E-01  8.50000000E-01
  8.00000000E-01  8.50000000E-01  8.50000000E-01  8.50000000E-01  8.00000000E-01
  8.50000000E-01  8.50000000E-01  8.50000000E-01  8.00000000E-01  8.50000000E-01
  8.50000000E-01  8.50000000E-01  8.00000000E-01  8.50000000E-01  8.50000000E-01
  8.50000000E-01  8.00000000E-01  8.50000000E-01  8.50000000E-01  8.50000000E-01
  8.00000000E-01  8.50000000E-01  8.50000000E-01  8.50000000E-01  8.00000000E-01
  8.50000000E-01  8.50000000E-01  8.50000000E-01  8.00000000E-01  8.50000000E-01
  8.50000000E-01  8.50000000E-01  8.00000000E-01  8.50000000E-01  8.50000000E-01
  8.50000000E-01  8.00000000E-01  8.50000000E-01  8.50000000E-01  8.50000000E-01
  8.00000000E-01  8.50000000E-01  8.50000000E-01  8.50000000E-01  8.00000000E-01
  8.50000000E-01  8.50000000E-01  8.50000000E-01  8.00000000E-01  8.50000000E-01
  8.50000000E-01  8.50000000E-01  8.00000000E-01  8.50000000E-01  8.50000000E-01
  8.50000000E-01  8.00000000E-01  8.50000000E-01  8.50000000E-01  8.50000000E-01
  8.00000000E-01  8.50000000E-01  8.50000000E-01  8.50000000E-01  8.00000000E-01
  8.50000000E-01  8.50000000E-01  8.50000000E-01  8.00000000E-01  8.50000000E-01
  8.50000000E-01  8.50000000E-01  8.00000000E-01  8.50000000E-01  8.50000000E-01
  8.50000000E-01  8.00000000E-01  8.50000000E-01  8.50000000E-01  8.50000000E-01
  8.00000000E-01  8.50000000E-01  8.50000000E-01  8.50000000E-01  8.00000000E-01
  8.50000000E-01  8.50000000E-01  8.50000000E-01  8.00000000E-01  8.50000000E-01
  8.50000000E-01  8.50000000E-01  8.00000000E-01  8.50000000E-01  8.50000000E-01
  8.50000000E-01  8.00000000E-01  8.50000000E-01  8.50000000E-01  8.50000000E-01
  8.00000000E-01  8.50000000E-01  8.50000000E-01  8.50000000E-01  8.00000000E-01
  8.50000000E-01  8.50000000E-01  8.50000000E-01  8.00000000E-01  8.50000000E-01
  8.50000000E-01  8.50000000E-01  8.00000000E-01  8.50000000E-01  8.50000000E-01
  8.50000000E-01  8.00000000E-01  8.50000000E-01  8.50000000E-01  8.50000000E-01
  8.00000000E-01  8.50000000E-01  8.50000000E-01  8.50000000E-01  8.00000000E-01
  8.50000000E-01  8.50000000E-01  8.50000000E-01  8.00000000E-01  8.50000000E-01
  8.50000000E-01  8.50000000E-01  8.00000000E-01  8.50000000E-01  8.50000000E-01
  8.50000000E-01  8.00000000E-01  8.50000000E-01  8.50000000E-01  8.50000000E-01
  8.00000000E-01  8.50000000E-01  8.50000000E-01  8.50000000E-01  8.00000000E-01
  8.50000000E-01  8.50000000E-01  8.50000000E-01  8.00000000E-01  8.50000000E-01
  8.50000000E-01  8.50000000E-01  8.00000000E-01  8.50000000E-01  8.50000000E-01
  8.50000000E-01  8.00000000E-01  8.50000000E-01  8.50000000E-01  8.50000000E-01
  8.00000000E-01  8.50000000E-01  8.50000000E-01  8.50000000E-01  8.00000000E-01
  8.50000000E-01  8.50000000E-01  8.50000000E-01  8.00000000E-01  8.50000000E-01
  8.50000000E-01  8.50000000E-01  8.00000000E-01  8.50000000E-01  8.50000000E-01
  8.50000000E-01  8.00000000E-01  8.50000000E-01  8.50000000E-01  8.50000000E-01
  8.00000000E-01  8.50000000E-01  8.50000000E-01  8.50000000E-01  8.00000000E-01
  8.50000000E-01  8.50000000E-01  8.50000000E-01  8.00000000E-01  8.50000000E-01
  8.50000000E-01  8.50000000E-01  8.00000000E-01  8.50000000E-01  8.50000000E-01
  8.50000000E-01  8.00000000E-01  8.50000000E-01  8.50000000E-01  8.50000000E-01
  8.00000000E-01  8.50000000E-01  8.50000000E-01  8.50000000E-01  8.00000000E-01
  8.50000000E-01  8.50000000E-01  8.50000000E-01  8.00000000E-01  8.50000000E-01
  8.50000000E-01  8.50000000E-01  8.00000000E-01  8.50000000E-01  8.50000000E-01
  8.50000000E-01  8.00000000E-01  8.50000000E-01  8.50000000E-01  8.50000000E-01
  8.00000000E-01  8.50000000E-01  8.50000000E-01  8.50000000E-01  8.00000000E-01
  8.50000000E-01  8.50000000E-01  8.50000000E-01  8.00000000E-01  8.50000000E-01
  8.50000000E-01  8.50000000E-01  8.00000000E-01  8.50000000E-01  8.50000000E-01
  8.50000000E-01  8.00000000E-01  8.50000000E-01  8.50000000E-01  8.50000000E-01
  8.00000000E-01  8.50000000E-01  8.50000000E-01  8.50000000E-01  8.00000000E-01
  8.50000000E-01  8.50000000E-01  8.50000000E-01  8.00000000E-01  8.50000000E-01
  8.50000000E-01  8.50000000E-01  8.00000000E-01  8.50000000E-01  8.50000000E-01
  8.50000000E-01  8.00000000E-01  8.50000000E-01  8.50000000E-01  8.50000000E-01
  8.00000000E-01  8.50000000E-01  8.50000000E-01  8.50000000E-01  8.00000000E-01
  8.50000000E-01  8.50000000E-01  8.50000000E-01  8.00000000E-01  8.50000000E-01
  8.50000000E-01  8.50000000E-01  8.00000000E-01  8.50000000E-01  8.50000000E-01
  8.50000000E-01  8.00000000E-01  8.50000000E-01  8.50000000E-01  8.50000000E-01
  8.00000000E-01  8.50000000E-01  8.50000000E-01  8.50000000E-01  8.00000000E-01
  8.50000000E-01  8.50000000E-01  8.50000000E-01  8.00000000E-01  8.50000000E-01
  8.50000000E-01  8.50000000E-01  8.00000000E-01  8.50000000E-01  8.50000000E-01
  8.50000000E-01  8.00000000E-01
%FLAG IPOL                                                                      
%FORMAT(1I8)                                                                    
       0
%FLAG CMAP_COUNT                                                                
%FORMAT(2I8)                                                                    
       4       3                                                                
%FLAG CMAP_RESOLUTION                                                           
%FORMAT(20I4)                                                                   
  24  24  24
%FLAG CMAP_PARAMETER_01                                                         
%COMMENT  Gly CMAP                                                              
%FORMAT(8F9.5)                                                                  
  0.82366  1.09817  1.13106  1.38658  2.11377  3.63194  5.20835  4.52792
  4.24857  3.42100  2.57125  2.21561  4.26659  2.21561  2.57125  3.42110
  4.24858  4.52792  4.29107  3.63184  2.03731  1.32036  1.12797  1.09814
  1.01976  0.89767  0.89484  1.21525  1.97095  3.70570  4.38855  4.65256
  4.43948  3.89754  4.21954  2.92219  1.83300  1.61528  2.13407  3.13273
  4.03304  4.37836  4.21500  3.54162  2.14871  1.44646  1.20387  1.08264
  0.94294  0.79652  0.83328  1.24136  2.06053  3.43883  4.17385  4.53101
  4.43115  4.03641  3.71837  2.02965  1.28863  1.21833  1.89263  2.85593
  4.80291  4.23497  4.08718  3.49858  2.17811  1.53114  1.22608  1.06909
  1.06124  0.90425  0.95129  1.35925  1.80900  3.18916  3.85055  4.27470
  4.17515  3.68355  2.71193  1.96823  0.88051  1.02084  1.59189  2.52883
  3.47767  4.03244  3.86779  3.39508  2.23969  1.66969  1.33019  1.16679
  1.08157  1.02005  1.10493  1.29605  1.79270  2.88632  3.63402  4.05349
  3.97657  3.35415  2.24207  1.18576  0.74267  0.67495  1.31122  2.24278
  3.21905  3.69186  4.76949  4.00571  2.34764  1.77622  1.34849  1.12849
  1.09360  0.76295  0.64220  1.00733  1.73708  2.50787  3.41571  4.45847
  3.84910  3.11193  1.97839  1.18177  0.33803  0.43176  1.23577  2.17947
  2.92428  3.38497  3.39138  3.10177  3.35228  2.15282  1.45287  1.28536
  0.61764  0.23640  0.15650  0.65857  1.56522  2.44967  3.17669  3.78043
  4.22216  2.79953  1.66579  0.59084  0.15579  0.43594  1.52040  2.27449
  2.76979  3.16911  3.12455  2.92674  2.45824  1.88927  1.36443  0.95121
 -0.00243 -0.14438  0.06931  0.84132  1.89921  2.91978  3.46170  3.60722
  3.77366  2.18724  1.52870  0.20777  0.22187  1.10049  2.08960  2.88893
  3.46272  3.66327  3.40280  3.02172  2.23074  1.32476  0.62376  0.25154
 -0.24862  0.05886  0.73935  1.98217  3.25167  4.06285  4.21447  3.90130
  2.90300  1.70374  0.74057  0.52755  1.12943  2.10802  2.78056  3.65981
  4.30377  4.58476  4.35318  3.65296  2.33204  0.81283  0.00000 -0.29835
  0.44379  1.32981  2.39709  3.82578  5.02459  5.42450  4.99639  4.00610
  2.64886  1.63847  1.37610  1.71448  2.28503  2.64949  3.24747  4.17266
  5.17265  5.75041  5.58476  4.21912  2.20540  0.64843  0.02065 -0.08593
  2.15530  3.40478  4.51993  5.80241  6.12627  6.00746  5.12631  4.58197
  2.80154  2.55737  2.87599  2.95502  2.71629  2.60279  3.64721  4.53964
  5.90407  6.82108  6.15044  4.18011  2.15201  0.96807  0.81255  1.19704
  4.21011  5.19583  5.45356  5.26216  5.22957  4.91772  4.44698  3.93537
  3.74038  4.11322  3.92595  2.94210  2.11295  2.42266  3.12536  4.83315
  6.43292  6.19670  5.13463  3.65052  2.40663  2.07125  2.29840  3.03351
  5.33877  4.55338  3.87255  3.87071  3.62149  3.87069  4.31250  4.77933
  5.37137  5.20874  3.65026  2.18763  2.20027  2.18700  3.65026  5.21405
  5.24065  4.77943  4.31250  3.87553  3.63325  5.19982  3.88530  4.53465
  4.20747  3.02450  2.29840  2.07135  2.40664  3.65062  5.13204  6.19680
  6.43292  4.83351  3.12587  2.96667  2.11029  2.93241  3.92594  4.11322
  3.74082  3.93551  4.44698  4.92068  5.53058  5.24416  5.35209  5.19605
  2.15668  1.19704  0.81255  0.96806  2.15211  4.17062  6.15034  6.82108
  5.90407  4.54177  3.63728  2.60267  2.71853  2.95502  2.87589  2.55737
  2.80717  3.89294  5.12631  6.00746  6.12372  5.80230  5.01898  3.40679
  0.45450 -0.08700  0.02065  0.64843  2.20540  4.21912  5.58476  5.75041
  5.17265  4.16788  3.24747  2.64460  2.28503  1.72593  1.37610  1.63847
  2.64538  4.01006  5.00425  5.42091  5.02459  3.80593  2.39681  1.32981
 -0.24862 -0.29835  0.00000  0.81283  2.33214  3.64847  4.35318  4.59008
  4.30377  3.65991  2.78056  2.10802  1.84494  0.52754  0.74067  1.61716
  2.90300  3.89516  4.21447  4.06285  3.25166  1.98217  0.73946  0.07427
 -0.00243  0.25154  0.64043  1.82987  2.23143  3.02038  3.40280  3.66327
  3.46272  2.88893  2.08960  1.10049  0.22171  0.20862  1.52897  2.18595
  3.24376  3.60722  3.46170  2.91968  1.89590  0.84888  0.07066 -0.14460
  0.61764  0.94007  1.36444  1.88927  2.45691  2.92674  3.12469  3.16911
  2.76979  2.27377  1.52040  0.44049  0.15579  0.59084  1.66579  2.79477
  4.25589  3.78043  3.17669  2.45043  1.56512  0.65855  0.15650  0.23719
  1.09360  1.28549  1.45287  2.15281  2.67683  3.10177  3.39138  3.38497
  2.91731  2.17947  1.23582  0.43170  0.33793  1.00844  1.97383  3.11193
  3.84910  4.46392  3.41571  2.50787  1.73708  1.00733  0.64220  0.76295
  0.97094  1.11640  1.33640  1.77623  2.30465  3.21763  3.71128  3.69186
  3.21905  2.24277  1.31122  0.67238  0.74272  1.18578  2.24207  3.35415
  3.97657  4.05349  3.63266  2.88632  1.79270  1.23680  1.00391  1.05657
  0.98044  1.16708  1.33038  1.66969  2.23969  3.39508  3.86779  4.03243
  3.47590  2.52883  1.59193  1.02084  0.88051  1.46518  2.71203  3.68355
  4.17470  4.27471  3.85203  3.18916  1.80900  1.35925  0.95109  0.90998
  0.92229  1.06909  1.22608  1.53114  2.17810  3.49858  4.08708  4.23358
  3.81032  2.85593  1.89254  1.21833  1.28863  2.03059  3.37664  4.03661
  4.43079  4.53101  4.17385  3.43883  2.06053  1.24136  0.83440  0.79652
  1.01976  1.08264  1.20394  1.44647  2.14870  3.54162  4.22527  4.37836
  4.03304  3.13273  2.13407  1.61528  1.83300  2.92219  4.10899  3.89754
  4.43948  4.65256  4.38856  3.70570  1.97095  1.21515  0.89442  0.89767
%FLAG CMAP_PARAMETER_02                                                         
%COMMENT  Ala CMAP                                                              
%FORMAT(8F9.5)                                                                  
 -0.40490 -0.91563 -0.66011 -0.12395  0.67400  1.66712  2.29819  2.59327
  2.26341  1.68604  1.08454  0.71831 -0.48870 -1.12865 -0.92439 -0.34344
  0.32979  0.59769  0.44008 -0.02411 -0.36985 -0.85317 -0.95648 -1.10907
 -0.57095 -0.51404 -0.20974  0.13143  0.76924  1.59233  2.29037  2.67125
  3.36182  2.18892  2.73567  0.45223 -0.65830 -0.99890 -0.71628  0.42576
  0.53333  0.77654  0.66928  0.32986  0.00178 -0.28339 -0.35321 -0.52818
 -0.04441  1.18495  0.28672  0.49834  1.04770  1.74318  2.42981  2.78424
  2.83854  2.61585  1.87191  0.41363 -0.42895 -0.65692  0.55228  0.27728
  0.92789  1.20682  1.03564  0.82326  0.50898  0.23806  0.20869  0.03162
  0.75270  0.92426  0.87815  1.07435  1.34904  1.95311  2.55584  3.01644
  2.98774  2.58246  1.60744  0.42752 -0.30354 -0.31446 -0.03375  0.52111
  1.16914  1.46572  1.98214  1.17058  0.95531  0.70808  0.78722  1.35766
  1.34685  2.28011  1.28633  1.21465  1.51939  2.05226  2.68560  3.11202
  2.91890  2.50948  1.45835  0.41028 -0.10582 -0.34705 -0.04464  0.55547
  1.11301  1.35870  1.48001  1.35541  1.12115  0.95721  1.12820  1.22585
  2.04850  1.37875  1.14784  1.59064  1.72039  1.78908  3.30313  3.04054
  2.98842  2.41992  1.44654  0.52504 -0.06270 -0.27801  0.87234  0.67598
  0.94307  1.15416  1.20141  1.24110  1.26105  1.20805  1.33113  1.49416
  1.04113  0.90852  0.69483  0.85361  1.26559  1.89687  2.63196  4.14974
  2.85712  2.19037  1.16979  0.05713 -0.34982 -0.13111  1.14408  0.72916
  0.83976  0.87834  2.10017  1.17948  1.17775  1.17175  1.28140  1.31313
  0.56020  0.54579  0.70265  1.11648  1.74498  2.34101  3.30438  2.91742
  2.51820  1.80071  0.63368 -0.12153  0.06806  0.72937  1.10420  1.35758
  1.49864  1.53737  1.46180  1.46294  1.03983  0.71730  0.57013  0.61315
  0.24962  0.58339  1.16380  1.97603  2.89121  3.52557  3.68570  3.11960
  2.13455  1.15056  0.41716  0.25190  0.90813  1.46041  1.72423  2.08326
  2.41176  2.51527  2.40584  2.10326  1.06657  0.24926  0.00000  0.09150
  0.69001  1.45869  2.56017  3.51462  4.36327  4.88489  4.44136  3.31773
  1.94048  1.18640  1.14388  1.38827  1.99448  1.97586  2.10793  2.62567
  3.22808  3.67878  3.65514  2.76833  1.09340 -0.02756 -0.20820  0.11394
  2.04863  3.24028  4.45604  5.33890  5.83417  5.62064  4.51400  3.15546
  2.11289  2.12474  2.51205  2.64497  2.21088  1.89502  2.06746  3.01892
  4.17428  5.04288  4.34485  2.58422  0.91721  0.02839  0.38724  1.08963
  3.86396  5.17448  4.99907  4.71176  4.69475  4.40584  3.94871  3.17716
  3.06333  3.67246  4.29338  2.44448  1.35877  2.75298  2.01318  3.50593
  5.09938  4.27559  3.31646  1.97909  0.94467  0.88095  1.62501  2.60184
  5.48793  4.77064  3.78644  3.36104  3.22046  3.45658  3.76845  4.19099
  4.55308  4.85880  2.97166  1.40450  1.55754  1.01694  2.55251  4.15890
  3.59316  2.89015  2.39954  2.03475  2.02513  2.33480  3.18431  4.21056
  4.70559  3.27912  2.28983  1.85924  2.16582  3.20992  4.49444  5.42412
  5.98035  4.20595  2.46249  1.80286  1.41486  2.22339  3.40125  3.01974
  2.06463  1.98502  2.41985  3.03336  3.42492  3.76647  4.58344  5.51267
  2.34028  1.47026  0.70060  0.67110  1.72673  3.69931  5.49162  6.13923
  5.15665  3.78295  2.61455  3.27648  2.23785  2.65327  2.09930  0.98357
  0.83115  1.73620  2.87719  3.88918  4.40086  4.76522  4.34641  3.40891
  0.89883  0.26728  0.50152  0.12164  1.64744  3.66760  4.84258  4.73428
  4.15359  3.27829  2.48102  2.07496  1.77587  1.23018  0.22862 -0.17811
  0.36837  1.62610  2.66752  3.41452  3.43224  3.08090  2.54957  1.61094
  0.32705 -0.14752 -0.38279 -0.00752  1.31062  2.89019  3.39946  3.48428
  3.29026  2.66680  1.96417  1.33230  0.70261 -0.31922 -0.88675 -0.59803
  0.32944  1.32712  1.88494  2.20282  2.13265  1.82079  1.35338  0.71220
 -0.03270 -0.18304 -0.26783  0.12774  0.88323  1.96743  2.18027  2.30248
  2.25909  1.78219  1.00274  0.24927 -0.80554 -1.41955 -1.17733 -0.22422
  1.19834  1.07092  1.05260  0.95885  0.87757  0.60790  0.30853  0.05046
  0.08873  0.15910  0.22294  0.37757  0.76603  1.36872  1.54866  1.47050
  1.32077  0.90501  0.18754 -0.81180 -1.70050 -1.70896 -0.87307 -0.00331
  0.74981  0.73853  0.55032  0.27050 -0.03313 -0.23059 -0.27425 -0.15004
  1.38786  0.31030  0.31376  0.30435  0.69516  1.26684  1.67665  1.73040
  1.48205  0.83164  0.78021 -1.27092 -1.69247 -1.59919 -0.87185  0.23049
  0.75546  0.68419  0.50548  0.18474 -0.18354 -0.22863 -0.03965  0.15614
  1.13038  0.28339  0.13603  0.26411  0.64582  1.31757  2.01140  2.13005
  1.85723  0.94711 -0.10199 -0.99228 -1.35141 -1.23057 -0.39240  0.63569
  1.03002  0.93699  1.12925  0.94167  0.14233  0.14305  0.34318  0.43742
 -0.18145 -0.18129 -0.36426 -0.02774  0.57160  1.29873  2.16831  2.37053
  1.81288  0.84225 -0.13994 -0.87562 -1.03375 -0.75156  0.33665  1.25211
  1.11963  1.00266  0.72525  0.87651  0.22308  0.12905  0.05647 -0.10214
 -1.05110 -0.75879 -0.79562 -0.36879  0.45648  1.36193  2.25739  2.41888
  1.79507  0.83030 -0.09049 -0.76021 -0.87672 -0.19067  0.64936  0.61856
  0.80179  0.82609  0.68948  0.43884 -0.07529 -0.55654 -0.80787 -1.00697
 -1.21902 -1.03039 -0.88255 -0.32105  0.49201  1.53828  2.43182  2.53201
  1.97701  1.22953  0.40353 -0.11048 -0.00493 -0.40512 -0.63562 -0.14764
  0.47545  0.72229  0.59153  0.14907 -0.47001 -0.96318 -1.22829 -1.35376
%FLAG CMAP_PARAMETER_03                                                         
%COMMENT  Leu CMAP                                                              
%FORMAT(8F9.5)                                                                  
 -0.86694 -0.26821  0.11903  0.36257  0.95573  1.67477  2.43156  2.60365
  2.27204  1.80613  1.46886  1.61233 -0.96663 -1.49770 -1.08239 -0.09973
  0.68400  0.98069  0.74771  0.20585 -0.44627 -0.94569 -1.07455 -1.03710
 -0.32646  0.18654  0.61372  0.67096  1.01304  1.68958  2.59064  2.69380
  2.62711  2.28315  1.55874 -0.12149 -1.21885 -1.44423 -0.97001 -0.05369
  0.80796  1.12834  0.84158  0.41540 -0.05618 -0.48333 -0.57243 -0.49018
 -0.00270  0.44349  0.67720  0.69907  0.96098  1.51827  2.31922  2.59766
  2.46815  2.10040  1.01494 -0.35138 -1.06078 -0.51379 -0.69064  0.13405
  0.94764  1.25044  1.05896  0.70807  1.27955  0.00478 -0.14861 -0.13199
  0.46773  1.06122  0.84151  0.87321  1.53577  2.26717  2.28379  2.61533
  2.48323  2.10062  0.99888 -0.16216 -0.70927 -0.70653 -0.29305  0.40855
  1.21244  1.57878  1.45953  1.15294  0.73992  0.44830  0.51887  0.42642
  1.08264  1.22032  1.01432  0.92883  1.19777  1.89909  2.63517  2.91989
  2.71483  2.15712  1.13870  0.10970 -0.35319 -0.45575 -0.07314  0.71696
  1.39933  1.70190  1.76612  1.54603  1.28907  0.96167  1.05593  0.99887
  1.28886  1.08719  1.25509  0.61945  1.07490  1.93759  3.19207  3.05501
  2.85024  2.25228  1.28855  0.30319 -0.32580 -0.33934  0.94330  1.01391
  1.36742  1.55398  1.68291  1.69903  1.58878  1.35670  1.38167  1.38984
  0.98482  0.77092  0.58293  0.75254  1.33157  2.19094  2.97361  3.31530
  2.98261  2.34181  1.68188  0.20860 -0.18920  0.15129  0.97347  1.18438
  1.41087  2.18263  1.74084  1.83977  2.49337  1.40782  1.29872  1.23230
  0.48495  0.51375  0.72118  1.16071  2.03516  2.76085  3.33781  3.33714
  3.21881  1.91348  0.71654 -0.06047  0.05722  0.95499  1.57463  1.97846
  2.20669  2.25753  2.16240  2.05082  1.46338  0.92763  0.63950  0.52464
  0.07954  0.44680  1.02424  2.02016  2.99245  3.73027  3.90871  3.36270
  2.34980  1.21384  0.31676  0.22259  0.86998  1.74017  2.65575  2.56314
  2.94846  3.04800  2.92362  2.53858  1.53008  0.44000  0.00000 -0.00769
  0.24993  1.09492  2.17567  3.43132  4.50566  5.05694  4.64546  3.50848
  2.15393  1.27464  0.97041  1.34987  2.11323  2.30548  2.56683  3.12183
  3.71616  4.15639  4.02019  3.11381  1.50702  0.51912 -0.20195 -0.08615
  1.52978  2.82371  4.12062  5.09490  6.15608  6.08176  5.03421  3.52597
  2.34959  2.18514  2.44731  2.85399  2.64346  2.42082  2.71715  3.68263
  4.79352  5.66725  5.08137  3.19151  1.34349  0.25042  0.36715  0.82954
  3.49877  5.10429  4.80281  4.54651  4.68704  4.66098  4.37663  3.68363
  3.39535  3.95518  3.96235  2.85930  2.21248  2.20453  2.53736  4.31396
  5.52110  4.69616  3.78755  2.61424  1.52261  1.35018  1.75048  2.53707
  5.65682  4.15269  3.35229  3.00261  3.08500  3.54523  4.16460  4.62833
  5.13779  5.01177  3.02054  1.47096  1.36914  1.36431  2.92161  6.08683
  3.79124  3.26901  3.87628  3.15138  2.56586  2.96443  3.52026  4.83005
  4.54702  3.10593  2.16146  1.79107  2.10872  3.47796  4.87594  5.92625
  6.01846  4.12483  2.27314  1.85210  1.40705  2.31574  3.63083  3.28348
  2.48395  2.41514  2.93210  3.56664  3.83230  4.13078  4.61915  5.21000
  2.54403  1.68952  0.97521  0.88413  2.02670  4.01998  5.83129  6.49399
  5.45501  4.03342  2.72981  3.04219  2.43764  2.97586  2.73313  1.73379
  1.55615  2.30112  3.86657  4.36600  4.57747  4.78312  4.62251  3.65331
  1.39094  0.80730  0.29380  0.53655  2.14327  4.35364  5.64162  5.52871
  4.81227  3.89474  3.02138  2.56961  2.36903  1.91970  1.04584  0.61644
  1.26738  2.48009  3.51320  4.14947  3.98350  3.59513  2.95805  2.05137
  0.59467  0.26702 -0.00118  0.34338  1.95569  3.71282  4.31538  4.26902
  3.93382  3.80334  2.45012  1.80769  1.23485  0.28708 -0.16539  0.11408
  1.10892  2.16939  3.27563  2.90643  2.66635  2.32593  1.63311  1.04332
 -0.00101 -0.07278 -0.15248  0.39936  1.35477  2.58696  2.88424  2.91922
  2.69118  2.08752  1.30318  0.53921 -0.47040 -1.05688 -0.84349  0.07495
  1.13508  1.90971  1.60384  1.52061  1.19284  0.82628  0.49692  0.18749
  0.52653 -0.01117  0.01170  0.35019  0.99208  1.68051  1.85145  1.71415
  1.38754  0.91039  0.24804 -0.73699 -1.51069 -1.53963 -0.72203  0.43100
  1.18026  1.23810  0.97321  0.69525  0.29409 -0.04217 -0.12688 -0.18077
  0.41738  0.42830  0.25395  0.41670  0.84705  1.54378  1.90242  1.75429
  1.39459  0.87970 -0.19758 -1.19662 -1.65765 -1.41581 -0.57110  0.57555
  1.30161  1.37911  1.15311  0.73096  0.18428  0.11942  0.12025  0.23185
  0.51056  0.47767  0.30339  0.39748  0.84570  1.55327  2.29045  2.38960
  1.92281  1.05703  0.33844 -0.94589 -1.40734 -1.22267 -0.28396  0.91594
  1.42889  1.47580  1.35177  1.37396  0.53214  0.53898  0.61490  0.64450
 -0.24761 -0.32226 -0.19849 -0.08985  1.01997  1.40580  2.20658  2.50290
  1.91878  0.83859 -0.21275 -0.98048 -1.44651 -1.19821  0.00869  1.25483
  1.43243  1.66446  1.63593  0.87150  0.53192  0.38847  0.31803  0.05867
 -0.50737 -1.45363 -0.79190  0.11592  0.23743  1.27007  2.22830  3.43018
  2.03991  0.82982 -0.28204 -0.30716 -1.28098 -0.47386  0.89069  1.08272
  1.18900  1.30124  1.20693  0.90441  0.47681 -0.17330 -0.62574 -1.08723
 -1.62255 -1.96136 -0.83933 -0.65406  0.11828  1.42624  2.54120  2.90447
  2.24826  1.86505 -0.18930 -0.85728 -0.87693 -1.06001 -1.16287  0.46816
  0.39155  1.80618  1.14253  0.79781  0.04909 -0.40498 -1.27362 -1.36635
%FLAG CMAP_INDEX                                                                
%FORMAT(6I8)                                                                    
       5       7       9      26      28       3
      26      28      30      36      38       2
      36      38      40      43      45       1
      43      45      47      63      65       3
