default_name
 69314
  44.4737797  50.6386974  66.4432906  44.8337377  51.1747374  65.8311490
  43.6772354  50.9548886  66.6833831  45.0058114  50.6019366  67.1552090
  44.3154830  49.2806620  65.8768359  45.1376255  48.7853881  66.0142750
  43.1855589  48.5467684  66.5958761  43.0117907  47.7143171  66.1292463
  43.4659448  48.3645057  67.5064237  41.9955250  49.2944032  66.6347688
  41.5473721  49.0847418  67.3137880  44.0736324  49.3087310  64.3707252
  44.1716545  50.3634436  63.7096722  43.8028694  48.1353155  63.8223489
  43.6564146  47.4187604  64.2741106  43.7257190  47.9428440  62.3852363
  42.9950342  47.3391400  62.1792702  43.5617089  48.7956142  61.9531209
  45.0126256  47.3542917  61.8189258  46.0485850  47.2722636  62.4797379
  44.9406573  46.9187425  60.5622388  44.2350364  46.9473996  60.0737463
  46.1123971  46.3399817  59.9130626  46.8922587  46.8103590  60.2461138
  46.2677599  44.8469587  60.2128053  45.9509377  44.6732974  61.1130805
  45.7430504  44.3415106  59.5724685  47.7022596  44.3666390  60.1237118
  48.6424810  44.7716011  61.0617941  48.3878116  45.3420003  61.7511926
  49.9727854  44.3306415  60.9827074  50.5928760  44.5997766  61.6209010
  50.3594500  43.4870435  59.9397914  51.2369566  43.1874491  59.8794394
  49.4232966  43.1000886  58.9992210  49.6762175  42.5444390  58.2975590
  48.1122293  43.5346702  59.0937430  47.4944948  43.2638314  58.4543062
  46.0230329  46.5343044  58.4118092  45.0445022  46.1326923  57.7785665
  47.0566174  47.1350711  57.8470379  47.7686235  47.3738026  58.2667659
  47.0616705  47.4442668  56.4356653  46.3889365  46.9108886  55.9849851
  46.7702432  48.9359097  56.2185696  47.3173295  49.4485204  56.8335890
  46.9955452  49.1630866  55.3039709  45.3265686  49.3410135  56.4464197
  44.8852834  48.6796160  57.0014176  45.2954438  50.2099322  56.8777507
  44.5860514  49.4309063  55.1081852  45.0955565  49.9948416  54.5039514
  44.4995959  48.5397748  54.7362133  43.2459856  49.9998987  55.2297963
  43.0525772  50.4240667  55.9525492  42.3019343  49.9020884  54.2906588
  42.5374026  49.2470283  53.1613241  43.3045234  48.8798995  53.0293686
  41.9238388  49.1890697  52.5622187  41.1193768  50.4430430  54.4813421
  40.9509460  50.8628263  55.2132000  40.5141521  50.3790306  53.8733591
  48.4076474  47.0803273  55.8190973  49.4468896  47.0538743  56.4831687
  48.3794755  46.8385319  54.5198624  47.6649343  46.7049301  54.0598564
  49.6173132  46.7833591  53.7530313  50.2369398  46.1605972  54.1647551
  49.3635982  46.2806912  52.3404172  48.6048127  45.6762023  52.3500960
  49.1783143  47.0370827  51.7619851  50.5706113  45.5253609  51.7691961
  51.0315660  46.0920360  51.1303306  51.1711895  45.2852426  52.4923441
  50.1463316  44.2607865  51.0628589  49.1776603  44.2005410  51.0622903
  50.4792554  44.2712115  50.1521607  50.6946654  43.0500355  51.7542792
  51.6623505  43.0379130  51.6864598  50.4276169  43.0489721  52.6869045
  50.1512887  41.8517865  51.0973164  50.5050337  41.1195486  51.4584136
  49.2673875  41.8246846  51.1966905  50.3437571  41.8674677  50.2277240
  50.2239129  48.1814634  53.7492712  49.7268000  49.0905062  53.0849535
  51.2634117  48.3612873  54.5349273  51.6762321  47.7197872  54.9310927
  51.8263794  49.6703535  54.8181994  51.2885929  50.3735163  54.4224410
  51.8613332  49.8948553  56.3309195  50.9538584  49.8391814  56.6684635
  52.4065648  49.1999018  56.7295375  52.4243755  51.2183172  56.7803926
  53.3721298  51.2530770  56.5735703  51.9593027  51.9378134  56.3271282
  52.2200121  51.4354489  58.5582673  50.4551286  51.2410541  58.7455288
  50.1691826  51.7076457  59.5468504  50.0114746  51.6155684  57.9683112
  50.2473534  50.2967557  58.8221189  53.2231786  49.7382115  54.2194061
  54.0527758  48.8474571  54.4600616  53.4683419  50.7799249  53.4311466
  52.8838936  51.3784960  53.2326323  54.7662759  51.0052124  52.8241889
  55.2569841  50.1686408  52.8148896  54.6175334  51.4989961  51.3896167
  55.1856965  52.2758916  51.2634301  54.8846931  50.7918753  50.7825418
  53.6905008  51.7382012  51.2329726  55.5528934  52.0339470  53.6202191
  54.9946634  52.8012458  54.3927045  56.8529218  52.0662760  53.3918068
  57.2857032  51.5030236  52.9070812  57.6654179  53.1171632  53.9813290
  57.4474149  53.1843530  54.9246329  59.1483360  52.7989358  53.8519647
  59.3333901  52.5325739  52.9381713  59.6596335  53.5915610  54.0766113
  59.5942725  51.7048947  54.7403485  59.7889364  51.9281209  56.0934032
  59.6490062  52.7751756  56.4490419  60.1939969  50.8853804  56.9217004
  60.3122538  51.0343187  57.8312325  60.4191773  49.6334005  56.3945334
  60.6946476  48.9401004  56.9504507  60.2407776  49.4072095  55.0642972
  60.3945537  48.5600579  54.7117053  59.8300946  50.4441304  54.2341240
  59.7128910  50.2845768  53.3250476  57.3789398  54.4636049  53.3219188
  57.0485244  54.5288629  52.1407054  57.4687537  55.5577145  54.0759988
  57.8996374  55.6530035  55.4841743  58.8640058  55.5885831  55.5597423
  57.4779775  54.9675395  56.0256945  57.4193194  57.0090904  55.8661636
  57.9697000  57.3830222  56.5720858  56.4927882  56.9791769  56.1499930
  57.5467798  57.8594630  54.6079385  58.4236635  58.2702070  54.5542966
  56.8583682  58.5436882  54.5800231  57.3564278  56.8824071  53.4466552
  56.4788139  57.0367415  53.0640382  58.4389297  57.0164284  52.3900304
  59.5714824  56.5850400  52.5850033  58.0616091  57.5605574  51.2455245
  57.3121209  57.9678934  51.1322159  58.8899621  57.5183001  50.0582121
  59.5533142  56.8205785  50.1785768  58.0153309  57.2014976  48.8606307
  58.5694687  57.1419560  48.0668857  57.5609003  56.3576063  49.0110347
  57.0457019  58.2341113  48.6822087  56.8875114  58.3411851  47.8641593
  59.6494765  58.8158721  49.7774370  60.3202571  58.9027650  48.7523472
  59.5532905  59.8226721  50.6348663  59.1671304  59.7894356  51.4027515
  60.1344349  61.1177689  50.2961429  59.6974567  61.4627368  49.5020892
  59.9849703  61.7334104  51.0304199  61.6280239  61.0572947  50.0260433
  62.1417810  61.7435456  49.1319788  62.3524043  60.2587649  50.8039232
  62.0448086  59.7540939  51.4288777  63.7943995  60.2050555  50.6109619
  64.1334046  61.1132892  50.6330079  64.4676015  59.4354082  51.7388641
  64.0498400  58.5621681  51.8011204  65.4074711  59.3389914  51.5207059
  64.3879881  60.0707512  53.1173683  64.9509083  60.8609013  53.1496741
  63.4694338  60.3107015  53.3183855  64.8799911  59.0688861  54.1702255
  64.1834686  58.4142131  54.3328745  65.6787900  58.6298032  53.8381897
  65.2256538  59.7242597  55.5019968  65.8165022  59.1399566  56.0027303
  65.6615010  60.5752959  55.3371495  64.0150954  59.9732556  56.3187417
  64.1962070  59.8388092  57.1791275  63.7404555  60.8125380  56.2077822
  63.3625366  59.4202778  56.0714818  64.1541324  59.5801513  49.2736538
  65.1486568  59.9832377  48.6556016  63.3775116  58.5989965  48.8101807
  62.6938138  58.2740801  49.2184659  63.6612234  57.9920740  47.5100674
  64.6224516  57.8921059  47.4297395  63.0259649  56.5907201  47.4253678
  62.0659401  56.6984764  47.5109772  63.3405377  55.9368135  46.1049542
  63.0513000  55.0114950  46.1338720  62.8711715  56.4078756  45.4000649
  64.2974297  55.9800705  45.9520605  63.5189225  55.7128673  48.5208281
  63.7063291  54.8328249  48.1604141  64.3283297  56.0968591  48.8931172
  62.8365843  55.6509612  49.2066789  63.1917427  58.8909431  46.3627404
  63.8416066  58.9496067  45.3077407  62.0480217  59.5689061  46.5237354
  61.5319200  59.5043434  47.2089476  61.5732062  60.5055879  45.5059026
  61.3082280  59.9885663  44.7285885  60.3436972  61.2854542  46.0225901
  60.5659141  61.6894946  46.8760929  60.1166331  61.9742278  45.3788186
  59.0941607  60.3995719  46.2294065  58.7783081  60.0974084  45.3628857
  59.3380256  59.6377963  46.7774365  57.9294392  61.1288183  46.9269647
  57.5670584  62.2366102  46.4949550  57.3694783  60.5699263  47.8991697
  62.6637465  61.4875850  45.0856592  62.8643187  61.7323523  43.9006386
  63.3569580  62.0939929  46.0469090  63.2511588  61.9787913  46.8929829
  64.3860574  63.0390267  45.6493531  63.9857638  63.7124596  45.0771441
  64.7361730  63.4689526  46.4459539  65.5528593  62.4312522  44.9018926
  66.4480651  63.1631920  44.4669941  65.5634380  61.1175009  44.7089790
  64.9531944  60.5825015  44.9933950  66.6460644  60.4595169  43.9761638
  67.3681089  61.0998318  43.8743135  67.1431782  59.2603536  44.7750144
  66.3958256  58.6607006  44.9235885  67.8299320  58.8122373  44.2567066
  67.8504720  59.6505992  46.3848631  67.3222630  60.6384423  46.8139262
  66.2574247  59.9924829  42.5775333  67.0974825  59.4353995  41.8701063
  65.0138946  60.1440247  42.1680542  64.4019197  60.5673945  42.5997841
  64.5899612  59.5724561  40.8956412  65.0927868  58.7572070  40.7449717
  63.1088823  59.2060589  40.9210260  62.5906350  60.0054828  41.1051728
  62.8608658  58.8414945  40.0570337  62.7656998  58.1698661  41.9832541
  62.8839313  58.5725069  42.8579716  61.8414210  57.8995508  41.8648510
  63.7866944  56.6664414  41.9293538  63.4630297  56.1374615  40.2344548
  63.2773177  55.1854629  40.2298973  62.6969775  56.6245100  39.8920664
  64.2435036  56.3241622  39.6898437  64.8740898  60.5460208  39.7574568
  64.5744473  61.7396494  39.8567295  65.4809796  60.0267746  38.6906498
  65.7689175  59.2165548  38.6534792  65.7171180  60.7818420  37.4737896
  65.1992441  61.6012080  37.5203312  67.2148330  61.1809027  37.2711046
  67.2712595  61.6706247  36.4351701  67.7050249  62.0785798  38.3919390
  68.5004230  62.5479362  38.0947263  67.0082205  62.7159649  38.6133658
  67.9123893  61.5328622  39.1658907  68.1180427  59.9383306  37.1778521
  68.9623630  60.1907028  36.7712116  68.2720935  59.5918610  38.0707783
  67.6768176  59.2672911  36.6346843  65.2272808  59.9587468  36.2900392
  64.9175025  58.7688358  36.3868239  65.1716624  60.6274312  35.1638542
  65.3288414  61.4715382  35.1174090  64.8478083  60.0637757  33.8707892
  64.3990424  59.2080493  33.9540453  63.9532563  61.0553711  33.1404624
  63.1734802  61.2219091  33.6937909  64.4531789  61.8764903  33.0149766
  63.4679511  60.6473549  31.8324668  64.2159180  60.5687206  31.2190541
  63.0093079  59.7962341  31.9075848  62.5022413  61.6689954  31.2840270
  62.2725404  62.7373247  31.8885889  61.9192513  61.3495311  30.1513403
  62.0978813  60.5989481  29.7722381  61.3576360  61.8913411  29.7891591
  66.1311234  59.8352763  33.0890351  66.9818644  60.7293415  33.0136616
  66.2781935  58.6454315  32.5088681  65.7131041  58.0016187  32.5856021
  67.4354723  58.3299691  31.6757983  67.9952312  59.1181496  31.6058880
  68.2887850  57.2059052  32.2706207  67.7907784  56.3742369  32.2951608
  69.5098981  56.9527407  31.4047919  69.7936848  56.0329478  31.5195440
  69.2770812  57.1142057  30.4769631  70.2204417  57.5552826  31.6763247
  68.6647052  57.5811245  33.6840929  69.1254008  56.8337560  34.0972827
  69.2468147  58.3559247  33.6611977  67.8583678  57.7874395  34.1808414
  66.9465626  57.9770816  30.2822174  66.0899015  57.1007543  30.1129598
  67.4793433  58.6675876  29.2896897  68.0726189  59.2810203  29.4012894
  67.1118185  58.4565295  27.9020367  66.4954811  57.7108132  27.8322842
  66.4126502  59.6914680  27.3195149  66.9876021  60.4647540  27.4315066
  66.1321079  59.4974987  25.8633635  65.3677946  60.0342436  25.5993348
  66.9020188  59.7646221  25.3381329  65.9374653  58.5645528  25.6846818
  65.1654755  59.8995204  27.9934878  65.2359099  60.5344677  28.5397496
  68.3583768  58.1138688  27.0936532  69.4322066  58.7044538  27.2761794
  68.2109708  57.1333139  26.2212200  67.4803231  56.6927770  26.1118483
  69.2940485  56.6935966  25.3446082  69.9326702  57.3997141  25.1601888
  70.0832776  55.5493957  25.9871359  70.1619000  55.7320269  26.9370524
  69.5908468  54.7263834  25.8471160  71.7294048  55.2884414  25.3663445
  71.6767515  54.5547250  24.4180846  68.5999341  56.2820072  24.0519735
  67.8456620  55.2982381  24.0333472  68.7839237  57.0817000  23.0032860
  69.3343097  57.7425384  22.9775023  68.0341955  56.8805866  21.7761034
  68.3532293  57.4962704  21.0971182  68.1610643  55.9716882  21.4627585
  66.5530131  57.1166375  21.9819466  66.1230656  58.1890646  22.4250169
  65.7416256  56.1119844  21.6593142  66.0090682  55.3545053  21.3509917
  64.2963049  56.2171445  21.8076462  64.0494884  57.1538382  21.7663350
  63.5831803  55.4921680  20.6518329  63.8522220  55.8915770  19.8101240
  63.9611574  54.0220744  20.6551653  63.6459269  53.5965126  19.8422865
  64.9254219  53.9267824  20.7052787  63.5611668  53.5773000  21.4186607
  62.1540134  55.6114955  20.7856274  61.7705651  55.1659632  20.1853080
  63.7995800  55.6503246  23.1293041  62.6445972  55.8926048  23.4943642
  64.6289031  54.8990766  23.8377832  65.4474830  54.7433945  23.6254085
  64.2001978  54.2606095  25.0712367  63.2715437  53.9960480  24.9784803
  65.0298842  53.0126748  25.3631486  65.9389646  53.2661488  25.5852067
  64.4397999  52.2511121  26.5511456  64.4225555  51.3000142  26.3603224
  64.9780253  52.4038063  27.3433475  63.5341753  52.5543039  26.7229850
  65.0511071  52.1716633  24.2112982  65.6530155  51.5919151  24.2900343
  64.3416550  55.2371280  26.2298749  65.4081527  55.8232443  26.4327794
  63.2737597  55.4077593  26.9980791  62.4890031  55.1105373  26.8125823
  63.3706063  56.1371748  28.2531280  64.2733384  56.4771669  28.3590857
  62.4143486  57.3375676  28.2939991  61.5357691  57.0347149  28.0164393
  62.3182529  57.9294549  29.6967921  61.7562662  58.7198918  29.6849029
  61.9351529  57.2794311  30.3054475  63.2013613  58.1762698  30.0146787
  62.9062903  58.3662948  27.4338179  63.6926444  58.5688650  27.6490888
  63.0538103  55.1945685  29.3979777  62.1924780  54.3169363  29.2771502
  63.7295237  55.3818672  30.5183101  64.4122682  55.8986651  30.6013085
  63.3247954  54.6767836  31.7421018  62.3599556  54.6673265  31.8448815
  63.7588360  53.2028615  31.6671129  63.2263978  52.7346227  32.3283927
  63.5233727  52.9005935  30.7769371  65.1805929  52.7025655  31.8860593
  65.1807517  52.4091854  32.8111226  65.5265150  51.5415649  30.9893234
  66.1728817  50.9761602  31.4398815  64.7201125  51.0380839  30.8001253
  65.9051198  51.8830982  30.1634987  66.2428125  53.7398601  31.7682694
  67.1042915  53.3310881  31.9469767  66.2298105  54.1042555  30.8703518
  66.0706056  54.4428824  32.4137130  63.8621576  55.4754849  32.9214576
  64.3213214  56.6190800  32.7610428  63.8096535  54.8862521  34.1118920
  63.5720525  54.0697104  34.2424232  64.1654404  55.6248563  35.3182433
  64.1251319  56.5670976  35.0912397  63.1932994  55.3243238  36.4631035
  63.2852977  54.3930725  36.7191138  63.4065306  55.8982050  37.2164547
  61.7519930  55.5655063  36.0884395  61.3009199  56.7046961  36.0332545
  61.0231511  54.4831136  35.8027502  60.1960838  54.5661785  35.5830095
  61.3812466  53.7016267  35.8382455  65.5753388  55.3058258  35.8019862
  66.0843161  54.2001175  35.6298783  66.1455846  56.2645381  36.5356772
  65.7933982  57.0341672  36.6908923  67.4445513  56.0741441  37.1452645
  67.6639811  55.1299474  37.1650659  68.1208709  56.5455543  36.6356722
  67.4389154  56.6096362  38.5723599  66.5773872  57.4034603  38.9476922
  68.3997412  56.1165218  39.3524703  68.9854121  55.5502715  39.0787348
  68.5649329  56.4807770  40.7540144  67.8083106  57.0198432  41.0354098
  68.6374168  55.2366686  41.6365689  67.8586319  54.6911039  41.4455764
  69.4458930  54.7541749  41.4032643  68.6679076  55.4471676  43.1559973
  69.2646184  56.1927668  43.3254432  67.3159761  55.7582481  43.6873335
  67.4082969  56.1807491  44.5557095  66.8661938  56.3586493  43.0731574
  66.8133698  54.9339169  43.7727259  69.1753431  54.2228594  43.8697232
  69.2975640  54.4331856  44.8088159  68.5255996  53.5084506  43.7725870
  70.0217383  53.9562096  43.4768645  69.8369710  57.3043184  40.9060814
  70.9276976  56.8227003  40.5959983  69.6930614  58.5114409  41.4556953
  68.9568149  58.7823360  41.8069699  70.7564360  59.5082493  41.5266633
  71.5171490  59.2151041  41.0021134  70.2302608  60.8284357  41.0071670
  69.9126589  60.6924588  40.1010360  69.4974007  61.1091600  41.5773889
  71.1930754  61.9241980  40.9691403  72.5611850  61.8442241  40.8925238
  73.0494105  61.0524995  40.8693472  73.1035487  63.1084740  40.8531305
  73.9426672  63.2925817  40.8060313  72.0824597  64.0290220  40.9020544
  72.1247934  65.4082800  40.8835013  72.9328035  65.8662179  40.8397676
  70.9316982  66.0780727  40.9331751  70.9311556  67.0076084  40.9195754
  69.7041208  65.3913049  41.0028741  68.9097838  65.8748177  41.0275354
  69.6594331  64.0224371  41.0340962  68.8462140  63.5744765  41.0896756
  70.8660761  63.3120517  40.9796593  71.2190677  59.6523606  42.9739469
  70.4905448  60.1853041  43.8180348  72.4204375  59.1644431  43.2489052
  72.9239710  58.7912219  42.6603901  73.0262736  59.2022762  44.5711069
  72.5185977  59.7904125  45.1524586  73.0492816  57.8040587  45.2324725
  73.6168707  57.2333712  44.6908819  73.4282152  57.9043819  46.1186980
  71.7065349  57.0541537  45.4076974  71.2524910  57.0549132  44.5502771
  71.9339720  55.5763818  45.8215133  71.0836301  55.1091813  45.8065681
  72.5485662  55.1636318  45.1944110  72.3085873  55.5529216  46.7155503
  70.8003016  57.7603306  46.4143683  69.8785184  57.6758404  46.1224809
  70.9110795  57.3450802  47.2841500  71.0485020  58.6971209  46.4600584
  74.4422188  59.7430807  44.4205792  75.2292323  59.2383757  43.5987722
  74.7803175  60.7388022  45.2362825  74.3068972  60.9909619  45.9086029
  76.0270672  61.5134161  45.0487681  75.9795978  62.3146065  45.5925967
  77.2319182  60.7197037  45.5305655  77.2580817  59.8714135  45.0623720
  78.0373823  61.2267746  45.3447140  77.1919723  60.4299640  47.0325303
  76.4843801  61.1444350  47.7688886  77.8827083  59.4911962  47.4763588
  76.0632067  61.9096063  43.5819285  75.0446198  62.4236491  43.0827073
  77.1471044  61.6610539  42.8422412  77.8431266  61.2500662  43.1367074
  77.2484558  62.0685971  41.4496414  76.4957034  62.6529059  41.2662044
  78.5214247  62.8854611  41.1718857  78.5430532  63.1186961  40.2305783
  78.4983740  63.6900011  41.7131630  79.8304709  62.1415709  41.4981547
  79.8089941  61.0797278  42.1475467  80.9182701  62.6511450  41.0911005
  77.1737734  60.8763063  40.5064966  77.7753683  60.8932166  39.4309114
  76.4293831  59.8383187  40.8961578  76.0160095  59.8036554  41.6498167
  76.2465448  58.6543155  40.0712781  76.6535913  58.8161709  39.2053422
  76.9035880  57.4105478  40.7034941  76.4270557  57.2035906  41.5220744
  76.8194027  56.2522471  39.7665431  77.3954913  55.5420600  40.0900892
  75.9009045  55.9424652  39.7292570  77.1090025  56.5380511  38.8862175
  78.3339077  57.6626208  41.0377556  78.7095041  56.8655738  41.4405935
  78.8147204  57.8800739  40.2233605  78.3856961  58.4050692  41.6603577
  74.7533375  58.4137139  39.8643176  73.9573176  58.5077814  40.8078693
  74.3909657  58.0568460  38.6363547  74.9321944  58.0491782  37.9682420
  73.0329652  57.6367366  38.2825302  72.4447261  57.7440954  39.0466676
  72.4532342  58.4720491  37.1340069  73.0680590  58.4355835  36.3842344
  71.1326416  57.9232388  36.6494127  70.6942680  58.5934262  36.1027845
  71.2966877  57.1232223  36.1246237  70.5795738  57.7082784  37.4167654
  72.2899814  59.9206150  37.5944137  72.2553054  60.4972115  36.8158566
  71.4657592  59.9993764  38.1017551  73.0452539  60.1621982  38.1517385
  73.1019448  56.1617119  37.9218156  73.9051821  55.7450038  37.0737152
  72.3039829  55.3647698  38.6059274  71.7647595  55.6405824  39.2176549
  72.2535986  53.9259961  38.3956092  73.0241588  53.6270776  37.8871746
  72.2578982  53.1660297  39.7370151  71.4384405  53.3816613  40.2090035
  72.2907337  52.2158315  39.5457606  73.4096096  53.4704658  40.6819888
  73.4661706  54.6844715  41.4026003  72.7851235  55.3087677  41.3002519
  74.5154683  54.9611175  42.2551179  74.5420965  55.7688747  42.7148191
  75.5488345  54.0107402  42.4287709  76.5957505  54.2805442  43.2941926
  77.2435032  53.7712248  43.1300642  75.5175259  52.8082359  41.7289929
  76.2029573  52.1881811  41.8322295  74.4450039  52.5384088  40.8673573
  74.4182926  51.7282678  40.4115689  70.9642185  53.6243409  37.6339210
  69.8975818  54.1173353  38.0150833  71.0512726  52.8385962  36.5552200
  71.7842223  52.5344483  36.2247632  69.8346525  52.4392488  35.8513348
  69.1254587  52.3077474  36.4988157  69.4068318  53.4998783  34.8427990
  68.5161563  53.2929950  34.5201995  69.4101717  54.3686199  35.2737328
  70.5179781  53.5657669  33.4319506  70.7800661  54.7128602  33.1940833
  70.0754773  51.1060078  35.1418442  71.2097009  50.6397204  35.0291009
  68.9998212  50.4854612  34.6430349  67.5798453  50.8396238  34.7595954
  67.3056765  51.4213926  34.0340429  67.3974033  51.2639900  35.6130415
  66.9007374  49.5055481  34.6669040  65.9862738  49.5955970  34.3532107
  66.9144252  49.0405847  35.5181353  67.7471427  48.7560557  33.6343609
  67.5022475  49.0089187  32.7305221  67.6661216  47.7958203  33.7445727
  69.1838236  49.2017842  33.9356967  69.6199149  48.5506288  34.5074162
  69.9843789  49.3824107  32.6589354  69.7758370  50.3394488  31.9014447
  70.8862319  48.4320179  32.4032409  71.0332182  47.7397043  32.8928794
  71.7193932  48.5304161  31.2028168  72.1076216  49.4189742  31.1794212
  72.8840032  47.5365818  31.2480037  73.4580705  47.7080921  30.4842727
  73.3755531  47.6836242  32.0712935  72.5041376  46.0427027  31.2046270
  72.0690040  45.7986070  32.0367304  71.9034042  45.8859827  30.4587342
  73.7472339  45.1414808  31.0247366  74.1699722  45.3549897  30.1780800
  74.3639156  45.3088130  31.7549438  73.4383743  43.7112876  31.0214133
  72.6293805  43.4741124  31.1934859  74.3257854  42.7540631  30.7694277
  75.6173269  43.0573523  30.5196014  75.8748892  43.8774919  30.5233035
  76.1826778  42.4299317  30.3579296  73.9213247  41.4925115  30.7592176
  73.0967231  41.3046915  30.9145133  74.4835294  40.8624279  30.5976456
  70.9108330  48.3184708  29.9360936  71.3076763  48.8033846  28.8816155
  69.7598171  47.6480628  30.0102317  69.4157405  47.3168072  30.7257469
  68.9957280  47.4461903  28.7810034  69.5699956  47.0548251  28.1044799
  67.8712722  46.4124476  29.0156609  67.4845043  46.1860416  28.1554499
  68.2656116  45.6240899  29.4195909  66.7376246  46.8467685  29.9075882
  65.8938530  47.8965164  29.6047865  65.9607814  48.4028610  28.9123526
  64.9669486  48.0022422  30.5409010  64.2967408  48.6453184  30.5700852
  65.1541427  47.0403206  31.4270907  64.5854825  46.8738330  32.2448544
  66.2556648  46.3016285  31.0505817  66.6040706  45.5650797  31.4991541
  68.4872479  48.7531747  28.1764037  68.0017752  48.7393350  27.0405645
  68.6713834  49.8947121  28.8407563  68.9474180  49.9553707  29.6530933
  68.4039087  51.1646762  28.1926608  67.4620682  51.1676570  27.9592586
  68.6876168  52.3334647  29.1563455  68.3389864  52.1086454  30.0334670
  70.1873990  52.5714582  29.3005208  70.3354428  53.2694072  29.9565850
  70.6111914  51.7489565  29.5915053  70.5483694  52.8417127  28.4416303
  67.9939524  53.5908024  28.6637458  68.4222394  54.3640369  29.0608663
  68.0663572  53.6320506  27.6972821  67.0598263  53.5588377  28.9239297
  69.2059518  51.3540324  26.9051489  68.8267867  52.1648596  26.0656883
  70.3014730  50.6218962  26.7149810  70.5913652  50.0179402  27.2538212
  71.1089876  50.8237973  25.5139427  70.9155038  51.7193498  25.1941570
  72.6277722  50.7358185  25.7957477  73.0883751  50.9394005  24.9660831
  73.0401455  51.7717549  26.8499066  73.1247127  52.6390092  26.4242349
  72.3592864  51.8073973  27.5400150  73.8892189  51.5085983  27.2366673
  73.0589784  49.3219882  26.2032720  72.6406637  49.0991330  27.0502067
  72.7728622  48.6974469  25.5179453  74.5838227  49.1686685  26.3753735
  74.7599336  48.4598694  27.0127617  74.9774292  48.9471102  25.5163119
  74.9504997  50.0056074  26.7003556  70.7071045  49.8380469  24.4261784
  71.3453648  49.7929273  23.3723634  69.6345349  49.0712913  24.6531083
  69.2042294  49.0487729  25.3974497  69.0891294  48.1843341  23.6309123
  69.8440660  47.7847833  23.1712430  68.2165173  47.0808621  24.2332634
  67.6609532  47.4699426  24.9274492  67.6590704  46.7083525  23.5329131
  69.0961497  45.7966785  24.9324840  70.1320668  46.2224188  25.3631369
  68.2108819  48.9484288  22.6544848  67.6269071  49.9833399  22.9921981
  68.1011560  48.4109275  21.4450326  68.6179229  47.7918893  21.1476393
  67.0775051  48.8300871  20.4984149  66.6098066  49.5916788  20.8760314
  67.6748464  49.2577870  19.1575226  66.9648761  49.4021120  18.5119504
  68.4387245  50.5631295  19.3022373  68.4413219  51.0410515  18.4584803
  68.0204151  51.1194516  19.9783016  69.3553986  50.3837188  19.5656256
  68.5445119  48.2245977  18.6735942  69.2419373  48.1943385  19.1415133
  66.1045338  47.6834752  20.2619472  66.3201646  46.5545517  20.7142525
  65.0391620  47.9858637  19.5136925  64.8571301  48.7697353  19.2101936
  64.0706051  46.9585937  19.1437818  63.7204956  46.5495986  19.9495587
  62.8903336  47.5852924  18.3969404  62.2246570  46.8992587  18.2339484
  62.5121855  48.2907044  18.9464336  63.2901223  48.1385539  17.1546648
  63.8173376  48.7799328  17.2821405  64.7084741  45.8734839  18.2933557
  64.1598624  44.7707493  18.1969155  65.8577626  46.1565463  17.6882774
  66.2385976  46.9274889  17.7203430  66.5922250  45.1772208  16.9040961
  65.9514162  44.5803633  16.4874918  67.3947068  45.8761131  15.7798072
  68.3088186  45.9822277  16.0862389  67.3716528  45.3043564  14.9962712
  66.9046870  47.2741621  15.3315164  66.6261333  47.7723087  16.1156731
  67.6345807  47.7332261  14.8888897  65.7223038  47.2344615  14.3613757
  65.2111455  46.1296195  14.0766066  65.3060112  48.3155051  13.8807447
  67.5493769  44.3383481  17.7512861  68.2389183  43.4764369  17.2012435
  67.5942332  44.5571583  19.0734188  67.0049124  45.0122632  19.5029855
  68.6601452  44.0392385  19.9193666  69.2673280  43.5507594  19.3425753
  69.4191770  45.1969069  20.6006620  68.7836422  45.8864300  20.8482552
  69.8658341  44.8572733  21.3912710  70.4645298  45.8256513  19.7102149
  71.3286796  45.0882594  19.1796875  70.4190185  47.0665554  19.5531141
  68.1982426  43.1072533  21.0215987  69.0492970  42.5238330  21.7029563
  66.8939863  42.9422689  21.2243071  66.2788672  43.1221871  20.6509940
  66.4062158  42.4204978  22.4971856  66.8995801  42.8589308  23.2069448
  64.9186339  42.7631016  22.6390013  64.4222616  42.2973548  21.9472951
  64.6142410  42.4780664  23.5143692  64.6236552  44.2466579  22.5050741
  65.2463518  44.7463627  23.0550587  64.7182669  44.5074927  21.5749774
  62.9555877  44.6547893  23.0346321  62.1719024  45.1320771  21.4939583
  61.2536140  44.8186617  21.4966316  62.1914021  46.0985888  21.4153963
  62.6556825  44.7303737  20.7550319  66.6206132  40.9237328  22.6742544
  66.7276873  40.4583758  23.8139780  66.6642679  40.1494768  21.5860399
  66.6371829  40.4357500  20.7749129  66.7635817  38.7020132  21.7050816
  66.0656088  38.3970397  22.3058986  66.5434496  38.0435499  20.3403630
  66.4262175  38.7505238  19.6867588  67.3356469  37.5248446  20.1306534
  65.3419012  37.0977750  20.1909757  65.5588968  36.3009128  20.6991690
  64.0395382  37.6519614  20.7758894  63.7627492  38.4240489  20.2566980
  63.3566371  36.9642033  20.7354305  64.1920525  37.9118563  21.6980337
  65.1184370  36.7517018  18.7200434  64.7896803  37.5381064  18.2572823
  65.9606095  36.4683944  18.3307472  64.4675936  36.0358146  18.6590403
  68.1036803  38.2711512  22.2950399  68.1491914  37.3840232  23.1552903
  69.2134157  38.8658590  21.8651809  69.2317102  39.4717514  21.2538269
  70.5311527  38.5285094  22.4117067  70.4242593  38.3394531  23.3569033
  71.1000922  37.3052595  21.7043890  70.3782441  36.8270480  21.2676167
  71.7520050  37.5938070  21.0468389  71.7806012  36.3580913  22.6542717
  71.5084304  35.1651014  22.6319085  72.6611466  36.8857005  23.5106749
  73.0727742  36.3790364  24.0704857  72.8161076  37.7316111  23.5025941
  71.4779562  39.7043840  22.2930844  72.4295461  39.6914044  21.5139246
  71.2709504  40.7353047  23.1061159  70.2477244  40.8789528  24.1519665
  70.2490012  40.1122161  24.7457394  69.3678165  40.9967006  23.7628566
  70.6890466  42.1264366  24.8794334  71.2626489  41.8984901  25.6280794
  69.9191253  42.6271866  25.1921498  71.4506598  42.9492576  23.9100233
  72.1158219  43.4930081  24.3586834  70.8576078  43.5128529  23.3884491
  72.1367203  41.9203229  23.0015633  72.1543529  42.2551927  22.0911654
  73.5571756  41.6181857  23.4572319  73.7822078  40.8758562  24.4118147
  74.5158864  42.1882511  22.7387584  74.3686073  42.6219319  22.0118122
  75.9303040  42.1426205  23.1049682  76.1337143  41.3966280  23.6906322
  76.8076647  41.9687014  21.8732440  76.5608438  41.1458208  21.4231585
  76.6725924  42.7245948  21.2812646  78.2842481  41.8953800  22.2078053
  78.7273224  42.2821252  23.3000463  79.0616513  41.4006042  21.2576704
  79.9092898  41.3330488  21.3873707  78.7195081  41.1463625  20.5105117
  76.1668048  43.4599644  23.8287262  76.4106750  44.4998288  23.2110537
  76.0397241  43.4279746  25.1526054  75.9946809  42.7174146  25.6347107
  75.9694221  44.6841140  25.8839203  75.2863796  45.2404328  25.4776490
  75.5475851  44.4497979  27.3366472  75.9595063  43.6323111  27.6577800
  75.8375569  45.2014153  27.8768746  74.0397734  44.3116072  27.4884802
  73.1920577  45.4154606  27.3228281  73.5551158  46.2485212  27.1291254
  71.7995619  45.2766282  27.4455435  71.2468665  46.0154576  27.3313640
  71.2516010  44.0374894  27.7383044  69.8809576  43.8951575  27.8452964
  69.6920889  43.1168873  28.0985731  72.0720547  42.9359908  27.8989332
  71.7023762  42.1052529  28.0962102  73.4591799  43.0724661  27.7644449
  74.0036150  42.3247014  27.8607380  77.2930458  45.4286407  25.8141392
  77.3060296  46.6532795  25.6542513  78.4088545  44.7057742  25.9400528
  78.4305392  43.8616396  26.1035013  79.7259268  45.3166392  25.8045479
  79.8276065  45.9779866  26.5073529  80.8067250  44.2556150  25.9639369
  80.5559690  43.4746390  25.4457593  81.6466078  44.6139080  25.6385987
  81.0146053  43.8140897  27.3907130  81.9215920  43.4830316  27.4904608
  80.8711585  44.5700411  27.9803320  80.0694742  42.7186497  27.7947727
  79.9843372  42.4537285  29.0049828  79.4132352  42.1254536  26.9088056
  79.8843891  46.0296222  24.4627704  80.3621747  47.1652380  24.3960282
  79.4932499  45.3812082  23.3762937  79.1459806  44.5947924  23.3582608
  79.6501589  46.0290049  22.0798741  80.5620890  46.3452583  21.9824457
  79.3966563  45.0163366  20.9635326  79.9982328  44.2632409  21.0756829
  78.4762354  44.7157950  21.0120831  79.6286142  45.6009628  19.5757884
  78.6416574  45.7223301  18.8139904  80.7908105  45.9539176  19.2589088
  78.7345606  47.2448533  21.9610738  79.1562458  48.3003028  21.4732163
  77.4800793  47.1230370  22.4201276  77.1551000  46.4175425  22.7894715
  76.5424777  48.2377320  22.3153935  76.4708207  48.4913693  21.3824870
  75.1584673  47.8137658  22.8030591  75.2656533  47.3825764  23.6653543
  74.6179390  48.6139611  22.8964757  74.3731587  46.8476856  21.9164214
  74.9574816  46.1209904  21.6476487  73.1946819  46.2439742  22.6948269
  72.4321600  46.1639293  22.1010767  73.4502482  45.3678485  23.0252124
  72.9757541  46.8271265  23.4385015  73.8936318  47.5398894  20.6391423
  73.4245835  46.8950030  20.0870370  73.2974798  48.2663202  20.8786233
  74.6624687  47.8881431  20.1607595  77.0275819  49.4392330  23.1059929
  76.8782286  50.5870088  22.6609599  77.6354757  49.1999238  24.2721756
  77.8118713  48.4201795  24.5882918  78.0557726  50.3066914  25.1212439
  77.3160964  50.9250342  25.2263978  78.4410210  49.7839697  26.4959365
  77.7258144  49.2101377  26.8140096  79.2609112  49.2743242  26.4091293
  78.6769225  50.8460245  27.5635319  79.3312228  51.4896107  27.2467909
  77.3893503  51.6184322  27.8541419  77.4689041  52.0513357  28.7178500
  77.2564129  52.2835107  27.1606239  76.6440364  50.9968371  27.8621195
  79.2243950  50.1885986  28.8245974  78.7286000  50.5165344  29.5911640
  79.1198789  49.2270373  28.7497491  80.1629863  50.4139532  28.9159138
  79.2190214  51.0528953  24.5088054  79.3545033  52.2700348  24.6942695
  80.0539687  50.3218492  23.7678690  79.9310999  49.4936555  23.5768388
  81.2746873  50.8666994  23.2016356  81.8196884  51.2654049  23.8980017
  82.0830657  49.7116913  22.5650080  81.7353141  48.8670987  22.8935947
  81.9042188  49.6511558  21.0415257  82.3479392  48.8577448  20.7022835
  80.9570925  49.6137264  20.8357835  82.2971189  50.4443813  20.6452925
  83.5476908  49.8212556  22.9938655  84.0727919  49.1815344  22.4872624
  83.8611498  50.7221703  22.8166783  83.7531972  49.5345097  24.4678617
  84.6661671  49.7581691  24.7083849  83.1325691  50.0730132  24.9836057
  83.5892665  48.5923767  24.6318072  80.9505123  51.9797613  22.2203468
  81.5647158  53.0534118  22.2557392  79.9605580  51.7713044  21.3707651
  79.5134413  51.0381997  21.3309512  79.5209324  52.7667191  20.4042850
  80.2964473  53.1188638  19.9396595  78.6062328  52.1000809  19.3704518
  77.9187078  51.6032546  19.8405540  78.2009403  52.7920439  18.8245039
  79.3155946  51.1269012  18.4297515  80.1661767  51.5073741  18.1618553
  79.4587016  50.2856452  18.8909270  78.4994433  50.8440282  17.1654027
  78.1014696  51.6712278  16.8517616  79.0851016  50.4777082  16.4841898
  77.4260913  49.8856515  17.4048932  76.6211546  50.1846734  17.4531504
  77.6150208  48.5771484  17.5540183  78.8413786  48.0718892  17.4923286
  79.5138877  48.5899527  17.3563484  78.9625564  47.2259806  17.5885760
  76.5778534  47.7749870  17.7718872  75.7831893  48.1023361  17.8176862
  76.7004241  46.9293071  17.8680480  78.7944747  53.9836392  21.0670835
  78.2731285  54.8394601  20.3228022  78.7627594  54.0900342  22.3965388
  79.1682981  53.5481621  22.9271036  78.0316295  55.1453369  23.0885606
  77.4755651  55.6126270  22.4457213  77.1378060  54.5601572  24.1871567
  77.6934061  54.0597899  24.8044679  76.7006186  55.2916190  24.6526155
  76.0429864  53.6144415  23.6761481  76.4113291  53.0483960  22.9790412
  75.7246247  53.0688274  24.4124029  74.8526704  54.3651097  23.0950887
  74.3700504  54.8077532  23.8106792  75.1674075  55.0210597  22.4533214
  73.8955104  53.4189933  22.3838436  74.4058539  52.8105789  21.8264852
  73.3928542  52.9182155  23.0456119  72.9153231  54.1461252  21.5061683
  72.0834763  53.9739713  21.7710362  73.0577268  55.0235556  21.5525468
  73.0093802  53.8828203  20.6610494  79.0004263  56.1552112  23.6934784
  79.9753660  55.7781348  24.3373169  78.7167749  57.4306012  23.4922642
  78.1042178  57.6988094  22.9508150  79.4057753  58.5289578  24.1607261
  80.2840498  58.2405700  24.4540220  79.5593954  59.7009453  23.1909962
  79.9670166  60.4499802  23.6536934  80.1150788  59.4310360  22.4439313
  78.2636998  60.0893015  22.7064259  78.0962982  60.8802787  22.9340348
  78.6120952  58.9814675  25.3840343  77.4112148  58.7340845  25.4845620
  79.2897433  59.6777637  26.3092443  80.1423949  59.7944778  26.3133793
  78.5833754  60.3120233  27.4192142  78.2713850  59.6206171  28.0230828
  79.5302759  61.2326190  28.1982637  79.9783988  61.8271141  27.5765850
  79.0158792  61.7482697  28.8380506  80.5813247  60.4685724  28.9519634
  80.3781348  59.3117718  29.3147417  81.7046542  61.1139338  29.2207934
  82.3356242  60.7172482  29.6498614  81.8033909  61.9287643  28.9653832
  77.3810956  61.1050180  26.9191445  76.2951390  61.0498272  27.5049202
  77.5516388  61.8439241  25.8285383  78.2729318  61.8604592  25.3607081
  76.4943722  62.7160432  25.3179099  76.1323885  63.2664974  26.0299324
  77.1060406  63.6575347  24.2709120  77.9341423  64.0168714  24.6247448
  77.2821383  63.1492526  23.4633231  76.2333891  64.8127384  23.8975694
  75.4992890  64.8410085  22.7307276  74.8365172  65.9822333  22.6592460
  74.2691237  66.2380617  21.9686091  75.1170953  66.6966653  23.7352887
  74.8037993  67.4778326  23.9113942  75.9908292  65.9902805  24.5259686
  76.3478896  66.2661758  25.3392832  75.3215747  61.9296896  24.7472006
  74.2359704  62.4974939  24.5821535  75.4772934  60.6269798  24.5045535
  76.2229915  60.2010802  24.5540810  74.3291734  59.8090663  24.1203623
  73.8660996  60.2730790  23.4056897  74.7713947  58.4413627  23.5799567
  75.4454625  58.0712008  24.1717733  74.0016098  57.8519500  23.5449173
  75.3646268  58.5192674  22.1845813  76.4591733  58.0204436  21.9366784
  74.6458807  59.1564791  21.2676521  74.9397077  59.2264409  20.4626744
  73.8848780  59.4986740  21.4783404  73.3746600  59.5785040  25.2831792
  72.2619130  59.0823350  25.0704528  73.7791098  59.8951705  26.5044128
  74.5478542  60.2359458  26.6859459  72.9266091  59.6823405  27.6689573
  72.2066081  59.0769480  27.4340774  73.7062595  59.0505719  28.8176969
  74.4902188  59.5923693  29.0011374  73.1363649  59.0141898  29.6012257
  74.1733402  57.6428183  28.5135878  73.2943359  56.5778759  28.5491721
  72.4033778  56.7228820  28.7701153  73.7335014  55.2827104  28.2550466
  73.1352064  54.5701380  28.2858623  75.0556376  55.0606846  27.9184037
  75.3517726  54.2018093  27.7229598  75.9318862  56.1263374  27.8750155
  76.8236483  55.9881263  27.6503065  75.4759779  57.4015266  28.1704154
  76.0724644  58.1141376  28.1337068  72.3169719  61.0072674  28.0826264
  73.0410396  61.9431728  28.4473896  70.9863665  61.1024142  27.9827204
  70.4843990  60.4824691  27.6597859  70.2514704  62.2896933  28.4200168
  70.8633033  63.0386833  28.4952458  69.1597868  62.6786908  27.4195864
  69.5881825  62.9782478  26.6024715  68.6154195  61.8953470  27.2418039
  68.2141129  63.7972887  27.8764942  67.9448780  63.5856939  28.7838062
  68.9258176  65.1778244  27.9118017  68.2591552  65.8742472  28.0233968
  69.5482036  65.1932365  28.6558932  69.4039364  65.3083852  27.0786587
  66.9258776  63.8615808  27.0257261  66.4269040  64.6572923  27.2675682
  67.1697621  63.8965495  26.0871961  66.3931880  63.0704858  27.1999856
  69.6492488  61.9753221  29.7853790  68.7640984  61.1160873  29.8958073
  70.1243074  62.6652964  30.8187118  70.7443502  63.2572482  30.7498867
  69.6367418  62.4839588  32.1740219  68.9976668  61.7538141  32.1838089
  70.7817931  62.1438693  33.1458361  71.3999003  62.8905704  33.1773800
  70.2207788  61.9024219  34.5697908  70.9567651  61.8921057  35.2024865
  69.6032460  62.6170477  34.7921693  69.7595975  61.0491195  34.5867900
  71.5185927  60.9279266  32.6750170  72.2297455  60.7259652  33.3028795
  70.8997535  60.1828834  32.6245333  71.8942586  61.1061618  31.7979472
  68.9229826  63.7545741  32.6055467  69.5016554  64.8483969  32.5499904
  67.6895885  63.6090645  33.0871605  67.2855997  62.8541498  33.1637826
  66.9128147  64.7612286  33.5318193  67.4887170  65.5419621  33.5517641
  65.7477883  65.0184851  32.5857867  65.2147338  64.2103661  32.5245127
  65.2118535  65.7428596  32.9454121  66.1504232  65.4012846  31.1932094
  66.5360179  66.2919136  31.2021986  66.7993109  64.7632910  30.8576877
  64.9526510  65.4049255  30.2632021  64.6714405  64.4133530  29.5882202
  64.2247906  66.5082853  30.2457271  64.4415456  67.1743895  30.7450792
  63.5340093  66.5606426  29.7351872  66.4100741  64.5381582  34.9485304
  65.7923817  63.5143899  35.2427220  66.7380169  65.4527920  35.8255335
  67.2924906  66.0889951  35.6619006  66.1993730  65.4918218  37.1721701
  65.8099667  64.6385926  37.4199838  67.2863907  65.7915147  38.1956820
  66.8762952  66.1564936  38.9950724  67.7542072  64.9689316  38.4093497
  67.9066960  66.4358487  37.8191264  65.1294510  66.5741025  37.1514458
  65.4458839  67.7680453  37.0915048  63.8744939  66.1557639  37.1778527
  63.6247698  65.3531499  37.3580130  62.7909517  67.0751114  36.8889022
  61.9378719  66.6164254  36.9447666  62.7964506  67.8102838  37.5214212
  62.9773962  67.6172739  35.4883765  63.0763343  66.8666359  34.5087526
  63.0616216  68.9350724  35.3808806  62.9633299  69.4777202  36.0411086
  63.3333032  69.5890792  34.1108750  63.0869396  68.9887066  33.3897489
  62.4752442  70.8534020  33.9832173  61.5634541  70.6451270  34.2409911
  62.8358236  71.5408367  34.5658373  62.4501242  71.4048881  32.5647046
  63.3931134  72.0678929  32.1274163  61.3622580  71.1419400  31.8439172
  61.3002440  71.4324393  31.0364109  60.7203356  70.6818272  32.1860604
  64.8052153  69.9452444  33.9341551  65.1836484  70.4433794  32.8725173
  65.6420072  69.6967010  34.9355065  65.4132548  69.3133003  35.6707753
  67.0514038  70.0602852  34.8698261  67.1322920  70.8543397  34.3187221
  67.6139962  70.3551973  36.2677337  67.5982026  69.5511931  36.8118604
  69.0621275  70.8088541  36.1391683  69.3050847  71.3159211  36.9286060
  69.6320985  70.0269636  36.0595741  69.1502305  71.3635073  35.3490874
  66.7566586  71.3758376  36.9860454  67.1415249  71.5531552  37.8592455
  66.7315611  72.1921549  36.4633734  65.8594149  71.0194465  37.0866791
  67.8426149  68.9372606  34.2147500  67.8220449  67.7924523  34.6827669
  68.5945418  69.2688122  33.1778969  68.6077970  70.0435186  32.8042201
  69.4864423  68.2868112  32.5863424  69.0428913  67.4253490  32.5305090
  69.8650470  68.6855098  31.1610271  69.0873274  68.5758702  30.5910925
  70.1478488  69.6131582  31.1617597  70.9997072  67.8539859  30.5643383
  71.8453090  68.1784990  30.9113842  70.8733726  66.9246638  30.8125359
  71.0542921  67.9309928  29.0478330  70.3531344  68.7358353  28.4291663
  71.8837232  67.0826262  28.4395031  72.3521096  66.5308732  28.9040488
  71.9517399  67.0869521  27.5820691  70.7268073  68.1326357  33.4574925
  71.2676913  69.1064212  33.9781654  71.1461325  66.8925675  33.6478427
  70.7027580  66.1963598  33.4077325  72.4128601  66.5875448  34.2906703
  72.7525552  67.3829127  34.7300588  72.2824502  65.5053130  35.3510987
  72.0205800  64.6871163  34.9022688  73.1533029  65.3942053  35.7622066
  71.2930023  65.7126039  36.4847425  70.4165297  65.9748937  36.1630627
  71.1913691  64.3848429  37.2211379  70.8386459  64.5438450  38.1106837
  70.5962337  63.7965929  36.7305009  72.0742837  63.9883357  37.2805008
  71.7509672  66.8282600  37.3857733  70.9788035  67.3464517  37.6622991
  72.1898765  66.4472988  38.1620292  72.3709219  67.3933780  36.8983363
  73.3609363  66.1108778  33.2120800  73.0046611  65.2356033  32.4220891
  74.5489312  66.6846172  33.1772067  74.8191584  67.2792530  33.7358716
  75.5226092  66.3389154  32.1518577  75.0706727  66.1546322  31.3131116
  76.4799726  67.5028656  31.9175794  76.0194393  68.1755630  31.3906654
  76.7293797  67.8713475  32.7796433  77.7732422  67.1565250  31.1810396
  78.2483285  66.4607738  31.6617613  77.5675774  66.8573945  30.2819084
  78.6720032  68.3967524  31.0947226  78.1549853  69.1431782  30.7546417
  79.0136271  68.6052708  31.9783442  79.8133401  68.1861084  30.2012215
  80.5938810  68.1039870  30.5526755  79.7111932  68.1145382  28.8776126
  78.5221358  68.2222721  28.3048527  77.8204414  68.3371263  28.7882309
  78.4513327  68.1762378  27.4487985  80.7910030  67.9304908  28.1270451
  81.5642582  67.8561833  28.4974163  80.7180678  67.8847661  27.2721564
  76.2792463  65.0937409  32.5693808  76.8100724  65.0230208  33.6802257
  76.3184623  64.1142234  31.6759920  75.9425569  64.1565183  30.9032959
  77.0109051  62.8564123  31.9167995  76.9476720  62.6321990  32.8593959
  76.3841571  61.7161173  31.0996507  76.4064438  61.9303660  30.1534352
  77.1974596  60.4165966  31.2920616  76.8119969  59.7176749  30.7407604
  78.1173990  60.5770650  31.0275706  77.1624402  60.1572281  32.2261079
  74.9274158  61.5424481  31.4941895  74.8212364  60.6884140  31.9420229
  74.6739013  62.2631006  32.0908864  74.3784067  61.5663176  30.6945751
  78.4704066  63.0343687  31.5433321  78.7672334  63.4727012  30.4315140
  79.3712585  62.6825387  32.4593537  79.1673013  62.3529341  33.2274125
  80.8054154  62.8216847  32.2454557  80.9579034  63.1580912  31.3488292
  81.4024662  63.8425329  33.2279028  82.3550597  63.9171805  33.0656737
  80.7160480  65.1651557  33.0126520  81.1658271  65.8435029  33.5394972
  80.7600529  65.3933669  32.0715711  79.7903919  65.0889914  33.2923463
  81.2059805  63.3953332  34.6715011  80.2594925  63.4286961  34.8822838
  81.5351376  62.4883448  34.7646064  81.9409969  64.2664676  35.6878345
  82.4079562  63.6932015  36.3150737  82.5767146  64.8301932  35.2193076
  81.2955951  64.8164107  36.1586520  81.5410256  61.4937154  32.3256009
  82.7423257  61.4615737  32.0941469  80.8440805  60.3999434  32.5920710
  80.0111823  60.3983391  32.8054344  81.4314180  59.0758171  32.5492429
  82.0260974  58.9958767  31.7878902  81.9330393  58.9037535  33.3615822
  80.3161021  58.0643672  32.4240373  79.1413548  58.3706726  32.6518526
  80.6836560  56.8645906  32.0267725  81.4785749  56.6505698  31.7763089
  79.7149681  55.7837297  31.9866042  79.1240468  55.8474396  32.7539940
  78.8448079  55.8429225  30.7222358  78.2068253  55.1133256  30.7510361
  78.3771119  56.6923730  30.7084359  79.6106284  55.7256499  29.4395905
  80.0849646  56.8209622  28.7491723  79.9919923  57.6409839  28.9919696
  80.7063321  56.4131488  27.6552341  81.1247532  56.9600063  27.0304808
  80.6300431  55.0949249  27.6006102  79.9506151  54.6400371  28.7041724
  79.7593898  53.7522814  28.9075655  80.4606845  54.4669447  32.0625330
  81.5426087  54.3217306  31.4831307  79.8731632  53.5235906  32.7886844
  79.1418833  53.6397932  33.2270195  80.4190719  52.1833790  32.9145837
  80.8363642  51.9300801  32.0755350  81.4768072  52.1164178  34.0230796
  81.8313906  51.2142536  34.0644623  82.1881091  52.7429539  33.8160022
  80.9217264  52.4515211  35.2867627  81.2660831  51.9762707  35.8867706
  79.2832280  51.2073407  33.1877317  78.1499004  51.5914338  33.4903967
  79.6156320  49.9297561  33.0934660  80.4140470  49.6618635  32.9186172
  78.6766340  48.8385486  33.2725246  77.7889692  49.1721225  33.4785894
  78.5866176  48.0165494  31.9867737  78.2185161  48.5823253  31.2901153
  79.4806794  47.7311705  31.7452923  77.7218686  46.7739356  32.0595819
  78.2508593  46.0199292  32.3643756  76.9782220  46.9233520  32.6638172
  77.0741679  46.4095290  30.4025949  78.5373494  45.7174144  29.6036667
  78.2573048  45.1572141  28.8625962  79.0923313  46.4423468  29.2784021
  79.0291871  45.1879528  30.2501991  79.1592217  47.9894332  34.4271848
  80.3246679  47.5864348  34.4525670  78.2721034  47.7276834  35.3792264
  77.4975617  48.0984591  35.4245642  78.5328378  46.7741974  36.4543385
  79.3790491  46.3289871  36.2913191  78.6154838  47.4786293  37.8075921
  79.3251394  48.1393565  37.7797610  77.7670870  47.9107468  37.9932567
  78.9118811  46.5157596  38.9349929  78.2822081  45.7785629  38.8926370
  79.8179460  46.1842872  38.8341042  78.7971979  47.1467312  40.3036990
  78.3848585  48.2997542  40.4461180  79.1535436  46.3829072  41.3274609
  79.4296325  45.5806832  41.1901271  79.1083084  46.6909197  42.1290406
  77.4264669  45.7211834  36.4440520  76.2859402  46.0096607  36.7941175
  77.7553518  44.4999770  36.0495212  78.5597267  44.2524369  35.8741644
  76.7493920  43.4427822  35.8765383  77.1165901  42.6962307  35.3771414
  76.3606487  42.9611684  37.2547022  76.0506612  43.7147198  37.7805368
  75.6558428  42.3000665  37.1748145  77.5445491  42.3157591  37.9874106
  78.2199098  41.4726601  37.4321710  77.8226082  42.7702547  39.2025208
  78.4782073  42.4347839  39.6466606  77.3472723  43.3991347  39.5456372
  75.6359023  44.0084417  35.0149606  75.9453649  44.5363940  33.9273416
  74.3711267  43.9936227  35.4293424  74.1243594  43.7430034  36.2139422
  73.2740297  44.4106713  34.5660026  73.5647546  44.3454373  33.6428154
  72.0860927  43.4667755  34.7559090  71.8141519  43.4864852  35.6877962
  71.3548479  43.7624180  34.1908253  72.4742202  41.7417590  34.3186846
  72.1513440  41.0265563  35.2272830  72.8508164  45.8603191  34.7856515
  71.7836917  46.2812833  34.3107294  73.6552012  46.6342428  35.4948041
  74.4041383  46.3689568  35.8242133  73.3432321  48.0201854  35.7881577
  72.4728926  48.2470271  35.4253340  73.3048700  48.2568645  37.3085261
  73.9339558  47.6582040  37.7397344  73.7161494  49.6644787  37.6639437
  73.4863528  49.8361943  38.5896614  74.6736051  49.7543114  37.5391815
  73.2470971  50.2863434  37.0851792  71.8749292  47.9794539  37.8139634
  71.7679047  48.3779793  38.6921167  71.2395700  48.3696443  37.1932588
  71.7392250  47.0200912  37.8668080  74.3551597  48.9205075  35.0887740
  75.5285107  48.5563527  34.9166677  73.8638815  50.0629903  34.6150992
  73.0228124  50.2346964  34.5658569  74.6996276  51.1529388  34.1230750
  75.5471624  50.7971838  33.8134507  74.0174721  51.8771591  32.9736966
  73.0665878  51.7270975  33.0912960  74.2223161  52.8172259  33.0927861
  74.2713296  51.6088158  31.5101795  74.0026331  50.7127690  31.2540092
  73.4489765  52.6528256  30.7169714  73.7952498  52.7066607  29.8123027
  72.5198988  52.3754145  30.6989259  73.5284226  53.5148449  31.1533510
  75.7483139  51.7042749  31.2000408  75.8621117  51.8673883  30.2511978
  76.1316637  52.4353046  31.7097775  76.1770939  50.8693121  31.4459715
  74.9269466  52.1537060  35.2487322  74.0034526  52.4471061  36.0194086
  76.1483443  52.6756432  35.3256166  76.7981468  52.4156796  34.8253120
  76.5450645  53.7357096  36.2494922  75.7873837  53.9664675  36.8081688
  77.7031186  53.2909377  37.1424742  78.3734696  52.8458752  36.5993545
  78.0893039  54.0675775  37.5757865  77.2380397  52.3179956  38.2240315
  76.9472550  52.8187626  39.0031353  76.5056128  51.7825949  37.8817656
  78.3210355  51.4095667  38.6369275  77.9722676  50.5063683  38.7020787
  79.0334604  51.4438013  37.9808606  78.8905453  51.7828998  39.9605970
  79.4513669  52.5702712  39.8825494  78.1835805  51.9430889  40.6059103
  79.7104113  50.6204145  40.3894614  80.0886188  50.7885137  41.1774225
  79.1977529  49.8969260  40.4640058  80.3497930  50.4610902  39.7910286
  76.9587758  54.9454652  35.4289306  77.9535867  54.8979258  34.6994052
  76.2114848  56.0178954  35.5368501  75.5215705  56.0751078  36.0459316
  76.5016748  57.2294487  34.7781373  77.1891208  57.0831937  34.1097187
  75.2660832  57.7037446  34.0323432  74.6028468  57.9803582  34.6838341
  75.5162799  58.4559154  33.4726131  74.6143385  56.6623438  33.1320494
  74.4229720  55.8626281  33.6464311  73.3064853  57.2340829  32.5782555
  72.9430082  56.6161352  31.9246907  72.6780349  57.3505031  33.3084674
  73.4882117  58.0893179  32.1593394  75.5383273  56.2446746  32.0065970
  75.1685312  55.4623636  31.5678781  75.6138684  56.9743543  31.3727145
  76.4111570  56.0357932  32.3760709  77.0059964  58.2420922  35.7947601
  76.2748056  58.6073180  36.7188332  78.2767545  58.6361972  35.6698439
  78.8360160  58.3153670  35.0998645  78.8187027  59.6775604  36.5245889
  78.4943066  59.5796479  37.4337937  80.3451631  59.6002600  36.6116761
  80.5986756  58.7343944  36.9707585  80.7200918  59.7136567  35.7247354
  80.9401778  60.6912284  37.5271604  80.8271416  61.5553858  37.1020442
  80.4742863  60.6764252  38.3776720  82.4306068  60.4942455  37.8040575
  82.7906576  59.8446009  37.1800493  82.8911999  61.3413608  37.7035396
  82.6717291  59.9758302  39.2391333  81.9561698  59.3635972  39.4732348
  83.5243830  59.5146688  39.2645975  82.7062578  61.0570878  40.2824544
  82.9313549  60.7106477  41.0711049  83.3034108  61.6770129  40.0579323
  81.9057035  61.4381030  40.3521334  78.3708128  61.0149949  35.9472402
  78.4715994  61.2378460  34.7390786  77.8256016  61.8743565  36.7911676
  77.7403956  61.7381536  37.6358744  77.3143963  63.1557247  36.3291000
  77.4517851  63.2290952  35.3725985  75.7910956  63.3347537  36.5614111
  75.5712520  64.2535218  36.3408232  74.9673985  62.3923109  35.6162875
  74.0590162  62.7270183  35.5499124  75.3813298  62.3852357  34.7383081
  74.9637149  61.4973204  35.9879358  75.3907204  63.1306907  38.0350699
  74.4546853  63.3630110  38.1426407  75.5294887  62.2014059  38.2748721
  75.9397874  63.7019622  38.5943759  78.1132766  64.2441274  37.0296140
  78.8143838  64.0032684  38.0166604  78.0177214  65.4549696  36.4963632
  77.4862423  65.6679398  35.8544943  78.8505233  66.5400370  36.9946912
  79.6970305  66.1710284  37.2916089  79.1551389  67.5272945  35.8757627
  79.8209937  68.1597816  36.1888671  79.4973826  67.0376030  35.1106343
  77.9492527  68.3144863  35.4178275  76.8331714  68.1489287  35.9666484
  78.1368745  69.1134085  34.4832418  78.2343108  67.2613490  38.1795469
  78.8592378  68.1881170  38.6922751  77.0528657  66.8318483  38.6428479
  76.6043534  66.1941295  38.2782763  76.3961354  67.3974197  39.8155317
  77.0212544  67.9762500  40.2785778  75.1581728  68.2302544  39.4240783
  74.4662713  67.6385893  39.0885208  74.6000535  68.9751228  40.6240095
  74.0749688  69.7349911  40.3282369  74.0337656  68.3850979  41.1467384
  75.3251169  69.2927075  41.1848250  75.5251327  69.1732115  38.4172375
  76.0696653  68.8237353  37.8811176  75.9875424  66.2733752  40.7599780
  75.3329677  65.2970638  40.3554647  76.3878810  66.4046260  42.0143492
  76.9117220  67.0246195  42.2966321  75.9531837  65.4760696  43.0436010
  75.9272884  64.5770944  42.6781056  76.9298508  65.4863388  44.2183797
  76.4343217  65.6319805  45.0389907  77.3882211  64.6326400  44.2557165
  77.5718144  66.2014328  44.0883134  74.5572345  65.8407853  43.5282177
  74.2329989  67.0131798  43.7185580  73.7450789  64.8272717  43.7470841
  73.9531389  64.0002613  43.6394607  72.3916276  65.0577024  44.2026754
  71.9383203  65.6581843  43.5897514  71.6423509  63.7231590  44.2503019
  71.6816587  63.3056454  43.3760077  72.0590912  63.1492713  44.9111070
  70.1957046  63.8908679  44.6232756  69.7595446  64.9795387  44.9631493
  69.4295889  62.7934059  44.5642679  69.7725597  62.0422661  44.3212164
  68.5954299  62.8394875  44.7678096  72.3840207  65.7323355  45.5729127
  72.7363969  65.1030645  46.5648355  71.9316577  66.9891739  45.6806116
  71.2922501  67.8088281  44.6278510  70.5981099  67.3044116  44.1749366
  71.9512312  68.1170153  43.9857385  70.6978839  68.9779413  45.3836837
  69.7520072  68.8319092  45.5462686  70.8254468  69.8027764  44.8909152
  71.4180612  69.0602604  46.6878835  70.8314808  69.3866744  47.3874449
  72.1983090  69.6329365  46.6160893  71.8551494  67.6195168  47.0034889
  72.7325911  67.6441693  47.4171970  70.8724442  66.9298996  47.9440539
  70.8663400  67.2291221  49.1438842  70.0451874  66.0133891  47.4488612
  70.0384354  65.7648909  46.6264641  69.0595012  65.3413737  48.2840588
  69.0061656  65.8046004  49.1342795  67.6749131  65.4058614  47.6276360
  67.7434546  65.0841601  46.7144524  67.0610335  64.8487723  48.1300607
  67.1109470  66.8100707  47.5881324  67.1051884  67.1764345  48.4859032
  67.6617446  67.3591862  47.0084608  65.6760902  66.8411595  47.0511106
  65.6410564  66.4143581  46.1805664  65.0844828  66.3844930  47.6688576
  65.2223707  68.2787989  46.9101126  65.0397570  68.6442766  47.7900372
  65.9199669  68.7932084  46.4752155  63.9909766  68.3873915  46.0975093
  63.7162549  69.2333547  46.0721439  64.1486613  68.1091443  45.2663637
  63.3473559  67.8854346  46.4519478  69.4470988  63.8929750  48.5686469
  68.5928763  63.0992242  48.9567933  70.7109750  63.5412568  48.3958199
  71.3354730  64.0747724  48.1404489  71.1521417  62.1772608  48.6332962
  70.6412071  61.5613275  48.0843938  72.6300973  62.0338427  48.2622417
  73.1320811  62.6623480  48.8043011  73.1292481  60.6207860  48.5175756
  74.0208964  60.6473582  48.8992760  72.5366775  60.1660519  49.1364794
  73.1578921  60.1224485  47.6855634  72.8215846  62.2988231  46.8690436
  72.7388265  63.1216951  46.7179215  70.9375580  61.8233327  50.1013867
  71.5517307  62.4504721  50.9777480  70.1332346  60.8256580  50.4187507
  69.3445198  59.9666436  49.5060299  69.9166712  59.5497657  48.8435643
  68.6467744  60.4779222  49.0676619  68.7420938  58.9156384  50.4471490
  69.3094485  58.1314365  50.5040971  67.8509556  58.6599916  50.1615349
  68.6782328  59.6171567  51.8034342  68.6626048  58.9791779  52.5345812
  67.9121286  60.2086911  51.8630703  69.9769222  60.4195436  51.8202526
  69.8855003  61.1799559  52.4154847  71.1485445  59.5446482  52.2345064
  71.9040204  59.0613615  51.4007983  71.2779492  59.3216782  53.5420510
  70.8832682  59.7657941  54.1632933  72.1481033  58.2463974  54.0054330
  73.0573708  58.3649809  53.6896412  72.2418690  58.2277433  55.5332975
  72.6608368  59.0502832  55.8299187  71.3460383  58.1601402  55.8996010
  73.0580631  57.0648753  56.0868229  72.6429664  56.2298455  55.8194766
  73.9603382  57.1155819  55.7333638  73.1445712  57.0834535  57.6078255
  73.4767749  57.9475114  57.9002938  72.2635513  56.9238829  57.9810293
  74.0966913  55.9963069  58.1342139  73.7451364  55.1230782  57.8988720
  74.9721234  56.1190971  57.7356727  74.2465555  56.0540528  59.6114228
  74.2102400  55.2329340  59.9535224  75.0286675  56.4211025  59.8233032
  73.5929333  56.5439687  59.9647363  71.5569614  56.9488888  53.4727804
  70.3488814  56.7447625  53.5486502  72.3845488  56.0945845  52.8883951
  73.2415061  56.1686521  52.8722631  71.8510038  54.9285707  52.2091112
  71.0674319  54.6242363  52.6934920  71.4628511  55.2570336  50.7597122
  70.9295717  54.5300482  50.4010574  70.9507090  56.0805841  50.7478446
  72.6681561  55.4402901  49.8683335  73.2973313  56.6871129  49.7358324
  72.9691625  57.4201739  50.2038174  74.4271921  56.8387305  48.8984552
  74.8341892  57.6702712  48.8069879  74.9272030  55.7268350  48.2079311
  76.0367426  55.8080286  47.3658086  76.4716172  55.0895110  47.3937635
  74.3035072  54.4932987  48.3366315  74.6282225  53.7565851  47.8727371
  73.1841085  54.3624487  49.1661824  72.7766425  53.5299593  49.2476059
  72.8747564  53.8067482  52.2142200  74.0577373  54.0209757  52.4887301
  72.3925503  52.5923389  51.9325744  71.5603153  52.3785512  51.9658275
  73.2744689  51.5076432  51.5327885  74.0437539  51.8902346  51.0830015
  73.7861021  50.7092765  52.7228171  74.2194760  49.9073361  52.3909369
  74.4256717  51.2556214  53.2054816  72.7539123  50.2883145  53.6808382
  72.0298134  50.9331301  53.6907685  72.4159585  49.4126461  53.4384212
  73.3685062  50.2142021  55.0676658  74.2936745  49.9307507  54.9966944
  73.3204010  51.0866720  55.4892985  72.6247949  49.2177329  55.9357554
  72.8093684  49.3966865  56.8711175  71.6721782  49.2842753  55.7661482
  73.0723059  47.8313838  55.6159023  72.3665126  47.2990415  55.5137433
  73.5459023  47.8312952  54.8615201  73.5800122  47.5160865  56.2749182
  72.5466498  50.6093162  50.5488551  71.3473909  50.7692514  50.2962154
  73.3184907  49.7075703  49.9471601  74.1649789  49.6458179  50.0852269
  72.8288393  48.7303017  48.9943135  71.9266746  48.9695009  48.7295787
  73.6948661  48.6642373  47.7380961  74.6134275  48.5069249  48.0093648
  73.3809102  47.9286152  47.1892136  73.6872803  49.9048359  46.8739511
  72.6860083  50.8519457  46.9537903  71.9902890  50.7363972  47.5599076
  72.7073582  51.9844265  46.1309644  72.0286217  52.6165544  46.1903544
  73.7516659  52.1615303  45.2204016  73.7662719  52.9071732  44.6647180
  74.7643930  51.2222371  45.1491461  75.4690078  51.3400619  44.5535496
  74.7269589  50.1001061  45.9715460  75.4085344  49.4696516  45.9160470
  72.8651852  47.3693771  49.6684597  73.9148996  46.9499921  50.1677413
  71.7545875  46.6681452  49.6531201  71.0157866  46.9334078  49.3019335
  71.7046689  45.3504770  50.2549246  72.6082410  45.0394936  50.4220323
  70.9591514  45.3425626  51.6028081  71.0841554  44.4783914  52.0240815
  71.5235612  46.4149120  52.5195880  71.0480394  46.3909930  53.3643412
  72.4665932  46.2405363  52.6659767  71.4090304  47.2814063  52.0996972
  69.4875385  45.5411905  51.4019389  69.0387841  45.4684853  52.2597084
  69.3360642  46.4209587  51.0233395  69.1556329  44.8588667  50.7974856
  71.0312585  44.4228269  49.2719182  70.2174640  44.8430784  48.4472230
  71.3900612  43.1555747  49.3639167  72.0388505  42.8794876  49.8553344
  70.7234821  42.0925386  48.6412906  70.1819704  42.4503365  47.9202998
  71.7393033  41.1468591  48.0256863  72.3277622  41.6540529  47.4445327
  72.2524205  40.7305820  48.7360032  71.1082545  40.0540190  47.2069441
  70.6451447  39.4381038  47.7965981  70.4823154  40.4447724  46.5775825
  72.1469959  39.2720846  46.4224723  72.6725595  39.8790013  45.8782445
  72.7264742  38.7902269  47.0339337  71.4855334  38.3130003  45.5486086
  71.3013947  37.5391268  45.8780122  71.1429466  38.5344621  44.2839134
  71.4152322  39.6858552  43.6903223  71.8210464  40.3078643  44.1233852
  71.1858003  39.8109586  42.8710078  70.5480852  37.5666538  43.6037046
  70.3891408  36.8106326  43.9813216  70.3195981  37.6947743  42.7844593
  69.8203865  41.3680086  49.6269376  70.2981088  40.7975174  50.6077562
  68.5132930  41.4035205  49.3782401  68.1467352  41.7500532  48.6817083
  67.6043983  40.8100342  50.3510831  67.9969839  40.9128225  51.2324559
  66.2428592  41.5182769  50.3449512  65.6013526  41.0800930  50.9248504
  66.4409410  42.9103353  50.8790550  65.5747790  43.3338814  50.9873056
  66.8926306  42.8582782  51.7363528  66.9801751  43.4157649  50.2520777
  65.6296941  41.4471573  48.9555461  66.1954926  41.9334936  48.3359026
  65.5659350  40.5180501  48.6866602  64.2906375  42.0292436  48.8970585
  64.2985752  42.7806128  48.2838967  63.6663154  41.3545313  48.5862030
  64.0372645  42.3298786  49.7840212  67.4542792  39.3294985  50.1006787
  67.8801645  38.7978507  49.0689800  66.8930840  38.6630257  51.0691640
  66.6255164  39.0444759  51.7911497  66.6238536  37.2563969  51.1303640
  67.2094269  36.7648848  50.5328644  66.8531375  36.7402864  52.5543249
  66.3102454  37.2615222  53.1662403  66.5946060  35.8064595  52.5927686
  68.3021816  36.8427529  53.0140507  68.6580937  37.7077220  52.7550427
  68.3372843  36.7450136  53.9785422  69.1703537  35.7742073  52.4012127
  69.0532052  34.5873527  52.7406111  70.0395681  36.1759792  51.4847703
  70.0841960  37.0078164  51.2700049  70.5582374  35.6056513  51.1041322
  65.1907511  37.0121748  50.7374457  64.3112423  37.8090060  51.0971045
  64.9738891  35.9234437  50.0094970  65.9746282  34.9207269  49.6011010
  66.3087869  34.4315451  50.3697680  66.7115049  35.3388589  49.1280637
  65.2038338  34.0316192  48.7008403  65.5447976  33.1244689  48.7409402
  65.2341088  34.3586038  47.7882075  63.7926754  34.0610597  49.1986197
  63.6595606  33.4126800  49.9063641  63.1656081  33.8987858  48.4763844
  63.6062757  35.4774608  49.7444878  63.1696419  36.0237115  49.0717895
  62.8172529  35.4784140  51.0396014  63.3128178  35.0655065  52.0884349
  61.5933819  35.9713182  50.9701226  61.2329177  36.2714288  50.2490171
  60.7531193  36.0441754  52.1275216  59.8459545  35.8174673  51.8683972
  61.0663336  35.3981539  52.7802590  60.7200877  37.3938922  52.7931997
  59.7811030  37.6713226  53.5612291  61.6964418  38.2406827  52.5002775
  62.3619296  38.0556256  51.9881830  61.7226136  39.5877363  53.0372977
  61.3738549  39.5578755  53.9422075  63.1466926  40.1409389  53.0733929
  63.5306333  40.0679116  52.1855199  63.1104281  41.0718464  53.3432929
  64.0664689  39.4158707  54.0356334  64.2298192  38.5188092  53.7052300
  64.9033456  39.9016752  54.1025168  63.4746874  39.3072822  55.4195023
  62.8733398  38.2868109  55.7658856  63.6225106  40.3610657  56.2149070
  64.0390281  41.0577858  55.9321238  63.3014358  40.3451995  57.0131596
  60.8712147  40.5193096  52.1959297  60.5624131  40.2437227  51.0280802
  60.5231450  41.6593061  52.7948667  60.8020733  41.8951638  53.5736941
  59.6242373  42.6238335  52.1770181  59.3406660  42.2799604  51.3154192
  58.3911099  42.8647291  53.0481508  57.8680583  43.6106002  52.7134817
  57.5084135  41.6222231  53.0288944  57.1824277  41.4317081  53.9220295
  56.7495268  41.7626517  52.4407331  58.0158335  40.8594488  52.7096715
  58.8115803  43.1729663  54.3893065  58.8655255  44.0059447  54.4890151
  60.3387971  43.9454599  51.9526209  61.3313067  44.2558281  52.6159325
  59.7992960  44.7270810  51.0206542  59.1417275  44.5004420  50.5154024
  60.3063431  46.0772987  50.7788497  60.5247303  46.5013030  51.6234771
  61.5738095  46.0396818  49.9114059  61.8294784  46.9499691  49.6955089
  62.2814114  45.6066881  50.4147994  61.4105450  45.2826276  48.6005380
  61.6271151  43.9222681  48.5377176  61.8741561  43.4613319  49.3076835
  61.4787214  43.2240862  47.3328020  61.5996850  42.3025614  47.3183195
  61.1628304  43.8731244  46.1947352  61.0931554  43.4075539  45.3920948
  60.9404812  45.2448891  46.2293683  60.7003886  45.6958540  45.4524531
  61.0776231  45.9424984  47.4250064  60.9430378  46.8627259  47.4363644
  59.2119081  46.9051418  50.1193182  58.2377550  46.3677788  49.5790407
  59.3860863  48.2255637  50.1722517  60.0194669  48.6122019  50.6070678
  58.4947280  49.1423555  49.4805024  57.6299106  48.7110921  49.3969279
  58.3296852  50.4447725  50.2535852  59.1926966  50.8845719  50.3075646
  57.6985968  51.0089075  49.7798330  57.8462408  50.2331567  51.5721360
  57.0818559  49.8851444  51.5455049  59.0230128  49.4778023  48.0901170
  60.2275110  49.6135410  47.8799926  58.0969814  49.6751468  47.1579030
  57.2522610  49.6127100  47.3091645  58.4130638  50.0180788  45.7805986
  59.3758965  50.0498897  45.6699269  57.8385281  48.9797424  44.7907873
  56.8858514  48.8903357  44.9473455  58.0893602  49.4606600  43.3750202
  58.3006017  48.6967105  42.8154497  57.2908964  49.9008776  43.0458362
  58.8325650  50.0826128  43.3802496  58.4582411  47.5831050  44.9963299
  58.2646127  47.0344216  44.2206672  59.4181637  47.6761090  45.1043290
  58.0733322  47.1806270  45.7907697  57.8446904  51.3958025  45.4963889
  56.6555121  51.6398947  45.7434982  58.6976445  52.3007400  44.9888779
  59.5484191  52.1794727  44.9463828  58.2643596  53.5921532  44.4556168
  57.3859415  53.8064700  44.8072229  59.2146106  54.7252037  44.8566138
  59.2080313  54.7992233  45.8236535  60.1056429  54.4983341  44.5477197
  58.8728936  56.0983814  44.2915426  58.8086149  56.0322698  43.3257691
  57.5564412  56.5358218  44.8842582  57.4098419  57.4708967  44.6723513
  56.8449290  55.9950241  44.5061811  57.5872172  56.4153041  45.8460255
  59.9768388  57.1631535  44.5593963  59.7765050  57.9615441  44.0460992
  59.9905099  57.3728291  45.5060066  60.8361054  56.8028508  44.2878860
  58.2014305  53.4407777  42.9400831  59.2231554  53.5552967  42.2630908
  57.0092769  53.1775053  42.4001217  56.2716848  53.1084571  42.8366354
  56.8873963  52.9827541  40.9650136  57.5687853  52.3707222  40.6434440
  55.5306510  52.3620241  40.5981205  55.6399950  51.8082597  39.8091941
  55.2204597  51.8216528  41.3410655  54.8972068  53.0736235  40.4180991
  57.0332162  54.3443973  40.3013130  56.4667121  55.3280089  40.7729857
  57.8004705  54.4082715  39.2082824  58.1916681  53.7314696  38.8518156
  58.0379585  55.6766148  38.5139699  57.3625690  56.3075977  38.8088775
  59.4181110  56.2567179  38.8152082  60.0879583  55.6016154  38.5637578
  59.5314079  57.0645442  38.2905621  59.7009254  56.6821096  40.5263782
  60.2216564  55.7529900  41.0787848  57.9056445  55.4779500  37.0161974
  58.0118833  54.3648199  36.5245780  57.6481737  56.5887869  36.3051060
  57.5012297  57.3522304  36.6735494  57.5803532  56.6679984  34.8463764
  58.0755084  55.9382379  34.4401784  56.1206862  56.5444271  34.3101866
  55.5716236  57.2524369  34.6810307  56.1195997  56.5954652  33.3422461
  55.5516240  55.2004341  34.7371948  54.8067172  55.0777450  35.9073188
  54.6101861  55.8381639  36.4055042  54.3500261  53.8401942  36.3443168
  53.8344662  53.7695360  37.1145086  54.6790378  52.7168935  35.6099839
  54.2713436  51.4895008  36.0189441  54.5126328  51.3569541  36.8130196
  55.4216182  52.8178924  34.4490861  55.6233443  52.0574432  33.9535484
  55.8617906  54.0588234  34.0324525  56.3773689  54.1245322  33.2610347
  58.2113820  57.9946184  34.4463927  57.9102455  59.0342268  35.0385828
  59.1105076  57.9432036  33.4724940  59.3363098  57.2164532  33.0721127
  59.8225792  59.1221708  32.9699688  60.5378139  58.7925382  32.4027998
  58.9085385  60.0298652  32.1318886  58.2097879  60.3870783  32.7021547
  59.4363604  60.7543978  31.7613341  58.2485452  59.2999503  30.9862084
  58.9137117  58.8172102  30.0755204  56.9357974  59.2031119  31.0360212
  56.5104100  58.7975029  30.4092965  56.5041974  59.5458607  31.6964391
  60.4360645  59.9372618  34.1006148  60.4008586  61.1641024  34.0836498
  61.0085104  59.2480686  35.0906135  61.0470290  58.3899096  35.1298488
  61.6274417  59.9310301  36.2139713  62.2153751  59.3066635  36.6659564
  62.1546697  60.6696959  35.8711819  60.6758901  60.4900568  37.2463142
  61.1453053  61.0716605  38.2260281  59.3539782  60.3296069  37.0731705
  58.9942353  59.8963189  36.4245901  58.4159987  60.9092095  38.0201997
  58.9060457  61.4862732  38.6270146  57.3548210  61.7484622  37.2906341
  56.9236373  61.1952064  36.6195830  56.6995150  62.0575350  37.9360007
  57.9318832  62.8649873  36.6572371  58.2216935  63.4037100  37.2331128
  57.7346585  59.8269169  38.8449974  57.2136751  58.8447619  38.2874475
  57.6954341  59.9916433  40.1615276  58.6186526  60.8503524  40.9274163
  58.2843521  61.7593433  40.9762389  59.5049705  60.8433256  40.5343564
  58.6313702  60.2052829  42.3034750  58.7401809  60.8725414  42.9980212
  59.3353391  59.5408608  42.3683202  57.2663033  59.5316138  42.4364991
  56.5857789  60.1649627  42.7128047  57.2992288  58.7878254  43.0571929
  56.9786874  59.0261975  41.0140782  57.3510480  58.1410876  40.8783871
  55.4832160  58.9631128  40.7429646  54.8200964  59.9717422  40.4889800
  54.9463875  57.7466135  40.7780871  55.3865829  57.0224264  40.9228177
  53.5210888  57.5630641  40.5669487  53.1135990  58.4312682  40.4163478
  53.2744566  56.7184697  39.3121480  52.8421378  57.2690063  38.6393413
  54.1242902  56.3917345  38.9775724  52.4431592  55.6180887  39.6057249
  51.9338969  55.4613253  38.9568218  52.8100838  56.9304356  41.7440307
  51.6570732  57.2705048  41.9949224  53.4528900  56.0326450  42.4719711
  54.2739146  55.8054558  42.3525574  52.7978303  55.3383264  43.5661469
  52.3813081  55.9804331  44.1626385  52.1152289  54.7423641  43.2187132
  53.7985306  54.5342411  44.3396187  54.9097222  54.2662609  43.8720997
  53.4256131  54.1636254  45.5610983  52.6616651  54.3632205  45.9020810
  54.2597457  53.3864768  46.4517093  55.0048607  53.0012449  45.9642640
  54.8361914  54.2713392  47.5750049  55.3739485  54.9725401  47.1756246
  53.7214836  54.9082808  48.3482429  54.0564133  55.7058400  48.7860538
  53.0058542  55.1431234  47.7352057  53.3957395  54.2788518  49.0100222
  55.7525233  53.4659861  48.5007835  56.3854552  54.0685373  48.9212002
  55.2125315  53.0279209  49.1779849  56.2273896  52.8019641  47.9765185
  53.4411822  52.2265364  47.0006183  52.2629767  52.3856971  47.3615706
  54.0458332  51.0443340  47.0221317  54.8356112  50.8928692  46.7156205
  53.3800689  49.8804468  47.5933535  52.8227245  50.1355501  48.3438857
  52.4841703  49.2161471  46.5332325  52.0867775  48.4199371  46.9186072
  51.7895307  49.8432464  46.2774293  53.2164893  48.7977452  45.2675514
  53.2829626  49.6226172  44.1619346  52.8606268  50.4506933  44.1861688
  53.9646601  49.2437935  43.0179375  54.0066419  49.8171892  42.2860852
  54.5757933  48.0220425  42.9700040  55.2465968  47.6239790  41.8309214
  55.9307395  47.1828823  42.0395777  54.5338218  47.1905285  44.0595727
  54.9552961  46.3618191  44.0313564  53.8585994  47.5905606  45.2020607
  53.8408328  47.0256457  45.9416393  54.4296699  48.9204497  48.1527641
  55.6200062  49.0203606  47.8627534  53.9618270  47.9899008  48.9554538
  53.1231628  47.8911299  49.1197213  54.7851587  47.0198829  49.6595875
  55.7232360  47.2685651  49.6656891  54.2818090  46.9477680  51.1071705
  54.2511335  47.8504573  51.4617138  53.3905930  46.5654942  51.0978598
  55.0999580  46.1294693  52.0592647  54.5375948  45.8619270  52.8038416
  55.4281818  45.3446230  51.5939782  56.2821289  46.8547909  52.6195704
  56.6067073  47.9857306  52.2471966  56.9434356  46.2071650  53.5320002
  56.6888831  45.4206601  53.7694072  57.6348198  46.5639766  53.8972321
  54.7358983  45.6614300  48.9520799  53.7026619  45.2578987  48.4269094
  55.8957648  44.9970817  48.9019494  56.5852599  45.2337374  49.3582691
  56.1626458  43.8084454  48.0927565  55.2919110  43.4900447  47.8079358
  57.0912723  44.0709133  46.8749677  57.7807607  44.6948165  47.1529328
  57.4939481  43.2261667  46.6175606  56.3642940  44.7213419  45.4795716
  55.3493317  44.1226253  45.2524528  56.9408807  42.7927639  48.9324413
  57.5235970  43.1205257  49.9671837  57.0541297  41.5820598  48.4229285
  56.6041357  41.2912829  47.7498668  57.9849478  40.6288096  48.9949126
  58.6245364  41.0684586  49.5771610  57.2262888  39.5973327  49.8303675
  57.8656492  39.0606256  50.3248388  56.6385853  40.0609038  50.4468344
  56.7065264  39.0318907  49.2381789  58.8086477  39.9815498  47.8902519
  58.3498863  39.8227722  46.7551076  60.0498925  39.6427260  48.2303104
  60.4496259  39.9132210  48.9420826  60.8543250  38.7606246  47.3964433
  60.8137371  39.0412072  46.4686017  62.3184603  38.8285662  47.8114334
  62.6116944  39.7508746  47.7580213  62.3947762  38.5086178  48.7249973
  63.2714863  37.9859094  46.9429099  64.1791743  38.1250329  47.2562808
  63.0286482  37.0509238  47.0343949  63.2345717  38.3851605  45.1983246
  63.9186718  40.0358975  45.2606737  64.0831530  40.3438989  44.3549198
  63.2851068  40.6239727  45.6992601  64.7501324  40.0140159  45.7587815
  60.2902940  37.3486335  47.5401107  60.3660009  36.7539584  48.6190403
  59.6475107  36.8409602  46.4844444  59.5374475  37.2440051  45.7324697
  59.0679513  35.5124585  46.5526506  58.5087239  35.4758376  47.3454612
  58.2003911  35.2114177  45.3372207  58.7491594  35.2974562  44.5413257
  57.8698441  34.3025577  45.4148997  56.9930269  36.1206958  45.1547628
  57.3024969  37.0131758  44.9373396  56.4452776  35.7731328  44.4337818
  56.1299667  36.2189753  46.3821117  56.6389230  36.6338754  47.0957554
  55.3472978  36.7544713  46.1775011  55.6753098  34.9148042  46.8491028
  55.9032933  34.2207106  46.3968489  54.9287149  34.7349482  47.9335058
  54.5047681  35.7835239  48.6409965  54.7140824  36.5803882  48.3961602
  54.0212339  35.6623179  49.3424841  54.5969450  33.5093233  48.2981335
  54.8631980  32.8356663  47.8340984  54.1132053  33.3845620  48.9984731
  60.1526793  34.4445909  46.6532626  61.3011518  34.6628741  46.2681025
  59.8000241  33.2630349  47.1447317  58.6172478  32.9535294  47.9727098
  57.8380100  32.7846799  47.4182955  58.4304239  33.6718941  48.5967770
  59.0553516  31.6831479  48.7082613  58.2945314  31.1181631  48.9165157
  59.5416423  31.8967614  49.5188380  59.9641143  30.9937190  47.7172143
  59.4578116  30.5437370  47.0228896  60.5565846  30.3635575  48.1575875
  60.7669867  32.1635047  47.1266897  61.5119007  32.3658794  47.7140878
  61.3105698  31.8533583  45.7555498  62.4367033  31.3511527  45.6718658
  60.5721858  32.1378256  44.6767170  59.7759996  32.4624659  44.7024326
  61.0955941  31.9064121  43.3275571  61.7265911  31.1711949  43.3712327
  59.9865606  31.4627007  42.3663667  60.3886304  31.2080094  41.5212902
  59.5219620  30.7050486  42.7541237  58.9641735  32.5327592  42.0849182
  59.0866727  33.6828867  42.5081045  57.9652706  32.1697511  41.3183537
  57.3476256  32.7343084  41.1196236  57.9266937  31.3665009  41.0132064
  61.8337991  33.1291235  42.7719897  62.1061337  33.1853380  41.5735516
  62.1717748  34.0869256  43.6241362  61.9351011  34.0794378  44.4510113
  62.9717201  35.2576663  43.2776864  63.1262956  35.7582935  44.0950559
  64.3241134  34.8474120  42.6997418  64.1758195  34.2440580  41.9546062
  64.7900973  35.6414882  42.3957963  65.2002407  34.1514317  43.6833751
  65.8443290  34.8648880  44.6799172  65.7242820  35.7847623  44.7394158
  66.6581048  34.2244639  45.5810653  67.1023603  34.7103078  46.2381603
  66.8138075  32.8585832  45.5061753  67.3537858  32.4175180  46.1212029
  66.1684855  32.1485462  44.5219126  66.2791978  31.2268038  44.4690000
  65.3670934  32.7886893  43.6229013  64.9297516  32.2990839  42.9631507
  62.2697286  36.1955951  42.3158399  62.9185452  37.0361984  41.6922126
  60.9637762  36.0644389  42.1649712  60.5090175  35.3890760  42.4433404
  60.1741838  37.0867475  41.4949451  60.7577734  37.5900118  40.9059271
  59.0606042  36.4755906  40.6419781  58.6180424  37.1724118  40.1329544
  59.6234869  35.4919786  39.6849067  58.9962625  35.3347432  38.9619042
  60.4540170  35.8284132  39.3130849  59.7990420  34.6507177  40.1368021
  58.0892768  35.8327738  41.4965474  58.4206919  35.1424041  41.8399970
  59.5503999  38.0062387  42.5386743  59.5435822  37.7279830  43.7378262
  58.9725162  39.0952627  42.0666242  59.0665748  39.3904582  41.2645316
  58.1037159  39.8944090  42.9163095  57.9338774  39.4136020  43.7414626
  58.7177972  41.2487776  43.3445509  58.2601733  41.5186529  44.1560389
  60.2411017  41.1071412  43.6497318  60.4633554  41.6647169  44.4127643
  60.4383240  40.1786787  43.8503875  60.7467235  41.3931940  42.8728011
  58.4965891  42.3181429  42.2989626  58.9398613  42.0573147  41.4768359
  57.5444646  42.4226192  42.1450645  59.0645496  43.6786898  42.7407207
  58.7787130  44.3593452  42.1117099  58.7309140  43.8867844  43.6281236
  60.0325131  43.6261413  42.7553614  56.7956680  40.0856412  42.1629000
  56.7680845  40.1494070  40.9294601  55.7085371  40.1727123  42.9206792
  55.7171598  40.1082582  43.7781244  54.3702707  40.3904591  42.3632105
  54.3493670  40.1650627  41.4204139  53.3488006  39.4884025  43.0661903
  53.2712381  39.7612216  43.9938706  52.4912003  39.5762313  42.6220147
  53.7520304  38.0048706  43.0360606  54.2780853  37.8435246  42.2377105
  54.2808562  37.8118632  43.8265075  52.5642870  37.0116550  43.0180499
  51.8909630  37.3367749  42.4000864  52.8839959  36.1414821  42.7331653
  51.9032663  36.8444324  44.3920707  52.4628320  37.2633275  45.0642449
  51.0302173  37.2673430  44.3763488  51.7142640  35.3953158  44.7769190
  51.3447096  35.3417079  45.5848823  51.1833502  34.9907370  44.1876792
  52.5006317  34.9793700  44.7909513  54.0655504  41.8800441  42.5041609
  53.3277196  42.3299159  43.3833123  54.6558211  42.6603104  41.6109862
  55.1455030  42.3719377  40.9660188  54.5178067  44.0983078  41.6527507
  54.3423252  44.3799474  42.5645546  55.3424255  44.5096112  41.3489047
  53.3864860  44.5867530  40.7739101  52.5944786  43.8208713  40.2388498
  53.3188918  45.9053052  40.6398769  53.7884139  46.4569460  41.1034947
  52.4322881  46.5535278  39.6849395  52.0294439  45.9099763  39.0811308
  51.2752286  47.2637191  40.3861303  50.7167510  46.6022902  40.8228448
  51.6350282  47.8794084  41.0438635  50.4924187  47.9864665  39.4614239
  49.7141786  48.0864441  39.7598144  53.3067191  47.5055096  38.8850425
  53.7517032  48.5335668  39.4037712  53.5888220  47.1354368  37.6417850
  53.2338700  46.4560758  37.2517894  54.5360592  47.8536938  36.8183514
  54.5962692  48.7586500  37.1626637  55.9412431  47.1978041  36.8217823
  55.8333466  46.2528512  36.6325193  56.4709487  47.6173000  36.1264046
  56.7356837  47.3042110  38.1138685  57.2369775  48.5156568  38.5676444
  57.0361072  49.2974571  38.1058205  58.0438146  48.5778313  39.7113971
  58.3415785  49.4014886  40.0245221  58.4006091  47.4026430  40.3836078
  58.9524605  47.4380676  41.1314909  57.9284787  46.2009937  39.9282421
  58.1439804  45.4184656  40.3809891  57.1231546  46.1439082  38.7876220
  56.8400081  45.3170947  38.4703294  54.0570163  47.8631427  35.3740559
  53.6917444  46.8096043  34.8345985  54.1284329  49.0282882  34.7268128
  54.3880928  49.7625916  35.0917736  53.7664433  49.1643549  33.3171652
  53.3592405  48.3467434  32.9918510  52.7502231  50.2921364  33.1372058
  53.1885470  51.1286556  33.3548401  52.4690691  50.2973927  32.2087653
  51.4743868  50.2112638  33.9959214  51.7402615  50.0222138  34.9091814
  50.7411580  51.5215133  33.9188323  49.8417583  51.4008934  34.2609390
  51.2127383  52.1792697  34.4532754  50.7071374  51.8109326  32.9929359
  50.5428100  49.0867580  33.5598921  49.9401756  48.8752538  34.2897055
  50.0361581  49.3784976  32.7863646  51.0737212  48.3075586  33.3326223
  55.0294209  49.4285034  32.5046622  56.1210279  49.5929758  33.0602420
  54.8976381  49.4521904  31.1753307  54.1732535  49.2802362  30.7443971
  56.0540348  49.7929828  30.3405510  56.7101919  49.0816388  30.4016059
  55.6467521  49.9293173  28.8728564  54.8848858  50.5269952  28.8090530
  56.3933699  50.2897426  28.3694703  55.2527015  48.5928566  28.2434838
  56.1035633  47.7344617  27.9533035  53.9600065  48.4184794  28.0185192
  53.6801274  47.6852496  27.6660497  53.3994090  49.0377805  28.2236476
  56.6754170  51.1017181  30.8234393  55.9669442  52.0634899  31.1364366
  58.0049239  51.1280903  30.9148059  58.5160553  50.4607454  30.7340476
  58.7103861  52.3180325  31.3393783  59.5768599  52.3410859  30.9028858
  58.2001659  53.0981492  31.0705695  58.9366224  52.3996977  32.8263944
  59.4936282  53.4023579  33.3131213  58.4823807  51.4048322  33.5740897
  58.0398478  50.7298933  33.2766739  58.7134954  51.3890438  35.0092502
  58.5446123  52.2717919  35.3745177  57.7468775  50.4127521  35.6709822
  57.9313661  50.3798860  36.6229705  56.8379854  50.7140968  35.5198681
  57.9024840  49.1084780  35.1222328  57.2335365  48.9124125  34.6532547
  60.1445032  50.9997994  35.3469061  60.5881609  51.2765451  36.4582714
  60.8457201  50.3418610  34.4148429  60.3890322  50.1250714  33.5408581
  62.2308628  49.9206862  34.5886976  62.2474233  49.0309912  35.2190583
  62.8186467  49.5602227  33.2182560  63.7807565  49.0764468  33.3856109
  62.9916503  50.4838781  32.6665409  61.8019867  48.4419431  32.1693164
  62.6482396  48.4057005  31.1439185  63.0625610  51.0210956  35.2714121
  62.9607666  52.2005225  34.9358660  63.8543423  50.6262026  36.2593169
  63.9653227  49.8031105  36.4827195  64.6160483  51.5521550  37.0645257
  65.4547757  51.1317755  37.3085141  64.8014944  52.3424922  36.5340817
  63.9432087  52.0054087  38.3396704  64.6160516  52.5569824  39.2095783
  62.6360122  51.8040014  38.4797470  62.0995888  51.5855285  37.8430183
  62.0012751  51.9489883  39.7846200  62.0548583  52.8671448  40.0918535
  60.5255035  51.5768587  39.6839534  60.4460156  50.7075544  39.2623023
  60.1438719  51.5496503  40.5752127  59.8268618  52.5343263  38.9083783
  59.3900401  52.1493883  38.3024373  62.7153129  51.0581225  40.7989066
  63.2079910  49.9890832  40.4499605  62.7851653  51.5050961  42.0632753
  62.3885240  52.2113358  42.3522012  63.5662189  50.7963567  43.0659925
  63.8916448  49.9927495  42.6331745  64.7742925  51.6150095  43.5965601
  65.2047887  51.0868338  44.2875510  65.7859193  51.8725102  42.4881709
  66.5425077  52.3536770  42.8564350  66.0796491  51.0218638  42.1256925
  65.3645359  52.4002593  41.7925137  64.3372301  52.9277721  44.2364989
  65.1073748  53.3537797  44.6424947  63.9638503  53.5035699  43.5506895
  63.6668521  52.7413572  44.9129424  62.6952437  50.3762900  44.2406193
  61.6491142  50.9637102  44.5312596  63.1644811  49.3407475  44.9192819
  63.8432002  48.8764362  44.6677159  62.5856111  48.8770332  46.1619563
  61.7513331  49.3408150  46.3350103  62.4118144  47.9236158  46.1143637
  63.5517564  49.1510088  47.2980802  64.7684309  49.0982260  47.1208256
  62.9981800  49.4438908  48.4744816  62.1564231  49.3929854  48.6461207
  63.8095017  49.8846781  49.5816657  64.6584329  49.4207838  49.5169596
  64.0475665  51.4076755  49.5689740  64.5494707  51.6506165  50.3617147
  64.5526845  51.6373019  48.7735014  62.7979666  52.2115128  49.5603361
  62.0955094  52.3846089  48.3957612  62.4070548  52.0031701  47.6075037
  60.9415921  53.1121267  48.3850869  60.4552872  53.1956479  47.5968238
  60.4878594  53.7323235  49.5491094  59.7160361  54.2511603  49.5326446
  61.1816429  53.5716212  50.7108277  60.8818669  53.9753614  51.4932434
  62.3273525  52.8118224  50.7236399  62.7933964  52.6973389  51.5199550
  63.1306475  49.5327410  50.8854548  61.9182712  49.3563164  50.9538308
  63.9445350  49.5079373  51.9244884  64.7981007  49.4288729  51.8535835
  63.4996110  49.6077866  53.2994370  62.5334072  49.6766425  53.3446041
  63.9150813  48.3712839  54.0952709  64.8430512  48.1640251  53.9010809
  63.8052824  48.5503471  55.0420731  63.0786988  47.1626511  53.7441868
  62.0146606  46.9596679  54.3037710  63.5626904  46.3579920  52.8106334
  63.1226745  45.6569358  52.5770969  64.3172471  46.5359387  52.4380126
  64.1088826  50.8593821  53.9100531  65.1192873  51.3811926  53.4336709
  63.4845801  51.3467702  54.9706261  62.7235188  51.0596307  55.2505182
  64.0370626  52.4295402  55.7692952  64.8946741  52.6823609  55.3928564
  63.1351012  53.6707432  55.7751030  62.3281393  53.4918356  56.2837744
  63.8514635  54.8295559  56.4543991  63.1996434  55.5061204  56.6945179
  64.2965197  54.5022026  57.2516887  64.5031939  55.2010348  55.8397017
  62.7219014  54.0038243  54.3507302  63.4910177  53.8879572  53.7713090
  62.0125150  53.3967880  54.0859400  62.2121172  55.4112879  54.1520766
  62.0476083  55.5567352  53.2067418  61.3893760  55.5222210  54.6527259
  62.8809010  56.0367655  54.4706845  64.2605602  51.9237152  57.1850875
  63.3594008  51.3461757  57.8049052  65.4689276  52.1294275  57.6721817
  66.1158467  52.4385701  57.1965132  65.8682133  51.8701729  59.0446310
  65.1300083  51.5581483  59.5917389  66.9366911  50.7829477  59.0983472
  67.6623968  51.0211384  58.5016477  67.2657764  50.7060980  60.0082142
  66.3951239  49.4059178  58.6680651  65.6486766  48.7782687  59.4615209
  66.7005927  48.9604387  57.5321944  66.3508659  53.2186790  59.5720546
  67.4787109  53.6372394  59.2916015  65.4880161  53.9046180  60.3339862
  64.6481097  53.7248301  60.3913674  65.8993948  55.0459982  61.1541160
  65.2306282  55.3044204  61.8071850  67.1300981  54.6719141  62.0050704
  67.9218956  55.0285199  61.5716214  67.0271853  55.0674812  62.8838090
  67.3556938  53.1499441  62.2033124  66.2811514  52.2510170  62.3381781
  65.4120700  52.5800005  62.3460773  66.4894382  50.8791194  62.4580384
  65.7653941  50.2992149  62.5256020  67.7804603  50.3868782  62.4777248
  67.9965409  49.0316537  62.6168533  67.4939376  48.7202769  63.2138353
  68.8565109  51.2489597  62.3391004  69.7244649  50.9134521  62.3420254
  68.6409918  52.6173228  62.1975098  69.3691687  53.1854418  62.0960196
  66.1012629  56.2438156  60.2203159  65.1134770  56.8568539  59.7966272
  67.3364798  56.5895317  59.8578996  68.0546593  56.2415998  60.1787291
  67.5561874  57.6274295  58.8464755  66.6985802  58.0233336  58.6267874
  68.4558621  58.7386560  59.4155758  68.6048185  59.4077802  58.7287289
  68.0151579  59.1415170  60.1806580  69.8097196  58.2256854  59.8714674
  69.9442216  57.0011453  60.0943547  70.7374142  59.0593662  60.0198324
  68.1479193  57.0919280  57.5391773  68.2970643  57.8579828  56.5686714
  68.4485308  55.7992400  57.4825696  68.2199909  55.2350729  58.0903376
  69.1963463  55.1857480  56.3897112  69.6043497  55.8885000  55.8589438
  70.2782523  54.2579635  56.9533327  70.8866806  54.7814744  57.4983495
  69.8527049  53.5740636  57.4941897  71.2189798  53.4567070  55.7192634
  71.9814220  52.6934883  56.2442195  68.2749756  54.3902194  55.4739998
  67.5417775  53.5109703  55.9432275  68.3321772  54.6895504  54.1709427
  68.8122278  55.3255119  53.8489174  67.5744919  53.9604402  53.1535030
  66.7735010  53.5979993  53.5622451  67.1646710  54.8766063  51.9837366
  67.9733563  55.1803450  51.5437401  66.3009191  54.0894343  50.9429803
  66.2324344  54.6137845  50.1293190  66.7294264  53.2400057  50.7538067
  65.4175384  53.9389451  51.3137439  66.4328330  56.0841068  52.4658743
  66.4762057  56.7726092  51.7832205  65.5076319  55.8455831  52.6359318
  66.8480608  56.4006979  53.2829845  68.4433924  52.8204297  52.6407711
  69.4828790  53.0617089  52.0183806  67.9892170  51.5871887  52.8409819
  67.2972269  51.4041733  53.3173946  68.6262532  50.4141875  52.2646295
  69.5613082  50.5987451  52.0874611  68.5457109  49.2289885  53.2316984
  67.6267788  49.1196853  53.5204815  68.8475455  48.4286859  52.7745796
  69.3687767  49.4458452  54.3752166  68.9642146  49.9263169  54.9335494
  67.9186751  50.0946981  50.9409250  66.7867417  49.6196328  50.9371783
  68.5845100  50.3645823  49.8230143  69.3509701  50.7551948  49.7992281
  68.0628950  50.0159931  48.5151824  67.1087694  50.1816359  48.4675088
  68.7254377  50.8689347  47.4406212  69.6885793  50.7844916  47.5244101
  68.4388245  50.5530812  46.5694487  68.3858833  52.3217454  47.5361928
  67.1947745  52.7973014  47.0241672  66.6032578  52.2056635  46.6174135
  66.8640574  54.1475501  47.1065125  66.0556091  54.4543794  46.7610227
  67.7384660  55.0195357  47.6997880  67.5334978  55.9253670  47.7535254
  68.9326931  54.5417859  48.2215328  69.5207401  55.1310318  48.6354447
  69.2578596  53.2189212  48.1337736  70.0674745  52.9174037  48.4774129
  68.3135080  48.5426586  48.2743655  69.4142076  48.0568942  48.5293270
  67.2810050  47.8100339  47.8387882  66.4980385  48.1166600  47.6600906
  67.4523746  46.3755047  47.6383278  68.3942725  46.1809207  47.7708477
  66.6560143  45.5731703  48.6803046  66.7845193  44.6304736  48.4887546
  67.0150370  45.7863677  49.5559019  64.8985804  45.8424155  48.7683671
  64.6926214  46.9529599  49.1734869  67.0821956  45.8632172  46.2554557
  67.4522649  44.7272617  45.9170598  66.3493121  46.6222183  45.4673694
  66.1414731  47.4395262  45.6337449  65.8240870  46.1113917  44.2157513
  66.4135787  45.4285547  43.8572693  64.4434809  45.5121620  44.4224184
  64.5316400  44.7493935  45.0153453  63.8807080  46.1871205  44.8318713
  63.7270604  45.0281780  43.1802759  63.9184661  43.7304953  42.6935505
  64.5134386  43.1613485  43.1274464  63.2328410  43.2791996  41.5711373
  63.3803199  42.4219135  41.2406051  62.3429826  44.1090919  40.9626960
  61.6926096  43.6658637  39.8743152  61.3862043  42.8964713  40.0157512
  62.1161630  45.3989371  41.4364820  61.4995667  45.9504362  41.0123313
  62.8040429  45.8509057  42.5276628  62.6557443  46.7148436  42.8394845
  65.7478752  47.2491448  43.2233438  65.3684178  48.3698299  43.5898052
  66.1000837  46.9431480  41.9720560  66.4923305  46.2108635  41.7515067
  65.8499658  47.8296135  40.8560838  65.3161224  48.5829523  41.1526403
  67.1262163  48.4083548  40.2794773  67.5239939  49.0052935  40.9327286
  67.7373134  47.6836836  40.0771655  66.8888068  49.2070738  38.9861128
  66.6028502  48.5983667  38.2874350  66.2016288  49.8729498  39.1489427
  68.3625219  50.0638136  38.4051940  68.3328691  51.5461824  39.4408045
  69.2274087  51.9176315  39.4865264  67.7254876  52.1935031  39.0483920
  68.0292573  51.3050202  40.3291167  65.0992173  47.0349133  39.8001107
  65.5028347  45.9251819  39.4354694  64.0008282  47.5954954  39.3295895
  63.7420266  48.3953469  39.5077586  63.1260381  46.8589943  38.4413737
  63.0174295  45.9518314  38.7675953  61.7400318  47.5057922  38.3990770
  61.3559333  47.4976086  39.2893513  61.8224153  48.4183306  38.0809394
  60.8251917  46.7783115  37.4909704  60.5687626  45.4295114  37.6451756
  60.8661596  44.9352924  38.2827198  59.7943068  45.0244437  36.6594411
  59.4987952  44.1532811  36.5226430  59.5109206  46.0637047  35.8967814
  60.1836425  47.1653413  36.3698533  60.1950434  48.0140531  35.9885760
  63.7363697  46.7902711  37.0492927  64.1871305  47.7986343  36.5121556
  63.8208511  45.5901387  36.4860616  63.6048046  44.8506115  36.8663791
  64.3115167  45.4746688  35.1242926  64.6291714  46.3498802  34.8543545
  65.5084193  44.5098625  35.0380886  65.3164405  43.7292294  35.5814614
  65.6287669  44.2481373  34.1119432  66.8092897  45.0901135  35.5194388
  67.8993454  45.2778451  34.6914604  67.9233650  45.0896704  33.8535658
  68.9007034  45.7915207  35.3873265  69.7436666  45.9972063  35.0549526
  68.4982752  45.9611451  36.6370133  67.1893403  45.5340428  36.7420370
  66.6663015  45.5476345  37.5104943  63.2510875  45.0290556  34.1315425
  63.1820218  45.5632683  33.0113190  62.4332808  44.0423698  34.4573591
  62.3643636  43.6648077  35.2269299  61.5722248  43.5637121  33.3970933
  61.1988901  44.3503654  32.9685483  62.3642917  42.7168119  32.4111343
  61.7838246  42.4322394  31.6882197  63.1043533  43.2355865  32.0587698
  62.9093685  41.5083437  33.0908422  63.3370719  41.7753450  33.9199195
  62.1826594  40.8927834  33.2753996  64.1305038  40.6468474  32.0854376
  64.2191686  39.1351425  33.0411989  63.8043779  38.4181569  32.5362827
  65.1495854  38.9243852  33.2119236  63.7490557  39.2638051  33.8793521
  60.4307106  42.7312073  33.9349279  60.4156548  42.3206890  35.1026517
  59.5053633  42.4303630  33.0375917  59.5227543  42.7067669  32.2229314
  58.3533874  41.5918315  33.3450999  58.2903162  41.4045143  34.2953547
  57.0609759  42.3072646  32.9341227  57.0222047  43.1572300  33.4002575
  57.0875980  42.4554731  31.9756231  55.7756605  41.5672212  33.2392491
  55.7233698  40.7774110  32.6797864  55.7709778  41.3118944  34.1753806
  54.5283067  42.4259786  32.9730268  53.9443359  42.2984593  31.8810973
  54.1317061  43.2339642  33.8544961  58.5148905  40.2626944  32.6292666
  59.0118165  40.2142047  31.4988338  58.1368615  39.1890974  33.2979052
  57.8917588  39.1839709  34.1224616  58.1131931  37.8901159  32.6394403
  58.8035506  37.8526119  31.9586225  58.3819172  36.7863616  33.6540993
  57.6078654  36.7184672  34.2346802  58.5073839  35.9564214  33.1687845
  59.6055581  36.9685112  34.5554935  59.5312230  37.8291727  34.9974868
  59.6598667  35.8664789  35.5901535  60.4765719  35.9588426  36.1064349
  58.8890823  35.9416696  36.1738929  59.6506482  35.0080192  35.1380130
  60.8752022  36.9432455  33.7556788  61.5750123  37.3883903  34.2587304
  61.1237350  36.0214396  33.5868201  60.7277374  37.4047916  32.9145989
  56.7600644  37.6607976  31.9787348  55.7594288  38.2714473  32.3695982
  56.6840567  36.7711075  30.9819799  57.8014195  36.2220814  30.1833882
  58.2526415  35.5102490  30.6650502  58.4343291  36.9184977  29.9507686
  57.1094404  35.6798074  28.9379442  57.5637705  34.8923195  28.6002359
  57.0572778  36.3557217  28.2443118  55.7040309  35.3106733  29.4225247
  55.7008248  34.4639418  29.8946311  55.0705616  35.2835810  28.6887158
  55.3685122  36.4620444  30.3803184  55.0534838  37.2272385  29.8745149
  54.2856787  36.0802344  31.3777264  53.1012390  36.3465712  31.1247989
  54.6456788  35.4795002  32.5098688  55.4454160  35.2224579  32.6966407
  53.6685957  35.2066441  33.5559687  52.9540831  34.6765894  33.1695497
  54.3367412  34.4245628  34.6736325  54.3992490  34.9679951  35.4742311
  53.5147236  33.1772749  35.0171918  54.0816249  32.5124409  35.4397314
  52.7962770  33.4108509  35.6254439  53.1333524  32.7981483  34.2099836
  55.6443452  34.0436975  34.2496236  56.0047263  33.5555726  34.8308840
  53.0412342  36.4664205  34.1475683  52.0705239  36.3587656  34.9126310
  53.5836923  37.6429122  33.8433590  54.2203917  37.7518776  33.2751666
  53.1310350  38.8718966  34.4615724  53.3593496  39.6138347  33.8808312
  52.1665138  38.8326093  34.5599863  53.7209083  39.1593154  35.8281495
  53.2397129  40.0752283  36.5116153  54.7088962  38.3933978  36.2670654
  54.9818817  37.6844108  35.8641978  55.4276300  38.6833299  37.4843185
  54.8987626  39.2644769  38.0527834  55.7125012  37.4068038  38.3255727
  56.1502160  37.6641129  39.1515139  54.4009325  36.6922190  38.7028975
  54.5206061  36.2421188  39.5544485  53.6913558  37.3503172  38.7736199
  54.1844060  36.0446482  38.0137101  56.6451632  36.4746299  37.5628319
  56.7560551  35.6543552  38.0693281  56.2559216  36.2783154  36.6961107
  57.5033139  36.9108633  37.4484169  56.7053351  39.4098290  37.0787748
  57.0611399  39.4862086  35.9135645  57.4213382  39.9370718  38.0589833
  57.3162986  39.7510059  38.8918027  58.4767447  40.9044318  37.7739817
  58.6144155  41.0071832  36.8187740  58.0582642  42.2381110  38.3754341
  57.9732720  42.1405873  39.3372472  58.7289804  42.9062005  38.1680187
  56.7462245  42.7094196  37.8355035  55.5994825  42.7630367  38.5969350
  54.5948105  43.1683034  37.8380213  53.7164270  43.2897828  38.1182467
  55.0486216  43.3697411  36.6163997  54.5806718  43.6403307  35.9476044
  56.3866836  43.0787289  36.5846162  56.9450881  43.1260686  35.8415090
  59.8308262  40.4395685  38.2681309  59.9367750  39.6671789  39.2256355
  60.8735006  40.8913561  37.5716454  60.8196643  41.4355360  36.9073602
  62.2171178  40.4738455  37.9070897  62.2186695  40.1806940  38.8320664
  62.6876396  39.3339172  36.9915955  63.5421578  39.0036295  37.3117622
  62.0298516  38.6210017  37.0114809  62.7812722  39.6720080  36.0880987
  63.1970920  41.6258758  37.7971363  63.0549180  42.5062668  36.9463154
  64.2373739  41.5588849  38.6248861  64.4012550  40.9014513  39.1550455
  65.2048071  42.6272417  38.6926782  65.4846981  42.8694174  37.7950230
  64.8041133  43.4012192  39.1183673  66.4271858  42.2243246  39.4837213
  66.6665461  41.0452496  39.7465042  67.2047228  43.2436985  39.8434811
  66.9526827  44.0645656  39.7933420  68.5614099  43.1085969  40.3612201
  68.7484435  42.1661882  40.4997493  69.5975975  43.7114230  39.3819515
  70.4944561  43.5021397  39.6865220  69.4212352  43.1397322  38.0150583
  70.0975040  43.4948593  37.4169887  69.5034899  42.1736173  38.0454238
  68.5442128  43.3702499  37.6699215  69.4212018  45.1494268  39.3260437
  69.7382232  45.5052692  40.0182826  68.6859452  43.8418856  41.6907762
  67.8420055  44.6697662  42.0463398  69.7534468  43.5305011  42.4264398
  70.2195302  42.8135219  42.3369016  70.2204567  44.4297177  43.4787161
  69.4646224  44.7365986  44.0025374  71.1556081  43.7083812  44.4440680
  71.4777370  44.3438107  45.1022924  70.6637587  42.9965163  44.8839299
  72.3669730  43.0861214  43.7631004  72.8488782  43.6184263  42.7469701
  72.8420706  42.0478010  44.2515870  70.9026783  45.6281369  42.8246106
  71.0040532  45.7334216  41.6041290  71.3533388  46.5587397  43.6275705
  71.3320940  46.5281298  44.4865983  71.9446211  47.7540541  43.0498874
  71.4483800  47.9999687  42.2535195  71.8208818  48.9218384  44.0278069
  71.9435817  48.5807300  44.9271660  72.5147552  49.5670893  43.8207709
  70.4773586  49.6699874  44.0011347  70.4462225  50.1909905  44.8182787
  70.4084285  50.5719835  42.7689051  69.7028867  51.2262374  42.8943627
  71.2602130  51.0226887  42.6595933  70.2193531  50.0286202  41.9881467
  69.2301199  48.7667452  44.0374390  68.4523532  49.2910852  43.7898457
  69.3498232  48.0363208  43.4104754  69.1187236  48.4167721  44.9356192
  73.3927160  47.5467859  42.6188538  74.0181177  48.5013377  42.1735309
  73.9247500  46.3285007  42.7050109  73.5896110  45.6850472  43.1671379
  75.1538856  45.9816799  41.9979938  75.6675293  46.7928443  41.8590681
  76.0100913  45.0306386  42.8421710  75.5156801  44.2080986  42.9832647
  76.8329403  44.8445746  42.3642445  76.3765589  45.5836255  44.1920010
  76.8750561  46.4070371  44.0727372  75.5650768  45.7579387  44.6947006
  77.2428177  44.6178018  45.0087298  77.2383277  43.3908687  44.7334480
  77.9320024  45.0901120  45.9321563  74.8813150  45.3400849  40.6426919
  75.8238595  44.9053048  39.9667192  73.6266374  45.2347378  40.2415697
  72.9446432  45.4536650  40.7161894  73.2970090  44.7244220  38.9272087
  72.4412801  45.0953032  38.6601146  73.9791173  45.0209782  38.3030366
  73.1972663  43.2243504  38.8119026  73.0913719  42.7128867  37.6866310
  73.1729827  42.5022683  39.9322252  73.2227496  42.8391487  40.7214665
  73.0575708  41.0497833  39.9214801  73.4077004  40.7154520  39.0814719
  73.8413676  40.4088465  41.0665114  73.5618263  40.8106307  41.9036237
  73.6589657  39.4557811  41.0777306  75.3372207  40.5939832  40.9386799
  75.9317907  40.3080403  39.8972058  75.9524110  41.0538502  42.0131924
  76.8033488  41.1791038  42.0007703  75.5030132  41.2273035  42.7254779
  71.5907083  40.6923682  40.0837453  70.9895164  41.0458213  41.1046156
  71.0370683  39.9533365  39.1118806  71.4617576  39.6597835  38.4240400
  69.6357246  39.5738816  39.1381622  69.1048714  40.3864108  39.1541949
  69.2321262  38.7757911  37.8833088  70.0187887  38.3354543  37.5259721
  68.5662767  38.1155090  38.1318746  68.6488558  39.6336959  36.7952426
  67.2877271  39.8891733  36.7547959  66.7294667  39.4972994  37.3871685
  66.7562027  40.7031610  35.8056600  65.8398955  40.8589697  35.7860232
  67.5771498  41.2973661  34.8750864  67.2190314  41.8735329  34.2394064
  68.9492742  41.0338121  34.8863122  69.5015496  41.4089743  34.2405643
  69.4726674  40.2257446  35.8473155  70.3893374  40.0684526  35.8688676
  69.3288014  38.7454257  40.3737212  70.1605867  37.9974606  40.8764768
  68.1230042  38.9277215  40.8831204  67.6206592  39.6040869  40.7094674
  67.5245731  37.9760199  41.8043187  68.1761717  37.6358179  42.4371662
  66.4153884  38.6547840  42.6151650  65.8418236  39.1447114  42.0046566
  65.9037426  37.9695957  43.0726468  66.9067182  39.6301009  43.6591180
  67.3259318  39.1820812  44.9113689  67.2920726  38.2733765  45.1079019
  67.7932613  40.0756513  45.8730636  68.0834414  39.7626457  46.6998236
  67.8247316  41.4268275  45.5941273  68.2739186  42.2988838  46.5420739
  67.9744165  43.0683503  46.3895858  67.4027182  41.8967122  44.3661268
  67.4146557  42.8089610  44.1843207  66.9585899  40.9962751  43.4015087
  66.6910037  41.3139293  42.5693721  66.9630886  36.8268539  40.9742087
  66.2133007  37.0561643  40.0281602  67.3583080  35.5986770  41.2931961
  67.8945434  35.4106463  41.9388593  66.8971073  34.4615464  40.5489656
  66.9752137  33.6638700  41.0958776  65.9658798  34.5899478  40.3093943
  67.6934092  34.2509103  39.2790925  68.6523567  34.9685266  38.9886303
  67.2859673  33.2523106  38.4951736  66.1824469  32.3159108  38.7808905
  65.3372441  32.7869685  38.8436508  66.3506875  31.8244952  39.6001260
  66.1964071  31.3961339  37.5929118  65.5973098  31.7179254  36.9014071
  65.9477901  30.4945605  37.8528580  67.6065494  31.4043468  37.0858486
  67.6432746  31.1818049  36.1421832  68.1677423  30.7970641  37.5916304
  68.0583011  32.8560380  37.3079724  69.0039121  32.9044426  37.5183242
  67.8058327  33.6991362  36.0627921  68.1975207  33.2965538  34.9720117
  67.1996970  34.8659873  36.1962243  67.0530417  35.2566343  36.9473409
  66.7223937  35.5953894  35.0298251  66.4458128  34.9590876  34.3513370
  65.5152494  36.4656722  35.4175526  65.8263298  37.2217060  35.9394519
  65.0786384  36.7770284  34.6099301  64.5098151  35.7301133  36.2292077
  63.7804798  34.6897152  35.6654784  63.9153293  34.4620972  34.7739653
  62.8650126  33.9986998  36.4136685  62.3653923  33.3175544  36.0246204
  62.6828257  34.3157950  37.7499591  62.0801382  33.8308169  38.2648632
  63.3916646  35.3450695  38.3126094  63.2553530  35.5725034  39.2032125
  64.3086889  36.0447701  37.5546651  64.7957501  36.7361844  37.9420352
  67.8189157  36.4524046  34.3988834  68.7926230  36.8501836  35.0483447
  67.6285468  36.7391043  33.1104670  66.9214843  36.5090663  32.6777395
  68.5798011  37.4704636  32.2823227  69.2570258  37.8718316  32.8492059
  69.2398462  36.5200778  31.2668006  69.8108929  37.0075998  30.6538691
  70.1031536  35.5362756  32.0116889  70.3352779  34.8063872  31.4160663
  70.9078406  35.9873646  32.3120497  69.6088781  35.1976087  32.7744415
  68.1447206  35.8252326  30.3857314  68.5693134  35.1626838  29.8188706
  67.4964343  35.3980988  30.9665959  67.7061229  36.4968142  29.8391811
  67.8737938  38.6023603  31.5602101  66.6776357  38.5146114  31.2691914
  68.6350808  39.6717281  31.2480394  69.4841039  39.7177816  31.3767012
  68.0493709  40.8729081  30.6460865  67.1080038  40.9014768  30.8803807
  68.6718007  42.1542224  31.2119627  68.3220581  42.9124423  30.7182950
  68.4293192  42.2279134  32.1482283  70.1912833  42.2116557  31.1269505
  70.8397458  41.2152477  30.7734305  70.7400427  43.2969910  31.4453597
  68.1485046  40.7846862  29.1211050  68.8442249  41.5481063  28.4476200
  67.3578473  39.8514357  28.5814797  66.8912143  39.2965329  29.0446660
  67.1994856  39.6694093  27.1474700  67.2164058  40.5298171  26.7011101
  68.3352035  38.8198925  26.5549204  68.2770239  38.8602936  25.5874635
  69.1820720  39.1875886  26.8516312  68.3069767  37.3622586  26.9512886
  68.2879965  37.3022580  27.9192203  67.5112858  36.9511281  26.5778362
  69.5512090  36.5447310  26.4449384  69.3267407  35.6008582  26.4273840
  69.7896342  36.8451517  25.5537730  70.7213168  36.7221393  27.3157266
  71.0632821  37.5100314  27.3562693  71.3013931  35.7685268  28.0535603
  70.8660275  34.5132370  28.0477856  70.1917139  34.2950612  27.5611342
  71.2584064  33.9202062  28.5318252  72.3491307  36.0802352  28.8003888
  72.6470456  36.8873464  28.8067236  72.7312950  35.4772771  29.2786743
  65.8404128  39.0275563  26.8951866  65.2335487  38.4219049  27.7862828
  65.3536348  39.1719282  25.6711862  65.7632286  39.5685276  25.0272858
  64.0363003  38.6424640  25.3246975  63.4664572  38.6972362  26.1072803
  63.3892841  39.4450742  24.2084892  63.3879881  40.3827296  24.4581983
  63.9021103  39.3190524  23.3945765  61.9658372  39.0428930  23.9232311
  61.9569777  38.1378938  23.5733400  61.4532691  39.0874366  24.7455247
  61.3006160  39.9490963  22.9032259  61.6203917  39.9046590  21.7170586
  60.3820150  40.7857110  23.3627049  60.1912934  40.7957171  24.2012150
  59.9780056  41.3190362  22.8226210  64.2031142  37.1842966  24.9308424
  64.4179851  36.8446142  23.7718837  64.0430400  36.3065872  25.9041412
  63.8122100  36.5079631  26.7068337  64.2558045  34.8914205  25.6816001
  64.0163732  34.6461426  24.7741793  65.7304398  34.5217853  25.8836458
  66.2994969  35.1755940  25.4468585  66.0757170  34.5152253  27.3664693
  66.9246159  34.9619843  27.5120479  65.3866467  34.9760193  27.8694504
  66.1415822  33.6019175  27.6883134  65.9817877  33.2334656  25.3118954
  66.0529924  33.2972409  24.4779687  63.3436910  34.1386921  26.6324975
  62.7719192  34.7107731  27.5607541  63.2095189  32.8451453  26.3933565
  63.6088847  32.4173270  25.7634862  62.3389371  32.0285626  27.2201098
  61.4759491  32.4596284  27.3184417  62.0888988  30.6720575  26.5677880
  61.9583805  30.0069441  27.2615596  61.2960062  30.7299319  26.0114133
  62.8570113  30.4363377  26.0252224  62.9761335  31.8702803  28.5865524
  64.1034268  31.3818985  28.7081013  62.2703264  32.3200509  29.6109741
  61.5126073  32.7199975  29.5420575  62.7391013  32.1635188  30.9751566
  63.1405831  31.2909302  31.1099247  63.8026047  33.1851926  31.3331990
  64.0383971  33.0783131  32.2682780  64.5823555  33.0346707  30.7755712
  63.3532492  34.5983965  31.1285939  62.9937069  34.6910950  30.2325903
  62.6717566  34.8130077  31.7846030  64.4973606  35.5917560  31.2881151
  65.2715821  35.5037853  32.2267419  64.6038437  36.5329517  30.3595096
  64.0426942  36.5602013  29.7083917  65.2347813  37.1164599  30.4089554
  61.5159431  32.3257494  31.8450901  60.7653139  33.2981305  31.6929001
  61.2968614  31.3605686  32.7122199  61.8347457  30.7015204  32.8450432
  60.1050899  31.3224759  33.5348941  59.6388863  32.1732783  33.5140270
  59.1242058  30.2553208  33.0346177  58.2508272  30.4218336  33.4218662
  59.0718704  30.3038363  32.0671172  59.4453526  29.3809309  33.3043305
  60.5245663  31.0452937  34.9653429  61.5498075  30.4018975  35.2185044
  59.7263877  31.5573746  35.8926104  59.0287869  32.0305702  35.7254575
  59.9731951  31.3551751  37.3073098  60.8968677  31.5843830  37.4921494
  59.0441196  32.2369807  38.1217340  59.2182403  32.0932233  39.0644692
  59.2076282  33.1655079  37.8919880  58.1257532  32.0026077  37.9162264
  59.7516336  29.9111983  37.7247538  58.8649041  29.2235818  37.2238592
  60.5500884  29.4656971  38.6748131  61.2745503  29.8510950  38.9316582
  60.2328238  28.2400635  39.3765811  60.2094250  27.5017845  38.7481779
  60.9122744  28.0636282  40.0469217  58.8826469  28.3375209  40.0648125
  58.2762262  29.4048057  40.2078616  58.3929517  27.1778944  40.4885234
  58.7539042  26.4082505  40.3587868  57.1510898  27.1569683  41.2321644
  56.4442617  27.5584631  40.7042307  56.7004622  25.7233234  41.5375593
  57.3463942  25.3118288  42.1334981  55.3123484  25.7358164  42.1995451
  54.6807445  25.2400934  41.6553748  55.3594268  25.3270554  43.0780592
  54.9975712  26.6482462  42.2943243  56.6051279  24.9622490  40.3271470
  55.9469042  25.2231584  39.8748398  57.3504502  27.9396699  42.5216010
  58.3166493  27.7320335  43.2528905  56.4582526  28.8707871  42.7777694
  55.8230622  29.1109973  42.2486832  56.5146468  29.5751707  44.0435425
  57.4385638  29.7821597  44.2544640  55.7366095  30.8731899  43.9409265
  55.7890001  31.2064438  43.0310501  54.8111219  30.7116658  44.1826776
  56.2886123  31.9212105  44.8594882  57.5034282  31.8183935  45.2129371
  55.5254432  32.8289925  45.2240454  55.9750417  28.7043117  45.1890285
  55.3901326  27.6296173  44.9869935  56.2175991  29.1807147  46.4105964
  56.6564612  29.9067599  46.5530164  55.7774549  28.5455456  47.6419824
  55.0235365  27.9636050  47.4546589  56.8864498  27.6835821  48.2608469
  56.8968868  26.8269745  47.8064193  58.2396850  28.2989880  48.0838978
  58.8770055  27.8739722  48.6788274  58.5381364  28.1850950  47.1680325
  58.2015249  29.2469254  48.2874623  56.6278147  27.4879347  49.6577989
  57.2182406  26.9917724  49.9919220  55.3024784  29.6199675  48.6130560
  55.5036552  30.8196312  48.3887973  54.6155944  29.1998764  49.6885896
  54.4492897  28.3753966  49.8710036  54.0839583  30.1598199  50.6584853
  53.9672262  31.0266682  50.2387633  52.7332870  29.6761510  51.1552121
  52.8031456  28.7886509  51.5401436  52.1942179  30.5693819  52.2450584
  51.2529911  30.3841696  52.3905176  52.6768190  30.4135579  53.0714870
  52.2963003  31.5001221  51.9915865  51.8535870  29.6776754  50.0354270
  51.0725918  29.4909866  50.2830655  55.0619462  30.3748005  51.8061999
  55.6276453  29.4118686  52.3228630  55.3042856  31.6514360  52.1584774
  54.9158560  32.3285550  51.7983313  56.2618557  32.0161135  53.1999143
  57.0277340  31.4294731  53.1033865  56.7571679  33.4739488  53.0650806
  56.0082900  34.0611531  53.2517619  57.8961346  33.7397123  54.0493482
  58.1872000  34.6596647  53.9548417  57.5762449  33.5855249  54.9517105
  58.6309448  33.1379347  53.8519559  57.2831516  33.7221879  51.6498853
  58.2524665  33.6995201  51.6727916  56.9478245  33.0215040  51.0689311
  56.8732999  35.0432075  51.0521003  56.9006181  34.9739679  50.0848358
  55.9727021  35.2559191  51.3429652  57.4892024  35.7300872  51.3520442
  55.6453314  31.7934462  54.5773939  55.0052784  32.6790767  55.1661959
  55.9149724  30.6187092  55.1192203  56.4994888  30.0654507  54.8150401
  55.2318103  30.1398523  56.3072605  54.2782667  30.0998034  56.1299429
  55.7454069  28.7390031  56.6424085  56.6916415  28.7746314  56.8521458
  55.0314977  28.1718092  57.9109174  55.0048731  27.2036278  57.8704942
  55.5116745  28.4402940  58.7103241  54.1239435  28.5102380  57.9600432
  55.5774667  27.8740890  55.5026411  56.2973742  27.4754645  55.3364375
  55.4377194  31.0750235  57.4926821  54.4870676  31.3767102  58.2294943
  56.6851110  31.5026776  57.7271007  57.3723398  31.3070694  57.2481424
  56.9725432  32.3715141  58.8707768  56.6850703  31.9075262  59.6727509
  58.4938615  32.6321493  59.0054362  58.9185252  31.7605757  58.9961538
  59.1001248  33.4413647  57.8455365  60.0492733  33.2479204  57.7859520
  58.6594672  33.1886367  57.0190013  58.9654686  34.3871437  58.0155770
  58.7637079  33.3738693  60.2811166  59.7199564  33.3835521  60.4448479
  58.4353269  34.2827961  60.1940644  58.3068971  32.9254685  61.0102707
  56.1880057  33.6767163  58.7749542  55.7900252  34.2621577  59.7970833
  55.9876585  34.1682148  57.5666246  56.3115642  33.8361372  56.8419257
  55.1672198  35.3582021  57.3627899  55.4591980  36.0630931  57.9619972
  55.3488086  35.8248003  55.9271150  55.2784847  35.0613427  55.3319544
  54.6635356  36.4761865  55.7128860  56.7235919  36.4811515  55.7083548
  57.5668338  36.4578286  56.5999193  56.9404955  37.0383478  54.5371677
  57.6954742  37.4155307  54.3741054  56.3273433  37.0244367  53.9339822
  53.6982313  35.1017861  57.6882563  53.0509995  35.9081023  58.3793701
  53.1476599  33.9737986  57.2165516  53.5417012  33.4050361  56.7061776
  51.7707570  33.6326910  57.5639393  51.1954979  34.3210926  57.1962150
  51.3483286  32.2981782  56.9336165  52.0004741  31.6127338  57.1486262
  49.9709913  31.9104204  57.4856516  49.5843115  31.2258438  56.9180182
  50.0772512  31.5700784  58.3881947  49.4017579  32.6950835  57.4920695
  51.2710360  32.4245450  55.4124317  51.7083518  31.6588153  55.0086470
  50.3395401  32.4519305  55.1442817  51.7172488  33.2416571  55.1399893
  51.5959205  33.6102507  59.0802066  50.6260999  34.1588900  59.6297117
  52.5506065  33.0151467  59.7809291  53.2422928  32.6285507  59.4466455
  52.4786562  32.9798741  61.2322754  51.6348236  32.5871833  61.5071835
  53.6058520  32.0957584  61.7736286  54.4340237  32.3757087  61.3532890
  53.6584591  32.2306302  62.7332530  53.4697700  30.5793157  61.5387046
  53.2893989  30.4625950  60.5927878  54.7607845  29.7718398  61.8342860
  54.5824336  28.8285995  61.6941478  55.4638346  30.0682338  61.2347393
  55.0254859  29.9250450  62.7548990  52.3460693  30.0362340  62.3651790
  52.3953773  29.0678184  62.3676299  52.4272435  30.3745339  63.2707025
  51.5031613  30.3232983  61.9790582  52.5280153  34.3918844  61.8287848
  51.7963018  34.7058222  62.7706699  53.3827110  35.2560129  61.2992603
  53.9252318  35.0873271  60.6539626  53.4495731  36.6167573  61.8109851
  53.6751214  36.5974075  62.7547025  54.5580356  37.3944609  61.0933884
  54.1581852  38.1221737  60.5908034  55.1743567  37.7477724  61.7546715
  55.0254975  36.7945131  60.4922295  52.1030524  37.3097055  61.6596378
  51.6277916  37.9848090  62.5877964  51.4601224  37.1158729  60.5066318
  51.7676695  36.6517619  59.8514206  50.1499515  37.6859268  60.2459195
  50.1459193  38.6435268  60.4003829  49.8359350  37.4211850  58.7919421
  50.5301658  37.8401313  58.2586912  49.8473034  36.4608650  58.6559118
  48.5875598  37.8924032  58.2827005  48.2642275  39.1793826  57.9011392
  48.8343334  39.9114722  57.9534285  46.9683096  39.2167576  57.4330047
  46.5546130  39.9174510  57.1559417  46.4519376  37.9510956  57.4825688
  45.2003454  37.4850140  57.1022334  44.5574450  38.0570668  56.7480588
  44.9498527  36.1443318  57.2694331  44.1165179  35.8078668  57.0303718
  45.9073729  35.2738348  57.7850620  45.7028734  34.3716166  57.8753461
  47.1611017  35.7322292  58.1679154  47.7929489  35.1496640  58.5243954
  47.4512635  37.0948853  58.0039570  49.0800253  37.1294347  61.1974957
  48.2234275  37.8770898  61.6687556  49.1329817  35.8446839  61.5317293
  49.6927906  35.2697614  61.2232814  48.1747722  35.3199930  62.5050555
  47.2818475  35.5152442  62.1805195  48.2866214  33.8007136  62.6360701
  49.2156661  33.5810894  62.8074974  47.7361475  33.5233960  63.3844005
  47.8475575  32.9778836  61.4267267  48.4192666  33.2288496  60.6847727
  48.0000207  31.4562899  61.7544928  47.5437789  30.9382831  61.0737151
  48.9433171  31.2292391  61.7660584  47.6071526  31.2793112  62.6237840
  46.4338864  33.2615930  60.9737763  45.9309298  32.4321088  60.9706627
  46.0259754  33.8926591  61.5872371  46.4580124  33.6374725  60.0798113
  48.3639786  35.9809810  63.8640098  47.3871458  36.2545134  64.5672678
  49.6107532  36.2718503  64.2468822  50.3279436  36.0512772  63.8259329
  49.8219132  37.0285197  65.4841643  49.3700411  36.5592531  66.2030116
  51.3143092  37.0979614  65.8380555  51.8180061  37.2360638  65.0205292
  51.4520260  37.8437411  66.4427915  51.8669764  35.8617961  66.5089737
  51.6205334  35.6028640  67.8540856  51.0982642  36.1936375  68.3462630
  52.1351503  34.4911183  68.4609653  51.9587092  34.3321875  69.3601664
  52.9106977  33.6082958  67.7494834  53.4466424  32.4823884  68.3502336
  52.8346881  31.9394862  68.5400947  53.1744442  33.8388441  66.4229713
  53.7085357  33.2470263  65.9449766  52.6465452  34.9477611  65.8028409
  52.8126375  35.0894759  64.8995761  49.2400987  38.4341491  65.3807435
  48.6305997  38.9300075  66.3322977  49.4320229  39.0982327  64.2401528
  49.8776981  38.8081137  63.5640510  48.8635185  40.4249200  64.0730767
  49.2307952  41.0217360  64.7434942  49.2409551  40.9948726  62.7116885
  49.2124963  41.9633115  62.7559528  50.1365228  40.7010877  62.4837745
  48.6081965  40.6755757  62.0490551  47.3520575  40.3757660  64.2512184
  46.7706005  41.2429438  64.9023501  46.7091907  39.3361036  63.7176330
  47.0768145  38.7224664  63.2412057  45.2767407  39.1623586  63.9138112
  44.8106813  39.9086787  63.5039577  44.8075250  37.8797630  63.2338744
  43.9619510  38.0476657  62.7904352  45.4734617  37.6049118  62.5842814
  44.6971102  37.1889625  63.9060354  44.9332774  39.1379242  65.3915425
  44.0420625  39.8586666  65.8469482  45.6561448  38.3343053  66.1662899
  46.3168023  37.8545529  65.8952211  45.3717192  38.2005045  67.5888712
  44.4478467  37.9299366  67.7072334  46.2729568  37.1023523  68.1915540
  47.1891426  37.2592982  67.9151256  46.2436509  37.1314529  69.6789357
  46.7231178  36.3603153  70.0195193  46.6680099  37.9477116  69.9879456
  45.3210811  37.1049283  69.9776924  45.8017242  35.7309359  67.6833840
  46.5317265  35.0971374  67.7628392  45.0485625  35.4357852  68.2192417
  45.5345923  35.8123568  66.7543629  45.5393950  39.5365099  68.2941665
  44.6977870  39.9227826  69.1144752  46.6213114  40.2615604  67.9804361
  47.2383476  40.0064921  67.4394818  46.8516116  41.5887008  68.5495346
  46.9058758  41.5326317  69.5165633  48.1982111  42.1232389  68.0292760
  48.2011753  42.0579829  67.0618760  48.4195754  43.5787453  68.3548846
  49.2645148  43.8628450  67.9726977  47.6931697  44.0999059  67.9781521
  48.4395356  43.6866248  69.3185825  49.3034569  41.2751257  68.6590544
  49.3497493  41.4908727  69.6036682  49.0706485  40.3404284  68.5431525
  50.6752235  41.4610304  68.0963770  51.3183189  41.0441735  68.6902665
  50.7154068  41.0465784  67.2211554  50.8594371  42.4099902  68.0226369
  45.6803674  42.5107319  68.2427195  45.2554214  43.2933937  69.0979356
  45.0880633  42.3813215  67.0579678  45.3279943  41.8219716  66.4493572
  43.9416787  43.2161667  66.7013772  44.0879151  44.0768324  67.1230186
  43.8625822  43.3968820  65.1907744  44.3610204  42.6855706  64.7590841
  42.9337701  43.3656028  64.9147985  44.4338734  44.6960653  64.7505708
  43.7400447  45.7147154  64.7680831  45.7152916  44.6929894  64.3833992
  46.0890355  45.4218590  64.1210814  46.1684679  43.9625074  64.4085435
  42.5982905  42.6790604  67.1741374  41.5767916  43.3320483  66.9141205
  42.5611905  41.5411468  67.8563346  43.2502282  41.0506484  68.0132753
  41.3221426  41.0155906  68.4096536  41.5233049  40.6041794  69.2652958
  40.7143288  41.7585218  68.5513454  40.5860535  39.9847783  67.5779084
  39.4537244  39.6105438  67.9379172  41.1868155  39.5055996  66.4952571
  41.9583637  39.7729290  66.2277982  40.6091762  38.4689525  65.6331703
  39.6463296  38.4223380  65.7391675  40.9427018  38.7952200  64.1806593
  41.2038207  39.7270686  64.1208757  41.6729672  38.2258009  63.8917123
  39.7723429  38.5768450  63.2207607  38.7161114  38.0593958  63.6413227
  39.9168048  38.9272800  62.0242962  41.1953050  37.1273093  66.0672664
  42.2893509  36.7683633  65.6380132  40.4610690  36.3789920  66.9116737
  39.6313115  36.5264901  67.0843234  41.0114888  35.2297119  67.6257650
  41.9152203  35.1278570  67.2854534  41.0289241  35.4939868  69.1464980
  40.1153921  35.6260840  69.4436893  41.4112029  34.7182036  69.5859445
  41.8314531  36.7090321  69.5935395  42.7755482  36.5238374  69.4744704
  41.5721483  37.4721182  69.0546688  41.6042622  37.0790919  71.0848345
  41.5544962  36.2636974  71.6067322  42.3465739  37.6231931  71.3896759
  40.3693277  37.8366889  71.3169388  40.3668624  38.6666415  71.0903121
  39.2478919  37.3433888  71.8494750  39.1593996  36.0770341  72.2435321
  39.8361922  35.5521562  72.1589689  38.4271428  35.7817993  72.5842745
  38.1939256  38.1352835  71.9882510  38.2372671  38.9567596  71.7369892
  37.4671941  37.8286808  72.3301080  40.2903342  33.8993123  67.3976906
  40.6186991  32.9221055  68.0777173  39.3384590  33.8084117  66.4664297
  39.1686184  34.4081778  65.8728989  38.4848506  32.6235614  66.3975577
  38.1382185  32.4528317  67.2879956  37.3083714  32.8816876  65.4543671
  36.7447651  32.0932917  65.4272045  36.8010761  33.6419445  65.7804928
  37.7510787  33.1814518  64.0713467  37.9732221  34.4197369  63.5242586
  37.8618995  35.2281993  63.9725107  38.3830200  34.2938057  62.2198216
  38.5707542  34.9432331  61.6889404  38.4460174  32.9588820  61.9019081
  38.8099690  32.3428942  60.7252508  39.0632333  32.8404592  59.9813400
  38.7857114  30.9811275  60.6881415  39.0340257  30.5454391  59.9058688
  38.3978859  30.2250380  61.7950928  38.3783557  29.2972283  61.7329026
  38.0449990  30.8330938  62.9786535  37.8023304  30.3266481  63.7194238
  38.0590072  32.2282692  63.0430540  39.2312869  31.3687309  65.9443986
  38.7841246  30.2566054  66.2308119  40.3492314  31.5099590  65.2458560
  40.7241179  32.2694101  65.0941975  41.0664907  30.3813982  64.6568819
  40.4207527  29.7136551  64.3779291  41.8455952  30.8623918  63.4241373
  42.4038878  30.1381320  63.1010922  41.2158397  31.1274113  62.7362400
  42.7427393  32.0491741  63.7248668  44.0434864  31.8690038  64.1822690
  44.3820198  31.0082946  64.2828116  44.8427936  32.9685547  64.4919218
  45.7085999  32.8420655  64.8043588  44.3432411  34.2456234  64.3328851
  44.8754922  34.9823270  64.5274865  43.0501677  34.4252312  63.8819481
  42.7109274  35.2839575  63.7763490  42.2615462  33.3328674  63.5899350
  41.3894174  33.4652381  63.2952584  42.0284659  29.7196137  65.6220275
  42.6524913  28.7124301  65.2627009  42.1824046  30.2622275  66.8286343
  41.7933127  30.9826085  67.0915788  43.0509557  29.6580605  67.8289393
  43.8824405  29.3958165  67.4042016  43.3220581  30.6739655  68.9251371
  42.4652848  30.9589794  69.2804052  43.8370857  30.2303334  69.6170404
  44.0857565  31.9397170  68.5583622  43.6892400  32.3690244  67.7833269
  44.0280502  32.8590190  69.7573884  44.7242624  33.5291447  69.6767280
  43.1575140  33.2877517  69.7859021  44.1641706  32.3352089  70.5633613
  45.5230765  31.6320089  68.1737585  45.9423488  32.4423295  67.8426810
  45.9977213  31.3116156  68.9572612  45.5272805  30.9511533  67.4827882
  42.4280979  28.3956274  68.4258857  41.4023782  28.4688036  69.0954911
  43.0789897  27.2394126  68.2436604  43.8209742  27.1623848  67.8153629
  42.5570295  25.9939269  68.7761518  41.6181488  26.1093324  68.9910763
  42.6595068  24.8841965  67.7250429  42.1990365  24.0973858  68.0560220
  42.2421009  25.1915066  66.9038634  44.0979551  24.4810770  67.3952971
  45.0659161  24.7859936  68.1112456  44.2310610  23.7508865  66.3148742
  45.0113644  23.4870206  66.0672123  43.5377201  23.5354553  65.8527468
  43.2794696  25.6272274  70.0741709  44.1733512  26.3243029  70.5418785
  42.8632899  24.5289895  70.6761286  42.2846855  23.9900453  70.3390645
  43.3488152  24.1185519  71.9856537  43.5692785  24.9114578  72.4984433
  42.2323624  23.3429905  72.7189528  42.5302924  23.1418757  73.6194107
  41.4354734  23.8961455  72.7479079  41.8557757  22.0059775  72.0341572
  41.7829608  22.1531090  71.0785091  42.5499770  21.3541576  72.2176438
  40.5179517  21.4193540  72.5233820  40.5296664  21.3692895  73.4916306
  39.7936985  21.9936326  72.2291470  40.2657385  20.0688158  72.0019214
  40.6187304  19.4089400  72.4265102  39.5317621  19.7831970  70.9203778
  38.9527804  20.7460438  70.2129831  39.0471069  21.5679179  70.4478584
  38.4834114  20.5479834  69.5193241  39.3716993  18.5161801  70.5427418
  39.7391746  17.8829855  70.9936049  38.9001751  18.3307564  69.8477907
  44.6152574  23.2615621  71.9285333  45.0789029  22.8026315  72.9775288
  45.2053156  23.0545800  70.7574489  45.0019967  23.4670087  70.0314420
  46.2702367  22.0835114  70.6219431  46.2648418  21.5247626  71.4151214
  46.0363944  21.2161872  69.3742679  46.0811903  21.7823326  68.5877116
  46.7275741  20.5369906  69.3329804  44.7209493  20.5269573  69.3636725
  44.4349054  19.5413675  70.3007706  45.0767637  19.3079956  70.9320467
  43.2008820  18.8995577  70.3046955  43.0132506  18.2444429  70.9376631
  42.2564715  19.2468531  69.3573836  41.4335307  18.8141456  69.3430786
  42.5350658  20.2439866  68.4233263  41.8926555  20.4864014  67.7955031
  43.7561162  20.8680821  68.4295456  43.9396198  21.5274157  67.7990604
  47.6429049  22.7359788  70.5436338  47.8023155  23.9447051  70.3066294
  48.6485593  21.8930583  70.7169929  48.5522104  21.1115073  71.0640316
  50.0245219  22.1866450  70.3444680  50.0911289  23.0732077  69.9580342
  50.9324182  22.1765439  71.5833220  50.4960140  22.6586363  72.3034832
  51.1894453  20.7519226  72.0937839  51.1820569  20.7402756  73.0640744
  50.4993570  20.1528411  71.7678030  52.0522008  20.4381859  71.7819693
  52.1737699  22.8076260  71.2533032  52.0307286  23.5171535  70.8263713
  50.4665230  21.1822506  69.2704490  49.6849528  20.3390308  68.8144890
  51.7155758  21.3204361  68.8365861  52.2495369  21.9416668  69.1001594
  52.3148412  20.4214118  67.8566844  52.0285679  19.5170672  68.0579169
  51.8922676  20.7290864  66.4107560  50.9231790  20.7219204  66.3704459
  52.4062863  22.1088725  65.9550588  52.4037376  22.1597264  64.9862082
  51.8359098  22.8087216  66.3079551  53.3108650  22.2478095  66.2756613
  52.4477553  19.7549234  65.5328871  53.2830477  19.8408063  65.4997246
  53.8201619  20.5394657  67.9810657  54.3478127  21.5435778  68.4729085
  54.5091679  19.5217135  67.4842989  54.1623938  18.7840945  67.2105363
  55.9563122  19.5916310  67.3657410  56.3161910  20.1029600  68.1071039
  56.6005240  18.2073485  67.4206245  57.5586448  18.3016999  67.5378398
  56.0675830  17.3750782  68.6135289  56.7365816  16.7296042  68.8933719
  55.8622770  17.9595279  69.3603282  55.2627869  16.9008735  68.3542857
  56.3033737  17.5225751  66.2025687  56.9015317  17.6777784  65.6331022
  56.3051656  20.2587901  66.0437978  55.5261965  20.2330026  65.0863684
  57.5173021  20.8113066  65.9832190  58.0773271  20.8477180  66.6342506
  57.9864338  21.4169477  64.7474944  57.4018298  22.1559299  64.5131240
  59.3871045  21.9865936  64.9354602  59.3995180  22.5021362  65.7573596
  60.0109934  21.2455135  64.9994360  59.8805936  22.9055652  63.8103822
  59.9414937  22.3939096  62.9885765  58.9033944  24.0466089  63.5309719
  59.4062395  24.8592209  63.3607525  58.3673536  23.8209471  62.7544212
  58.3304773  24.1688587  64.3037403  61.2471533  23.4366046  64.1675667
  61.3309252  24.3443741  63.8360751  61.3474207  23.4274958  65.1324929
  61.9218100  22.8720890  63.7592856  57.9588503  20.4065925  63.6105324
  57.5106557  20.7222036  62.5008756  58.3689301  19.1687267  63.8889205
  58.5959427  18.8861787  64.6692563  58.4631432  18.1684388  62.8322408
  58.9917538  18.5293881  62.1032165  59.1867746  16.9155063  63.3450290
  58.8591093  16.7027593  64.2332734  59.0096545  16.1783941  62.7414131
  60.6940459  17.1034286  63.4312579  61.2653245  17.9886749  62.7869214
  61.3487665  16.2664741  64.2343383  62.2027659  16.3308863  64.3183213
  60.9178755  15.6622586  64.6687536  57.0844181  17.8225954  62.2834983
  56.8947412  17.7727276  61.0642756  56.0995619  17.6136100  63.1654242
  56.1838644  17.6597701  64.0195421  54.7520226  17.2790777  62.7093397
  54.8162913  16.5319497  62.0935107  53.8800932  16.8461879  63.8924903
  53.9355738  17.5161382  64.5908645  52.9614401  16.7532458  63.5939871
  54.3263338  15.5124399  64.4761390  54.0468691  15.2493759  65.6718471
  54.9851207  14.7394363  63.7355404  54.1050721  18.4447847  61.9756018
  53.3450665  18.2451071  61.0140982  54.3636445  19.6683533  62.4257231
  54.8113367  19.8599254  63.1346468  53.8588537  20.8104584  61.6760297
  52.8919797  20.7438681  61.6529775  54.2191457  22.1247066  62.3619439
  53.7170419  22.1987042  63.1878369  55.1712615  22.1337997  62.5500181
  53.9005762  23.3194789  61.5133578  52.5944340  23.7207566  61.3451621
  51.9132759  23.2585820  61.7782410  52.2841094  24.7866632  60.5544607
  51.3991638  25.0575388  60.4655415  53.2764119  25.4609901  59.8894861
  53.0619548  26.1855926  59.3467806  54.5945571  25.0656751  60.0240013
  55.2679007  25.5198148  59.5710384  54.9040821  23.9979710  60.8317359
  55.7889423  23.7284005  60.9227262  54.3998688  20.8087122  60.2466083
  53.6444190  20.9841030  59.2865023  55.7101764  20.6084291  60.0773223
  56.2679039  20.4023179  60.6976047  56.2922697  20.7390033  58.7342427
  55.9985733  21.5694745  58.3282082  57.8181927  20.8089250  58.8550401
  58.1158470  20.1717291  59.5233015  58.2163868  20.5988521  57.9961729
  58.2919697  22.2113260  59.2781250  57.6925948  23.2164949  58.8971379
  59.3321788  22.2749438  60.0916499  59.6285638  23.0389240  60.3520327
  59.7131178  21.5522039  60.3609741  55.8172648  19.6365600  57.7787962
  55.6426025  19.8877813  56.5800156  55.5086604  18.4479712  58.2789292
  55.5989855  18.2135673  59.1010223  54.9670730  17.4210000  57.3987138
  55.6090963  17.2727217  56.6872058  54.7657626  16.1071919  58.1506902
  54.1946203  16.2971118  58.9113089  54.3188446  15.4953757  57.5453438
  55.9632492  15.3610334  58.6973368  56.4042849  15.9133244  59.3626428
  55.4694688  14.0465437  59.3391732  56.1999119  13.6414145  59.8331935
  54.7339883  14.2455178  59.9400390  55.1705927  13.4459001  58.6387439
  57.0040462  15.0802034  57.6411223  57.8229346  14.7909718  58.0739695
  56.6766609  14.3811590  57.0536687  57.1668292  15.8906872  57.1342261
  53.6412639  17.8563545  56.8079628  53.3558233  17.6021101  55.6334227
  52.7904871  18.4710268  57.6220604  52.9169196  18.6050767  58.4621268
  51.5253259  18.9801711  57.1046438  51.0720835  18.2761789  56.6160260
  50.6091628  19.3998061  58.2687729  51.0574774  20.0816580  58.7928663
  49.3053471  20.0133244  57.7747637  48.6941309  20.1014053  58.5225788
  49.4915569  20.8864883  57.3944669  48.9204503  19.4340964  57.0983301
  50.3275738  18.1801595  59.1328875  49.4538364  18.2792791  59.5442404
  50.3412048  17.3872428  58.5747233  51.0100350  18.1137875  59.8189761
  51.7805286  20.1184175  56.1323636  51.3160743  20.0931154  54.9925439
  52.5593769  21.1075748  56.5488793  52.9741342  21.1271538  57.3015718
  52.7704976  22.2893794  55.7100475  51.9088890  22.7082357  55.5558818
  53.6821953  23.2720001  56.4331089  53.9833453  23.9451935  55.8030912
  53.1862744  23.6922026  57.1526347  54.4440571  22.7905236  56.7920923
  53.3617394  21.9375662  54.3487828  52.9861089  22.5353622  53.3269675
  54.3069181  20.9929279  54.3201142  54.6440952  20.6145509  55.0142550
  54.8599697  20.5163178  53.0542605  55.4185648  21.2112357  52.6732189
  55.7433402  19.2911499  53.3113486  56.5331824  19.5752357  53.7979311
  55.2408091  18.6515367  53.8394692  56.2082557  18.5847537  52.0533919
  55.4660905  18.0784310  51.6890211  56.5017667  19.2522997  51.4126153
  57.5858914  17.4312881  52.3204615  58.9293496  18.5814414  52.6477253
  59.7734691  18.1074558  52.5829026  58.8999446  19.2954007  51.9933443
  58.8224309  18.9454617  53.5403835  53.7554813  20.1911177  52.0518947
  53.8734222  20.5151187  50.8671301  52.6638115  19.5675362  52.5113162
  52.5146563  19.3811699  53.3381586  51.6020070  19.1418736  51.6068503
  52.0095636  18.5870954  50.9235752  50.5496944  18.3189777  52.3576560
  50.4614747  18.6757157  53.2547091  49.7044850  18.3952698  51.8860146
  50.8645691  16.8715558  52.4797743  51.3813783  16.5888478  51.7087513
  51.3714111  16.7203829  53.2926845  49.6017199  16.0339220  52.5421717
  49.3872795  15.8408814  53.4675751  48.8715422  16.5193834  52.1259760
  49.7853435  14.7034873  51.7976504  49.0989491  14.0853646  52.0926757
  49.7010367  14.8650763  50.8454543  51.1138135  14.0510948  52.0313349
  51.0743322  13.1909920  51.8039820  51.7391423  14.4508797  51.5401475
  51.3372960  14.1128837  52.8905227  50.9133126  20.3170695  50.9426639
  50.3653473  20.1869434  49.8340669  50.8536084  21.4494501  51.6215531
  51.2330541  21.5820016  52.3817504  50.1141113  22.5831542  51.1045384
  49.4819839  22.3015131  50.4244795  49.3032865  23.1941929  52.2397974
  49.8985970  23.4335892  52.9666845  48.8401255  23.9820261  51.9168879
  48.2671632  22.2056212  52.7673422  48.5618391  21.3519179  53.7973946
  49.4082237  21.3803039  54.1833264  47.6152901  20.4329559  54.2867039
  47.8324493  19.8674956  54.9928672  46.3794316  20.3772429  53.7189225
  45.4445135  19.4930467  54.2099807  44.6707238  19.7945822  54.0846017
  46.0618432  21.2313769  52.6794449  45.2149274  21.2033955  52.2975817
  47.0039869  22.1301743  52.2045916  46.7845754  22.6910838  51.4963747
  51.0244612  23.5839028  50.4337639  50.6237726  24.7314146  50.1948341
  52.2392102  23.1607914  50.1136599  52.5215490  22.3668072  50.2833034
  53.2332556  23.9915588  49.4395025  54.0042446  23.4303767  49.2614778
  52.7082588  24.5215196  48.1109722  52.2040790  23.8211811  47.6671989
  52.1351035  25.2864624  48.2793337  53.8431450  24.9745240  47.1572776
  54.9600071  24.4537890  47.1988362  53.5399952  25.9387487  46.2943037
  54.1349315  26.2257756  45.7439981  52.7491201  26.2754077  46.2870747
  53.7081949  25.1514783  50.3032022  53.9754041  26.2342661  49.7931906
  53.7823730  24.9362327  51.6089112  53.4622676  24.2396653  51.9993870
  54.4205066  25.8716424  52.5184579  54.3598347  26.7636690  52.1431242
  53.7271269  25.8471789  53.8760246  53.4587905  24.9360421  54.0706893
  54.3515002  26.1602470  54.5489967  52.5018643  26.7103589  53.9536371
  51.4448827  26.5511557  53.0567329  51.4987415  25.8987869  52.3966963
  50.3236948  27.3455537  53.1370795  49.6262515  27.2444444  52.5298360
  50.2553904  28.3047306  54.1439634  49.1725243  29.1211593  54.2868488
  49.0326278  29.2718972  55.1020273  51.2731439  28.4380518  55.0574892
  51.2018720  29.0587515  55.7464197  52.3855081  27.6622058  54.9535000
  53.0787358  27.7725279  55.5634553  55.8943176  25.5284122  52.7076936
  56.2860869  24.3567579  52.7625403  56.6991216  26.5651697  52.8475913
  56.4524223  27.3870371  52.7820744  58.1118783  26.3933549  53.1310135
  58.4798994  25.7993297  52.4587669  58.8418437  27.7295124  53.0888154
  58.2532302  28.4239084  53.4226677  59.6362817  27.6742060  53.6421873
  59.2630250  28.1026904  51.7035492  59.7410263  27.3582184  51.3059135
  58.4747347  28.3102294  51.1776263  60.1673359  29.3035366  51.6833179
  61.2658574  29.1894547  51.0951226  59.7771690  30.3529331  52.2550432
  58.3323009  25.7823197  54.5082008  57.5334203  25.9854767  55.4166912
  59.4342931  25.0487207  54.6837623  60.3823320  24.5945169  53.6523356
  61.0133681  25.2960139  53.4260938  59.9144624  24.2999252  52.8549199
  61.0941742  23.4114270  54.3446621  61.9913245  23.2859317  53.9977309
  60.5858411  22.5902742  54.2539947  61.1434452  23.8458384  55.7875038
  61.8878309  24.4480369  55.9442864  61.2069085  23.0798986  56.3789957
  59.8085306  24.5842703  56.0236956  59.1411606  23.9674700  56.3626108
  59.9704896  25.7397771  57.0032783  60.5579819  26.7876652  56.6911929
  59.4024076  25.5551186  58.1864343  58.8633019  24.9091521  58.3636134
  59.6418968  26.4399297  59.3170996  59.8206957  27.3359894  58.9935290
  58.4247501  26.5007314  60.2352620  57.6414146  26.6861441  59.6959647
  58.3290257  25.6415946  60.6761200  58.5005619  27.5697384  61.3213222
  59.3698420  27.5498308  61.7516673  58.3210001  28.9441964  60.7119220
  58.5492339  29.6152328  61.3742523  58.9048656  29.0272766  59.9415501
  57.3971601  29.0498429  60.4387108  57.4361623  27.2981307  62.3635145
  57.3464756  28.0781130  62.9344155  56.5951364  27.1176694  61.9162281
  57.7007962  26.5299276  62.8937587  60.8503803  25.9175157  60.0887161
  60.8332773  24.7913527  60.5924448  61.8654678  26.7510231  60.2219667
  61.8710189  27.5500639  59.9040975  63.0879240  26.3981154  60.9269398
  63.1400472  25.4317031  60.9914960  64.2995826  26.9226010  60.1727883
  65.1035073  26.4758687  60.4802299  64.1528933  26.6714364  58.6746720
  64.9292004  27.0118834  58.2034481  64.0730925  25.7199053  58.5042332
  63.3600821  27.1186414  58.3393869  64.3761569  28.3252721  60.3856924
  63.7724283  28.7158659  59.9514479  63.0896669  26.9872958  62.3258198
  62.2618162  27.8343859  62.6791167  64.0739277  26.5697894  63.1167112
  64.6775509  25.9958645  62.9035960  64.1774983  27.1026319  64.4688673
  63.3236432  27.0225218  64.9230037  65.1699052  26.2801350  65.2912598
  64.8838164  25.3536015  65.2867919  66.0485664  26.3586597  64.8854983
  65.2951668  26.7203367  66.7591794  65.9950420  26.2000621  67.1849563
  65.5203279  27.6637640  66.7866998  64.0093374  26.5206423  67.5590943
  63.3556345  25.4874062  67.4570125  63.6282209  27.5312848  68.3241231
  64.0976427  28.2507238  68.3517412  62.9104896  27.4678330  68.7946255
  64.5440893  28.5822374  64.4342628  64.1137814  29.3356002  65.3106170
  65.2738922  29.0332755  63.4032854  65.6191812  28.5458798  62.7855492
  65.5306497  30.4608654  63.2776645  65.9765445  30.7577852  64.0857428
  66.4663167  30.7628670  62.1043001  66.3294885  30.0997620  61.4088773
  66.2693682  31.6484605  61.7602283  67.9491643  30.7273299  62.5123603
  68.3008217  30.0901478  63.5411057  68.7595089  31.3513032  61.8015945
  64.2275340  31.2210076  63.1012178  64.0533371  32.2936205  63.6860578
  63.2929902  30.6685224  62.3036478  63.3921283  29.9366507  61.8616733
  61.9915206  31.3054804  62.1286042  62.1280476  32.1948022  61.7655282
  61.1419466  30.5157494  61.1359149  61.1144642  29.5868820  61.4163932
  60.2462873  30.8859594  61.1254298  61.6700976  30.5567198  59.7393996
  61.4883192  29.5268443  58.8420663  62.0561963  29.8436984  57.6929292
  62.0799514  29.3098219  56.9309104  62.5837648  31.0479745  57.8114258
  63.0049176  31.4708870  57.1919798  62.3524053  31.5159584  59.0786104
  62.6168361  32.3391284  59.4201197  61.2684431  31.4267508  63.4626408
  60.7664443  32.4963503  63.8132633  61.2633585  30.3402396  64.2412372
  61.6077033  29.5820915  64.0248690  60.6516088  30.3504981  65.5716022
  59.7094635  30.5589924  65.4718304  60.7929287  28.9606492  66.2180926
  61.7353025  28.7557582  66.3310539  60.1417403  28.9490373  67.5953754
  60.0225571  28.0295523  67.8806416  60.7152291  29.4180339  68.2196540
  59.2802395  29.3917654  67.5406035  60.1848951  27.8889962  65.3174211
  60.8334798  27.1783928  65.1893910  59.3869001  27.5355655  65.7404054
  59.9573737  28.2861188  64.4619694  61.2697072  31.4382365  66.4572418
  60.5635474  32.1639101  67.1769433  62.5941221  31.5355693  66.4578138
  63.1289625  31.0394579  66.0021064  63.2475953  32.5457301  67.2803319
  62.9995962  32.4187838  68.2100195  64.7703452  32.3973729  67.1778665
  65.0310876  32.4276190  66.2439739  65.1948749  33.1220284  67.6633837
  65.2641894  31.0737434  67.7686920  64.5393934  30.4811632  68.5872953
  66.3610219  30.6256946  67.4145315  62.8159779  33.9276992  66.8513438
  62.5553149  34.8051480  67.6893410  62.7250525  34.1303462  65.5432258
  62.8908287  33.5332762  64.9471154  62.3257913  35.4131148  64.9801208
  62.8791164  36.1207641  65.3445449  62.5308901  35.3483943  63.4548432
  62.2158818  34.4817713  63.1550443  61.7389468  36.4017768  62.7482400
  62.0336873  36.4519589  61.8249157  60.7989750  36.1670028  62.7830282
  61.8833720  37.2539837  63.1876906  64.0259829  35.4959497  63.1116584
  64.2781260  36.4288920  63.1990456  64.5445356  34.9532339  63.7256386
  64.3674557  35.0413538  61.6648301  65.2226877  35.4197726  61.4085598
  64.4137934  34.0724736  61.6413782  63.6734896  35.3543195  61.0638131
  60.8954178  35.7638528  65.3591411  60.5470810  36.9433154  65.4691933
  60.0542976  34.7675400  65.5848038  60.2454903  33.9354460  65.4811360
  58.6906389  35.0262890  66.0433740  58.3452410  35.8149024  65.5959164
  57.7920958  33.8375913  65.6573663  58.2309056  33.0127376  65.9181026
  56.9431875  33.9227983  66.1195519  57.5098110  33.7739911  64.1479623
  58.3447252  33.9539764  63.6875662  57.0372081  32.4149586  63.6966320
  56.8355403  32.4491292  62.7489066  57.7377804  31.7658508  63.8627389
  56.2402734  32.1757859  64.1958920  56.4685960  34.8115366  63.7780694
  55.6984878  34.3634439  63.3951657  56.2056367  35.2948368  64.5775363
  56.8488711  35.4251893  63.1318618  58.6098248  35.2983466  67.5401799
  57.5136887  35.5138282  68.0534725  59.7349932  35.3531661  68.2420467
  60.5226703  35.3016143  67.9000112  59.7240507  35.5080107  69.6755746
  59.3101647  34.7237265  70.0696529  60.6397120  35.5723785  69.9890632
  58.9730768  36.7318880  70.1818498  58.2002591  36.6429007  71.1306570
  59.2133164  37.9051521  69.5924677  60.3120760  38.2327165  68.6617663
  60.0916277  37.9565362  67.7586683  61.1389044  37.8124953  68.9457221
  60.4181021  39.7281190  68.7503382  60.6121025  40.1050017  67.8777201
  61.1086557  39.9809750  69.3819017  59.0870178  40.2432830  69.2321531
  58.4913202  40.4193849  68.4877429  59.1974551  41.0453012  69.7660438
  58.5207544  39.1103803  70.0998687  58.7726771  39.2678708  71.0225651
  57.0039138  39.0143025  69.9983423  56.3029610  39.4439453  70.9091449
  56.4720267  38.4340821  68.9297163  56.9156063  38.1098122  68.2682882
  55.0278505  38.3089960  68.8118072  54.5955775  39.1489737  69.0309225
  54.6889111  37.9722917  67.3673834  55.1366890  37.1505230  67.1108779
  53.7285170  37.8698416  67.2730425  55.1586487  39.1016792  66.4389931
  56.1057715  39.2325467  66.6027553  54.9105941  38.7181185  65.0162583
  55.5778773  39.1415290  64.4539748  54.9718294  37.7542124  64.9337951
  54.0235623  39.0167053  64.7591465  54.4605322  40.4180978  66.7119354
  54.6427498  41.0297551  65.9810743  53.5063428  40.2615362  66.7823139
  54.7968774  40.7878860  67.5439316  54.4796090  37.2795633  69.7922666
  53.4272225  37.4887092  70.4035788  55.1872091  36.1794346  69.9888982
  55.9104333  35.9717915  69.5721211  54.7491901  35.2087017  70.9803730
  53.8460923  34.9263160  70.7666406  55.6550120  33.9854506  70.9339594
  55.6425980  33.6087805  70.0400015  56.5590935  34.2450794  71.1726947
  55.1860334  33.0230743  71.8537077  54.5432407  32.5969340  71.5211315
  54.7204671  35.8161111  72.3761655  53.7485669  35.6414086  73.1182457
  55.7730767  36.5561080  72.7504698  56.4710470  36.7015252  72.2709573
  55.7949174  37.1919777  74.0647497  55.7095774  36.4892295  74.7276094
  57.1182467  37.9235803  74.3024582  57.1544385  38.2192010  75.2262594
  57.8528603  37.3158673  74.1208689  57.1681517  38.6891952  73.7090905
  54.6510441  38.1793510  74.2205211  53.9988363  38.2147577  75.2668444
  54.3964734  38.9968103  73.1970979  54.7992163  38.9848765  72.4380816
  53.3563155  40.0116317  73.3268174  53.5604358  40.5576888  74.1026366
  53.3389784  40.9196165  72.0972890  54.2449035  41.2026676  71.8964462
  52.9698508  40.4296760  71.3444809  52.4872864  42.1639804  72.3194900
  51.5801925  41.8916818  72.5299254  52.8609742  42.6727360  73.0567676
  52.4317586  43.0736656  71.1037303  53.3406060  43.0812498  70.2572192
  51.3503917  43.8458081  71.0037135  50.7386540  43.8077818  71.6064539
  51.2648441  44.3807683  70.3362038  51.9830802  39.3787213  73.5284563
  51.2138432  39.8116764  74.3889668  51.6745478  38.3251021  72.7813583
  52.2204406  37.9290633  72.2480795  50.3364331  37.7411486  72.8111608
  49.7008316  38.4392136  73.0340552  49.9923308  37.1768316  71.4331808
  49.0683329  36.8869631  71.3831195  50.1765791  38.2682943  70.3623981
  50.4666631  37.8687888  69.5276648  49.3381397  38.7321170  70.2146520
  50.8439681  38.9094185  70.6537069  50.8448485  36.0414355  71.1887012
  51.6509936  36.2647656  71.2690671  50.1848987  36.6308211  73.8386895
  49.0539674  36.2739991  74.1863351  51.2760758  36.0706306  74.3328080
  52.0779458  36.3401404  74.1777272  51.1841237  34.9177699  75.2017747
  51.9901764  34.8737392  75.7407953  50.4196711  35.0340113  75.7879123
  51.0269257  33.5767100  74.5015454  50.9357804  32.5528855  75.1815624
  51.0323910  33.5410189  73.1790825  51.1615677  34.2328156  72.6842686
  50.8171152  32.3142036  72.4237795  50.4256185  31.6516447  73.0143970
  49.8828170  32.5407957  71.2395849  50.2450396  33.2356299  70.6674965
  49.7740267  31.2934559  70.3876610  48.9552065  31.3357029  69.8695165
  50.5392744  31.2480775  69.7935982  49.7583092  30.5154666  70.9670613
  48.5282649  32.9954371  71.7614659  48.0061496  32.2168531  72.0118086
  48.6595916  33.5680225  72.5334977  47.7674448  33.7548436  70.7445556
  47.1182088  34.3197531  71.1932302  48.3839555  34.3013644  70.2334483
  47.3136613  33.1308210  70.1582057  52.1666907  31.8042665  71.9529535
  52.8424743  32.4494478  71.1431192  52.5574248  30.6457332  72.4760477
  52.1524070  30.2421266  73.1173100  53.7399563  29.9380971  71.9949539
  54.5352713  30.4618373  72.1747909  53.8363770  28.5945803  72.7228960
  54.1821312  27.9269481  72.1101153  54.4338551  28.6883955  73.4812545
  52.9521623  28.3371255  73.0287317  53.6832104  29.7194304  70.4820029
  52.6166687  29.4960781  69.8969632  54.8561653  29.7658878  69.8406212
  55.6214756  29.8821928  70.2170549  54.9120692  29.6130484  68.3849921
  54.3432828  30.2892212  67.9851655  56.3415916  29.8451027  67.8685259
  56.9188596  29.2546011  68.3769504  56.4664655  29.5017553  66.3494156
  57.2345214  29.9670158  65.9826787  56.5815023  28.5446035  66.2494661
  55.6583163  29.7868256  65.8935607  56.7965682  31.3092185  68.0829536
  57.7643437  31.3501009  68.0295382  56.4044129  31.8664727  67.3926037
  56.5004356  31.6073053  68.9567206  54.3687533  28.2385818  67.9679905
  53.5594602  28.1251207  67.0418629  54.7746211  27.1736295  68.6698124
  55.3100539  27.1884287  69.3416559  54.2829305  25.8521320  68.2877120
  54.4519271  25.7154765  67.3427033  55.0453102  24.7759624  69.0475294
  55.1128039  25.0330665  69.9804769  54.5704920  23.9344316  68.9686720
  56.4606489  24.5830176  68.4969973  56.9097349  25.4427290  68.5102244
  57.1554105  23.5636133  69.3814521  58.0912568  23.5142841  69.1305591
  57.0753510  23.8419140  70.3065408  56.7339273  22.6994485  69.2577385
  56.5274006  24.1499474  67.0300946  57.4257264  24.3021961  66.6965002
  56.3079501  23.2071567  66.9690931  55.8914591  24.6717664  66.5166587
  52.7724550  25.7148443  68.4799070  52.1298560  24.9671264  67.7285686
  52.1819802  26.4497116  69.4448359  52.6024553  26.9214799  70.0287026
  50.7255784  26.5023765  69.5765406  50.4158395  25.5858765  69.6454076
  50.3080523  27.2670285  70.8267827  50.8713991  28.0510312  70.9189886
  49.3792705  27.5337366  70.7377146  50.4365498  26.4565779  72.0810379
  51.0776027  25.3907618  72.0369911  49.8928350  26.9091711  73.1103710
  50.0854459  27.1886792  68.3793990  49.0573557  26.7395868  67.8628717
  50.6622264  28.3102058  67.9509407  51.3373163  28.6935650  68.3204990
  50.1525997  28.9875939  66.7623888  49.2151524  29.1878870  66.9127762
  50.8618258  30.3093397  66.5333507  50.8455704  30.8245801  67.3552230
  51.7793625  30.1351043  66.2701201  50.2003586  31.1446243  65.4326519
  50.7375271  31.9362754  65.2741605  50.1470955  30.6117430  64.6238550
  48.5303483  31.6841892  65.8508211  48.9822152  33.2545766  66.6190806
  48.2005213  33.8288290  66.6479224  49.3020602  33.0857351  67.5184542
  49.6811099  33.6738972  66.0925462  50.3083760  28.1146230  65.5425607
  49.4864743  28.2037755  64.6253631  51.3635488  27.2743935  65.5149256
  51.9808956  27.2384177  66.1115760  51.5340839  26.3298680  64.4243265
  51.5463093  26.8329701  63.5940701  52.8794474  25.5795373  64.5210120
  53.0120596  25.2893013  65.4370071  52.8548744  24.8102652  63.9304381
  54.2979984  26.6035279  64.0487353  54.3358282  26.6893907  62.8518717
  50.3872198  25.3305973  64.4011963  49.9315860  24.9419347  63.3328212
  49.9067459  24.8966897  65.5731404  50.1972148  25.1266837  66.3488965
  48.7933440  23.9498881  65.5801313  49.0040267  23.1936727  65.0089044
  48.5868257  23.3852680  66.9910829  47.7678299  23.7515985  67.3604038
  48.5232880  22.4189639  66.9392623  49.3414908  23.6383670  67.5459545
  47.5226404  24.5983471  65.0181534  46.7909335  23.9738420  64.2444018
  47.2767467  25.8690225  65.3308596  47.7509382  26.3486612  65.8641832
  46.1265611  26.5550553  64.7511448  45.3264932  26.0341364  64.9179408
  45.9455742  27.9164781  65.4236190  46.7430016  28.4505346  65.2836825
  45.1756299  28.3629670  65.0385483  45.7382968  27.7466581  66.8141413
  46.3232688  27.2333794  67.1308205  46.2718403  26.6948899  63.2311424
  45.3342374  26.4221246  62.4763908  47.4530451  27.1022946  62.7518193
  48.1325055  27.3364079  63.2247775  47.6458851  27.1712775  61.3016024
  46.9686104  27.7593863  60.9334773  49.0191027  27.7468825  60.9830143
  49.0235583  28.6804623  61.2451857  49.6794538  27.2555440  61.4961156
  49.4451718  27.6835375  59.5166878  49.5252333  26.7580098  59.2379629
  48.3703243  28.3147043  58.5951471  48.6325577  28.1861789  57.6701083
  47.5184747  27.8816057  58.7614415  48.3030102  29.2626513  58.7917083
  50.8328235  28.3394848  59.3421683  50.9413989  28.6087720  58.4164957
  50.8915955  29.1148752  59.9216074  51.5184150  27.6953945  59.5807831
  47.4890630  25.7944147  60.6398830  46.9025305  25.6774192  59.5576327
  48.0226127  24.7454864  61.2552782  48.5275401  24.7799160  61.9501882
  47.7594848  23.3967221  60.7477001  48.2000675  23.2916857  59.8895776
  48.3421083  22.3661042  61.7157091  49.3002607  22.3123629  61.5694296
  48.1616328  22.6587071  62.6223299  47.7701619  20.9508204  61.5617669
  46.8036064  20.9905289  61.6397715  48.0197783  20.6012284  60.6929452
  48.2889329  19.9864185  62.6244717  48.0697109  20.3338903  63.5031264
  47.8740009  19.1199755  62.4961873  49.7953023  19.8044154  62.5507401
  50.0242710  19.3516113  61.7238939  50.2255111  20.6728996  62.5837332
  50.3006619  18.9832089  63.6950305  50.8576267  19.4658962  64.1936368
  49.6198625  18.7121810  64.1998435  50.7335512  18.2680187  63.3881333
  46.2633071  23.1556559  60.5148367  45.8533934  22.6613863  59.4526102
  45.4263681  23.5196171  61.4783145  45.6530996  23.8926857  62.2187405
  43.9887980  23.2909660  61.3201975  43.8476686  22.3586463  61.0916664
  43.2613421  23.5607408  62.6411083  43.6942961  23.0530466  63.3448848
  43.3136217  24.5100446  62.8364393  41.7582241  23.1643987  62.6255471
  41.2948569  23.7164776  61.9770429  41.6838319  22.2295094  62.3782136
  41.0617229  23.3467562  63.9825415  41.6381737  22.9519250  65.0175289
  39.9305292  23.8930287  64.0203835  43.4056689  24.1325284  60.1912545
  42.5332215  23.6637751  59.4472942  43.8775405  25.3741963  60.0323332
  44.4656427  25.7482227  60.5369619  43.3976016  26.2081721  58.9380201
  42.4306955  26.2676673  58.9818143  43.9480194  27.6388708  59.0750834
  44.9031218  27.5852912  59.2380734  43.7790582  28.1134998  58.2461169
  43.3304730  28.4644144  60.2135171  43.2475998  27.8787702  60.9827842
  44.2207596  29.6248018  60.6459936  44.1963636  29.6980985  61.6132363
  45.1285972  29.4536814  60.3504640  43.8904894  30.4434325  60.2439795
  41.9116632  28.9678704  59.8309512  41.2621203  28.5688584  60.4312215
  41.8865765  29.9340783  59.9120075  41.7195976  28.7069261  58.9165269
  43.7713931  25.6002213  57.5944720  42.9831431  25.6600310  56.6445242
  44.9653187  24.9948926  57.4974515  45.5411132  24.9200311  58.1313753
  45.3619458  24.3980003  56.2270623  45.2419396  25.0611327  55.5285446
  46.8348873  24.0064484  56.2516460  46.9803123  23.4338373  57.0206746
  47.0297353  23.5203506  55.4347144  47.8446809  25.1504233  56.3459618
  47.6251517  25.6849014  57.1246287  49.2626495  24.6033132  56.5189289
  49.8754412  25.1401015  55.9915906  49.5060913  24.6474491  57.4562128
  49.2851009  23.6821678  56.2143029  47.7709296  26.0572727  55.1413765
  48.2005289  26.9012809  55.3539316  48.2257543  25.6332638  54.3974457
  46.8395797  26.2092534  54.9159120  44.5050089  23.1845947  55.9022792
  44.1295955  22.9829339  54.7473824  44.1710547  22.3855245  56.9192774
  44.3404090  22.5588298  57.7450700  43.4750048  21.1185971  56.7314278
  43.8261656  20.6716669  55.9455159  43.7254127  20.2225736  57.9422765
  43.6321180  20.7476365  58.7518826  43.0805005  19.4978095  57.9416723
  45.1330481  19.6104183  57.9274237  45.1795179  18.9593645  57.2097618
  45.7768090  20.3191674  57.7748737  45.5281640  18.9002189  59.2198011
  45.0481425  19.2185168  60.3069348  46.4485094  17.9766819  59.1014885
  46.7883094  17.8054375  58.3296930  46.7129593  17.5422282  59.7941653
  41.9905650  21.3251030  56.5067173  41.3864557  20.6281778  55.6887483
  41.4020933  22.3096079  57.1816426  41.8276406  22.8819210  57.6622862
  39.9627994  22.5155715  57.1735159  39.5490907  21.7403933  56.7632541
  39.4401793  22.6409187  58.6132039  39.8696232  23.3974725  59.0426108
  38.4786313  22.7738387  58.5906723  39.7219096  21.4158506  59.4359050
  40.0356325  20.3588327  58.8962458  39.5837262  21.5409424  60.7535299
  39.7341565  20.8672260  61.2668386  39.3441090  22.2933302  61.0917994
  39.5136357  23.7370058  56.3964090  38.3360838  23.8179697  56.0534403
  40.4025264  24.6613881  56.0678825  41.2539697  24.5896957  56.1670310
  39.9475511  25.9065694  55.4909163  40.6909048  26.3671607  55.0725074
  39.2678022  25.7307594  54.8209057  39.3606984  26.7946723  56.5607772
  39.3571998  26.4634682  57.7543213  38.8456828  27.9519935  56.1255387
  38.8016215  28.1727523  55.2956055  38.3027614  28.9665086  57.0234025
  38.7000851  28.7996227  57.8923916  38.6876281  30.3690257  56.5596391
  38.3661798  30.4921487  55.6523130  38.2688491  31.0139593  57.1503936
  40.1321209  30.6435911  56.5577783  40.5330427  30.3087005  57.3758607
  40.5474454  30.2232486  55.7886621  40.3917750  32.4155682  56.4644080
  41.8954818  32.3553086  55.5263470  42.3284464  33.2230823  55.5671440
  42.4774837  31.6781311  55.9051417  41.6851518  32.1333668  54.6059052
  36.7823731  28.9419720  57.1460709  36.2426056  29.6728929  57.9808683
  36.0938785  28.1860954  56.2932040  36.4536705  27.7693659  55.6334683
  34.6477684  27.9747613  56.3782766  34.3860146  27.4456027  55.6092264
  34.2749697  27.1988207  57.6398277  35.0836620  26.9689645  58.1231982
  33.7012890  27.7505536  58.1950423  33.5311926  25.9113498  57.3229313
  34.1404665  24.9000337  56.9694627  32.2053154  25.9499617  57.4268719
  31.7403258  25.2462905  57.2581696  31.8134565  26.6771222  57.6632197
  33.8656770  29.2819523  56.2924069  32.8648918  29.4827096  56.9840430
  34.2761226  30.1473063  55.3874423  34.9647728  30.0306576  54.8858260
  33.5882117  31.3945141  55.1568832  33.7405240  31.6668454  54.2383400
  32.6382606  31.2537276  55.2908870  34.0136596  32.5347813  56.0502375
  33.6536938  33.6810874  55.7702930  34.7707062  32.2651169  57.1103731
  35.0379165  31.4786195  57.3335803  35.2163380  33.3242711  57.9986983
  34.5137002  33.9873425  58.0902321  35.5053366  32.7612970  59.3933344
  36.2389716  32.1290935  59.3391549  35.7362534  33.4879795  59.9917406
  34.2892758  32.0393246  59.9593539  33.4825168  32.4893812  59.6612887
  34.2901915  31.1200992  59.6482837  34.2924361  32.0265338  61.4426059
  33.4532255  31.6640582  61.7677103  35.0331294  31.4886149  61.7624084
  34.4446374  33.3849896  61.9583293  34.5445103  34.0210773  61.3878068
  34.4399438  33.7046202  63.2462704  34.2740348  32.7543504  64.1535165
  34.1703624  31.9366772  63.9064344  34.2703730  32.9537378  64.9904969
  34.6075880  34.9710710  63.6173335  34.7179667  35.5822101  63.0228904
  34.6040603  35.1777470  64.4526236  36.4386588  34.0293398  57.4194471
  37.0504616  33.5920604  56.4402489  36.7845775  35.1514593  58.0365645
  36.3979193  35.4522284  58.7431552  37.8728396  35.9844202  57.5556334
  38.3512157  35.5091958  56.8589498  37.3544404  37.3134758  56.9767917
  38.1046489  37.8760374  56.7300338  36.5356769  37.0855341  55.7231072
  36.6464794  37.8330873  55.1146642  36.8261208  36.2725616  55.2802617
  35.5966189  37.0014916  55.9512038  36.5579393  37.9750420  57.9678190
  37.0552361  38.3408769  58.5375959  38.8474441  36.2695777  58.6956827
  38.4919627  36.2176780  59.8730022  40.0771195  36.6155468  58.3256357
  40.3432706  36.6351295  57.5082893  41.1009449  36.9986503  59.2920477
  40.6920041  37.1253264  60.1619820  42.1989988  35.9250213  59.4185679
  42.6070385  35.7743627  58.5516379  43.2422194  36.4075193  60.3820539
  43.7634394  35.6492633  60.6892048  43.8175365  37.0444243  59.9320349
  42.8034097  36.8335983  61.1349979  41.5916554  34.5916005  59.8928601
  41.3489962  34.6789683  60.8277426  40.8020293  34.4069365  59.3605361
  42.5155399  33.3955986  59.7701496  42.0055665  32.5855730  59.9249256
  42.8967738  33.3811879  58.8780610  43.2222870  33.4730357  60.4298722
  41.6974541  38.3277314  58.8514273  42.2809234  38.4204922  57.7654416
  41.5665290  39.3557595  59.6911491  41.2155539  39.3021953  60.4747443
  42.0312288  40.6975969  59.3234777  41.7285844  41.3234289  59.9996247
  43.5552340  40.7593715  59.2764748  43.8744981  40.0016637  58.7618504
  43.8122558  41.5874050  58.8420772  44.2629106  40.7191114  60.6332588
  43.9868105  39.9260437  61.1187094  45.8020229  40.6091606  60.4681577
  46.2257223  40.8039891  61.3193725  46.0252306  39.7074590  60.1875696
  46.0944136  41.2465514  59.7990190  43.8624123  41.9449154  61.4584198
  44.6165487  42.2192917  62.0032417  43.6109017  42.6626088  60.8557702
  43.1117362  41.7122288  62.0259957  41.4404667  41.1146256  57.9784170
  42.1233625  41.6594783  57.1104229  40.1656931  40.7956551  57.7868830
  39.6717656  40.3817572  58.3566041  39.4940113  41.1360080  56.5543959
  38.5415932  41.0018710  56.6778309  39.6579145  42.0730952  56.3651416
  39.9069170  40.3502053  55.3356388  39.5172065  40.7296833  54.2267776
  40.6731816  39.2716380  55.4819953  40.9738407  38.9901368  56.2371894
  41.0673480  38.4701464  54.3360852  40.7163634  38.8874667  53.5342700
  42.5918703  38.3807728  54.2100445  42.9441184  39.2584762  53.9950071
  42.9627834  38.0713180  55.0514185  42.9556748  37.4649474  53.1745199
  43.5833542  37.7843460  52.7167020  40.4781114  37.0711228  54.4319142
  40.3684738  36.5003379  55.5258009  40.1125589  36.5296169  53.2771953
  40.1729940  36.9330750  52.5204092  39.5703994  35.1856055  53.1785522
  39.1574899  34.9465220  54.0233822  38.4700876  35.1146530  52.1180256
  38.2004377  34.1904749  52.0031484  37.7132157  35.6465679  52.4111595
  38.8157156  35.4650933  51.2818474  40.6522636  34.1865021  52.8489640
  40.3562416  33.0075426  52.6994463  41.9000885  34.6515529  52.7619261
  42.1055597  35.4730299  52.9127973  43.0582248  33.8512442  52.4058189
  42.8208785  32.9105335  52.3973285  43.6018896  34.2199819  51.0158523
  43.8347406  35.1615861  51.0467702  44.3986829  33.6860092  50.8743760
  42.7588580  34.0440311  49.7631688  41.9065678  34.5005876  49.8468452
  43.5211925  34.6483178  48.5862683  42.8984481  35.1369555  48.0242749
  44.2015349  35.2507961  48.9261230  43.9356343  33.9342407  48.0780146
  42.4332808  32.5680247  49.5432268  41.5031538  32.4847797  49.2820774
  43.0061446  32.2194369  48.8416210  42.5893802  32.0829219  50.3686056
  44.1414860  34.1019800  53.4474718  44.1588717  35.1430045  54.1088905
  45.0694930  33.1570223  53.5805283  45.0681703  32.3991086  53.1744765
  46.1962568  33.3805723  54.4764607  45.9117083  33.8400149  55.2813792
  46.7874766  32.0575286  54.9260854  47.1131026  31.5699049  54.1531742
  47.5158577  32.2239182  55.5451336  45.7181904  31.1899911  55.6439667
  44.9596627  31.1353758  55.0430483  46.2321066  29.8082460  55.9077009
  45.6211419  29.3530973  56.5067933  46.2910252  29.3274896  55.0663425
  47.1108722  29.8701088  56.3139495  45.2119557  31.8042258  56.9177344
  44.4123720  31.3328746  57.2000977  45.8976854  31.7293129  57.5992003
  45.0056017  32.7382534  56.7580987  47.2222382  34.2682886  53.7735297
  47.6103125  33.9974672  52.6377163  47.6045774  35.3631615  54.4310471
  47.3453350  35.5603199  55.2274992  48.5167303  36.3470656  53.8486978
  48.4436531  36.3082406  52.8827489  48.1584562  37.7611862  54.3261406
  48.2695208  37.8034422  55.2885985  48.7518070  38.3963003  53.8958594
  46.7137735  38.1726680  54.0004636  46.1327647  37.4087889  54.1391625
  46.4546297  38.8985676  54.5897591  46.5239505  38.6491984  52.5639626
  45.3630150  38.6571531  52.0991762  47.5285604  39.0226060  51.9027427
  49.9547188  36.0319564  54.2403562  50.2349304  35.7921285  55.4232771
  50.8732004  36.0811484  53.2545577  50.6974134  36.2921078  52.4393651
  52.2808860  35.7710956  53.5070681  52.3853130  35.6689976  54.4665450
  52.6617060  34.4542093  52.8176744  53.4760923  34.1150611  53.2195045
  51.9405136  33.8170969  52.9416836  52.9063735  34.5989026  51.3040236
  52.4782712  35.5877268  50.6555322  53.5361373  33.6740191  50.7462915
  53.2478650  36.8827892  53.0931852  54.4456817  36.6205160  52.9138980
  52.7982577  38.1290964  52.9864955  51.9799568  38.3702826  53.0943046
  53.7409232  39.2033135  52.6599245  54.6184344  38.8097139  52.5361690
  53.3446015  39.8722874  51.3316723  52.4201912  40.1624375  51.3747949
  53.9236887  40.6324644  51.1638425  53.4959502  38.8647926  50.1703571
  54.1961871  38.2347783  50.4045693  52.6525277  38.3982611  50.0606402
  53.8592660  39.4560821  48.8229454  53.8280091  40.7078778  48.7044734
  54.1701053  38.6491546  47.8812607  53.9123273  40.2172481  53.7870475
  54.3217816  41.3592018  53.5387050  53.6987177  39.7838101  55.0377898
  53.3011380  39.0433378  55.2209733  54.1189690  40.5239322  56.2226692
  54.5189390  41.3582374  55.9331387  52.9366977  40.8171673  57.1377592
  52.5200617  39.9761471  57.3839981  53.2641875  41.2695272  57.9299119
  51.8698181  41.6907182  56.5225051  51.9953725  43.0706146  56.5393344
  52.7531359  43.4560882  56.9162837  51.0072151  43.8878876  56.0023848
  51.1024339  44.8127421  56.0270716  49.9005489  43.3324804  55.4424182
  49.2350776  43.8751819  55.0864939  49.7687092  41.9483778  55.4057695
  49.0205509  41.5632854  55.0111116  50.7482689  41.1447626  55.9559683
  50.6456766  40.2203406  55.9408442  55.1692481  39.7223190  56.9918012
  54.8863106  38.6223383  57.4690252  56.3796385  40.2709662  57.1238255
  56.6324779  41.0037558  56.7516864  57.3834510  39.6238800  57.9462420
  57.3765877  38.6751017  57.7437633  58.7901162  40.1509008  57.6562694
  59.4510036  39.5773388  58.0763545  59.1151272  40.1319590  56.1828991
  60.0279908  39.8336105  56.0478991  58.5140593  39.5284023  55.7180789
  59.0167589  41.0228049  55.8101334  58.8863028  41.4844637  58.1868154
  59.0818345  41.4552366  59.0027383  57.0756277  39.8646371  59.4273291
  56.2969864  40.7514999  59.7880132  57.6731163  39.0792006  60.3119471
  58.3879480  37.8272141  60.0507568  59.2626642  37.9999031  59.6685435
  57.8755334  37.2527939  59.4606663  58.5121424  37.2164116  61.4165833
  59.3550960  36.7465569  61.5055481  57.7745375  36.6098620  61.5882532
  58.4647033  38.3501608  62.3886801  59.3473457  38.7306436  62.5209228
  58.0958235  38.0633704  63.2383506  57.5426252  39.3842218  61.7434415
  56.6374460  39.2256947  62.0541533  57.9349265  40.8275469  62.0726758
  57.2320737  41.5067192  62.8382325  59.0236076  41.3318596  61.4927386
  59.5413025  40.9080277  60.9521506  59.4176046  42.7219040  61.7662927
  59.5315547  42.8150530  62.7248044  60.7596880  43.0555929  61.1049201
  61.3703378  42.3158474  61.2481420  60.6143748  43.1871880  60.1546213
  61.4206573  44.3189198  61.6542685  61.7911689  45.3538475  60.8088273
  61.6337911  45.2798948  59.8953327  62.3933423  46.4978189  61.3097680
  62.6426955  47.1827192  60.7320383  62.6241794  46.6210813  62.6688837
  63.0264869  47.3892807  63.0043705  62.2576895  45.6042536  63.5228817
  62.4095442  45.6858852  64.4371034  61.6623583  44.4602542  63.0164470
  61.4210552  43.7757364  63.5976477  58.3513824  43.7006004  61.3122248
  58.0812646  44.6728783  62.0176511  57.7170938  43.4597691  60.1394592
  57.8936010  42.8084838  59.6074078  56.6343616  44.3406516  59.6811635
  57.0266911  45.2195670  59.5597210  56.0448955  43.8793470  58.3469218
  55.7077186  42.9753789  58.4463521  55.3224437  44.4772182  58.0977662
  57.0645546  43.8795536  57.2194494  58.0851924  44.6116139  57.3357385
  56.8244944  43.1450526  56.2340131  55.5053690  44.3889817  60.6909738
  54.8951774  45.4421962  60.9209529  55.1269944  43.2286018  61.2172867
  55.4710824  42.4621828  61.0326757  54.0430204  43.1987122  62.1903684
  53.2586895  43.6111457  61.7957450  53.6680434  41.7478273  62.5469275
  54.4580134  41.2778871  62.8573121  52.6004368  41.7585979  63.6481219
  52.1633066  40.8929445  63.6729310  53.0267394  41.9380015  64.5004730
  51.9503262  42.4512960  63.4503529  53.1138751  41.0200631  61.3076928
  52.2919085  40.5646133  61.5491765  52.9384620  41.6713485  60.6104909
  53.7705863  40.3753487  60.9994223  54.4348776  44.0039196  63.4252846
  53.6853199  44.8666338  63.8781912  55.6257057  43.7333581  63.9775986
  56.1703561  43.1276284  63.7019401  56.0976381  44.4866613  65.1394059
  55.5023425  44.3056852  65.8831180  57.5166238  44.0349050  65.5343046
  58.0496834  43.9843012  64.7253666  58.1380563  45.0318756  66.4879006
  58.9359123  44.6404889  66.8785108  58.3704498  45.8354423  65.9969272
  57.4983413  45.2437304  67.1850320  57.5018621  42.6674908  66.1775981
  58.3854426  42.4729408  66.5268969  56.8536745  42.6649861  66.8998526
  57.2572669  42.0069824  65.5108553  56.0599655  45.9849540  64.8527880
  55.5866032  46.7776441  65.6716820  56.5761027  46.3969134  63.6884209
  56.8626192  45.8766488  63.0662777  56.6963065  47.8208030  63.3774668
  57.1548849  48.2683706  64.1061074  57.5356968  48.0030653  62.1061060
  58.4590629  48.1417233  62.3702024  57.4599504  47.1957868  61.5735819
  57.1404762  49.1775964  61.2067566  56.2133429  49.0822998  60.9388400
  57.2615240  50.0099102  61.6910933  58.0081439  49.2212257  59.9432875
  58.6203304  49.9711126  60.0034809  58.5066443  48.3922626  59.8715751
  57.2107685  49.3798349  58.7264664  56.6882932  50.0615335  58.6818844
  57.2293894  48.5511267  57.6807050  56.4594346  48.8104101  56.6280266
  55.9551521  49.5063410  56.6249592  56.4653767  48.2811864  55.9497339
  58.0251171  47.4849696  57.6640188  58.5388950  47.3206407  58.3343779
  58.0265156  46.9602320  56.9822289  55.3294232  48.4729792  63.2297264
  55.1222697  49.6104812  63.6752671  54.3800926  47.7718906  62.6101659
  54.4653965  46.9694263  62.3134990  53.0743335  48.3759824  62.3948184
  53.2071823  49.3005498  62.1349179  52.3395369  47.6740767  61.2515772
  52.8124655  47.8466024  60.4226777  52.3211983  46.7208217  61.4299886
  50.8950240  48.1453923  61.0750607  50.3632650  47.7854689  61.8023430
  50.8826889  49.1144553  61.1031808  50.2308352  47.7183587  59.7726313
  49.0317517  47.9549335  59.5866200  50.9963383  47.1005548  58.8720085
  51.8277368  46.9586384  59.0406537  50.6588219  46.8442108  58.1244341
  52.2224039  48.3591631  63.6473542  51.3407773  49.2105991  63.7938679
  52.4320276  47.3934337  64.5378348  52.9884314  46.7468346  64.4240915
  51.7249783  47.3463257  65.8120565  50.9071019  47.8622314  65.7284238
  51.3403368  45.9047212  66.1416070  52.1503035  45.3848440  66.2607314
  50.8190482  45.9000635  66.9592973  50.3534503  45.1075239  64.8490802
  49.8961256  44.0860680  65.2807304  52.5317710  47.9545290  66.9651686
  52.1648938  47.7739616  68.1274949  53.6235206  48.6713778  66.6724630
  53.9546048  48.7429285  65.8820240  54.3607373  49.4065964  67.6885885
  53.8106002  49.4435639  68.4870668  55.6654568  48.6770538  68.0408848
  55.9527116  48.9506200  68.9261770  55.5084785  47.7203153  68.0240837
  56.6824251  48.9944988  67.1073903  56.9385030  49.7867227  67.2213264
  54.7113492  50.8427832  67.2939333  55.1728529  51.5995359  68.1586071
  54.5317891  51.2364663  66.0346328  54.3541006  50.7102179  65.3782706
  54.6288082  52.6410227  65.6692389  54.0774899  52.7898787  64.8854060
  54.2816680  53.1710514  66.4044016  56.0120737  53.1600996  65.3514392
  56.2634789  54.3650817  65.5102390  56.9251491  52.2979156  64.8972219
  56.7897109  51.4581876  64.7737784  58.2750883  52.7435617  64.5654124
  58.6669428  53.1593792  65.3494500  59.1530746  51.5458337  64.1618508
  58.7799497  51.1484635  63.3582709  60.5877155  51.9995391  63.8395639
  61.0878964  51.2442970  63.4930854  60.5552822  52.7070092  63.1770761
  61.0052072  52.3267983  64.6519764  59.1538034  50.4888432  65.2504129
  59.9314997  49.9207227  65.1388402  59.1852361  50.9268366  66.1156873
  58.3439068  49.9589275  65.1776751  58.2110829  53.7831433  63.4523759
  57.6037780  53.5530778  62.3956145  58.8684673  54.9228274  63.6753555
  59.3731853  55.0076482  64.5461225  58.9144839  56.0567446  62.7565583
  58.2283910  55.8612610  61.9325877  58.4660463  57.3435796  63.4683746
  58.5892133  58.1853614  62.7880282  57.0032487  57.2557459  63.8882429
  56.7127057  58.1787842  64.3891959  56.8713455  56.4153357  64.5702614
  56.3801056  57.1095034  63.0059058  59.2794216  57.5613601  64.6316726
  60.2024116  57.6173658  64.3713308  60.3233417  56.2392815  62.1811176
  61.3033519  55.6419358  62.6481915  60.4183586  57.0921020  61.1580486
  59.5925404  57.5841722  60.8491388  61.6992207  57.3329342  60.4676828
  62.5024495  56.9624119  61.1036842  61.7485860  56.5618694  59.1333785
  61.1576567  57.1055283  58.3970392  62.7829832  56.5162466  58.7915130
  61.2101915  55.1632555  59.2397387  62.0373077  54.1134771  59.5978812
  63.0856972  54.2984325  59.7780923  61.5368549  52.8293869  59.7277944
  62.1970839  52.0151177  59.9866542  60.1830214  52.5894767  59.5242194
  59.7864013  51.5916346  59.6436544  59.3449212  53.6286982  59.1693789
  58.2949539  53.4436959  58.9983061  59.8565519  54.9084080  59.0344791
  59.1961475  55.7202897  58.7664941  61.9267681  58.8278162  60.2347188
  62.8332277  59.4326775  60.8228562  61.2249160  59.4491787  59.4398905
  52.1792348  44.9152174  34.1185727  52.5766935  45.4307970  34.7250627
  52.7303199  44.2582236  33.8803117  51.9721442  45.4031360  33.4042297
  50.9442587  44.3387920  34.6954234  50.2132867  44.9606497  34.5573040
  50.6025968  43.0294924  33.9873635  49.8705039  42.6042196  34.4607524
  50.3362371  43.2312295  33.0767111  51.6886027  42.1374222  33.9492469
  51.6283046  41.6411352  33.2740216  51.0551977  44.1289615  36.2025109
  52.0278450  44.5607977  36.8555750  50.0308715  43.5042372  36.7605505
  49.3953637  43.1350924  36.3146234  49.8800956  43.3802491  38.1993638
  49.5401111  42.4974044  38.4133188  50.7430798  43.4979551  38.6262638
  48.9169613  44.4183363  38.7632584  48.5075071  45.3702227  38.0977716
  48.5330769  44.2209663  40.0233468  48.7863517  43.5642586  40.5152146
  47.6161470  45.1535127  40.6706218  47.8134466  46.0398546  40.3302794
  46.1493312  44.8256758  40.3806645  46.0804319  44.4637901  39.4832674
  45.8394796  44.1723948  41.0272284  45.2396465  46.0346640  40.4658421
  45.3210027  47.0480902  39.5201372  45.9391853  46.9824035  38.8280264
  44.4816165  48.1706551  39.5955609  44.5371229  48.8395388  38.9523264
  43.5642926  48.2774703  40.6424365  43.0023763  49.0152395  40.7004337
  43.4987390  47.2736257  41.5904812  42.8951621  47.3424143  42.2947596
  44.3259011  46.1671760  41.4995698  44.2680385  45.4999960  42.1440477
  47.8364228  45.1409514  42.1708983  47.7688301  44.0900950  42.8119468
  48.0815635  46.3156044  42.7261284  48.0802201  47.0635778  42.3010977
  48.3804122  46.4283548  44.1352333  48.0900114  45.6244883  44.5931000
  49.8886155  46.6261194  44.3432500  50.1982985  47.3030724  43.7218378
  50.0373465  46.9182609  45.2550578  50.7291620  45.3836149  44.1199002
  50.2388713  44.7515851  43.5718533  51.5609510  45.6263619  43.6825951
  51.0559052  44.7192261  45.4612221  51.4323907  45.3854261  46.0588451
  50.2400061  44.3575020  45.8399270  52.0196004  43.6276696  45.3424193
  52.4795072  43.5735159  44.6176779  52.2307808  42.7079405  46.2870252
  51.5406286  42.7317043  47.4197525  50.9500047  43.3438864  47.5503911
  51.6831446  42.1356463  48.0223727  53.1176184  41.7563999  46.0985484
  53.5654051  41.7244824  45.3646060  53.2517954  41.1663957  46.7100462
  47.6118487  47.5939921  44.7474930  47.2540479  48.5665782  44.0783369
  47.3980680  47.4998534  46.0485333  47.5001302  46.7830714  46.5131092
  46.9573881  48.6618234  46.8094163  46.1682778  49.0492692  46.3989571
  46.5682339  48.2719129  48.2268272  46.2353107  47.3606414  48.2252942
  47.3472952  48.3399392  48.8008288  45.4722619  49.1814158  48.7972198
  45.8669075  49.8026815  49.4297012  45.0505182  49.6698332  48.0727374
  44.4109293  48.3833227  49.5146420  44.6607561  47.4455032  49.5205742
  44.3199581  48.7088317  50.4235348  43.0853084  48.5148653  48.8290214
  42.7675055  49.4293034  48.8919916  43.1641715  48.2546466  47.8978002
  42.1243712  47.6244808  49.4972087  41.3159423  47.7254222  49.1395041
  42.3782606  46.7768557  49.4025355  42.0826848  47.8181498  50.3656760
  48.0912106  49.6801723  46.8001901  49.1143073  49.5014210  47.4605832
  47.9283515  50.7175008  46.0079929  47.1870835  50.9029745  45.6142783
  48.9900895  51.6642237  45.7125980  49.8294401  51.3797613  46.1061063
  49.1842309  51.7578044  44.1981685  49.4172775  50.8770824  43.8656568
  48.3502927  52.0519090  43.8017047  50.2587518  52.7079831  43.7364767
  49.9924387  53.6193564  43.9382144  51.0908444  52.4980681  44.1870025
  50.5203890  52.5703721  41.9581746  50.8943374  50.8335517  41.7812916
  51.4234047  50.7045170  40.9781560  51.3940963  50.5369352  42.5580906
  50.0641711  50.3367417  41.7124462  48.6148679  53.0147540  46.3037688
  47.5059148  53.5176424  46.0651977  49.5292068  53.5829274  47.0833766
  50.2831388  53.2196725  47.2806263  49.3346700  54.8896290  47.6821013
  48.3857715  55.0900356  47.6948194  49.8574455  54.9151637  49.1138826
  50.4149571  55.7010473  49.2326670  49.1052118  54.9487935  49.7245768
  50.3788862  54.1128228  49.2735530  50.0570418  55.9560194  46.8748116
  50.9577457  55.6642215  46.0997708  49.6769008  57.2008889  47.0963601
  49.0080110  57.4363217  47.5828475  50.4131349  58.3003044  46.4952820
  50.5411362  58.1081536  45.5526497  49.6420483  59.6068595  46.6193350
  49.3354335  59.7044429  47.5340354  50.2306415  60.3413548  46.3864815
  48.4585655  59.6768697  45.7364544  48.6017001  59.9226529  44.3808792
  49.4476176  60.0558115  44.0199728  47.4801327  59.9705742  43.5579283
  47.5792825  60.1234896  42.6467740  46.2240240  59.7911829  44.0927876
  45.4763371  59.8288436  43.5403937  46.0728072  59.5597246  45.4254832
  45.2223947  59.4396458  45.7832732  47.1906462  59.5046399  46.2503799
  47.0810923  59.3493568  47.1611483  51.7843086  58.4598858  47.1465988
  51.9569289  58.1755405  48.3289895  52.7897100  58.8864053  46.3843467
  52.7363659  59.3153033  44.9733542  52.3692813  60.2090102  44.8933296
  52.2170990  58.6943570  44.4388547  54.1728056  59.2867239  44.5842307
  54.3494515  59.9222171  43.8728837  54.4365971  58.3964702  44.3053464
  54.9453620  59.6859611  45.8357403  55.0573280  60.6481650  45.8820039
  55.8126081  59.2500349  45.8623213  54.0849152  59.2040570  47.0048642
  54.5113518  58.4232948  47.3908477  53.8743777  60.2806966  48.0549828
  53.1053383  61.2167975  47.8572975  54.5158590  60.1033362  49.1975177
  55.1402799  59.5223531  49.3117595  54.2193341  60.8839993  50.3808617
  53.3467574  61.2912271  50.2620582  54.2021305  59.9625521  51.5850977
  53.9741027  60.4748744  52.3764094  53.5449819  59.2630941  51.4429877
  55.4896875  59.3713590  51.7611474  55.6455403  59.2610394  52.5792143
  55.2107616  62.0174862  50.6485722  55.0858354  62.6884736  51.6695890
  56.1917693  62.2391988  49.7845407  56.2787030  61.8569806  49.0188881
  57.2376683  63.2031368  50.1111239  57.7073745  62.9036092  50.9049333
  57.8651938  63.2512490  49.3732797  56.7083831  64.6024786  50.3740282
  57.2010084  65.3135186  51.2605836  55.7175042  65.0309941  49.5981368
  55.3331389  64.5749261  48.9783455  55.2105914  66.3829994  49.7841209
  55.9644639  66.9921490  49.7539204  54.2615400  66.7696493  48.6582770
  53.5653847  66.0962946  48.6043323  53.8733691  67.6320608  48.8723187
  54.8823324  66.8856951  47.2757348  55.4531997  67.6697287  47.2349691
  55.3999701  66.0891004  47.0777091  53.7708373  67.0274392  46.2275000
  53.3698068  66.1582374  46.0730404  53.1029500  67.6482835  46.5585589
  54.2760996  67.5535149  44.8893795  53.5321315  67.9252220  44.3897884
  54.9459874  68.2377135  45.0459762  54.8917118  66.4784781  44.0770737
  54.7024182  66.6015645  43.2167490  55.7753242  66.4847110  44.1834894
  54.5752915  65.6860969  44.3315637  54.5107222  66.5356485  51.1239670
  54.5810230  67.6109964  51.7340740  53.8286145  65.4914617  51.5983245
  53.7350250  64.7371696  51.1958391  53.1697009  65.5774430  52.9012374
  52.7706909  66.4580114  52.9773702  52.0423290  64.5315091  52.9990889
  52.4483174  63.6545125  52.9176135  51.3291774  64.6320171  54.3224766
  50.5422617  64.0648781  54.3016647  51.9283555  64.3410490  55.0273944
  51.0677529  65.5543677  54.4701810  51.0479335  64.7131508  51.9073701
  50.1557778  64.6145581  52.2740397  51.1537382  65.5998660  51.5282521
  51.2019501  64.0415196  51.2254614  54.1768540  65.4250940  54.0445525
  54.0319345  66.0675102  55.0957846  55.1815507  64.5539649  53.8855919
  55.2803719  64.0391630  53.2034934  56.2255283  64.4076653  54.8981808
  55.8230916  63.9980282  55.6804749  57.3521783  63.4849864  54.3822608
  57.6606207  63.8177290  53.5247984  58.0806803  63.4924239  55.0222908
  56.9068779  62.0177075  54.1880905  56.7247991  61.6285284  55.0583267
  56.1043013  62.0037512  53.6442294  57.9640650  61.1391570  53.4913347
  59.1317854  61.1495225  53.9173353  57.6064762  60.4240962  52.5259761
  56.8134611  65.7561092  55.3059002  56.9880906  66.0322832  56.4881212
  57.1640353  66.5989241  54.3368621  57.0839868  66.4560895  53.4921749
  57.7362646  67.8772220  54.7224696  58.5047469  67.7149931  55.2919314
  58.0290873  68.3398300  53.9220687  56.7938824  68.7965875  55.4682557
  57.2066231  69.8806391  55.8933948  55.5454884  68.3917197  55.6704052
  55.2300003  67.6414062  55.3928967  54.5820850  69.2152364  56.4023308
  54.9611000  70.1036649  56.4959656  53.2832072  69.3010664  55.6104598
  52.9504704  68.4012322  55.4689477  52.6431383  69.8141421  56.1274222
  53.4209249  70.0842003  53.9933088  54.5230408  69.8931862  53.5599635
  54.2694129  68.7085485  57.8061943  53.4784469  69.3337925  58.5132549
  54.8092934  67.5800390  58.2209237  55.4025667  67.1307033  57.7893333
  54.4080166  67.0058615  59.4994940  53.4762220  67.2255174  59.6533643
  54.5297194  65.4848611  59.4842522  55.4512211  65.2453273  59.2970965
  54.2669471  65.1402314  60.3520558  53.6502816  64.8235320  58.4311468
  53.9902405  65.0570562  57.5530105  53.6874010  63.8620891  58.5561694
  51.9010916  65.3159088  58.4904806  51.5105872  64.8533152  60.1907083
  50.6665396  64.3755655  60.2029494  52.2170278  64.2835004  60.5335415
  51.4431135  65.6565652  60.7299993  55.2471557  67.5918747  60.6292971
  56.4736987  67.6851819  60.5231083  54.5677971  68.0105031  61.6966448
  53.7082900  68.0271395  61.7380802  55.2153116  68.4823252  62.9069116
  56.1563102  68.2504381  62.8572128  55.1202202  70.0307084  63.0991309
  55.5710759  70.2453118  63.9312802  55.8105699  70.7721298  61.9694878
  56.0051903  71.6773442  62.2593134  56.6347793  70.3116375  61.7471103
  55.2233282  70.7904147  61.1983705  53.6559610  70.4943029  63.1965697
  53.6298378  71.3779396  63.5971051  53.2739839  70.5243129  62.3053442
  53.1621037  69.8670466  63.7467146  54.5959073  67.7653169  64.0989386
  53.5650111  67.0937962  64.0121574  55.2534849  67.9324105  65.2206321
  56.0045047  68.3492734  65.2603007  54.8281042  67.4558065  66.5192875
  54.1582778  66.7584464  66.4443778  56.0557794  66.9267290  67.2471287
  56.4580159  66.2360040  66.6966173  56.6767869  67.6619419  67.3642507
  55.8292531  66.3464174  68.5604357  55.5207749  67.0352508  69.1705692
  55.1670355  65.6411615  68.4946782  57.1070466  65.7580831  69.1065469
  58.1900102  65.8744489  68.4956183  56.9945691  65.1119399  70.2444229
  56.2280060  65.0462194  70.6279120  57.6882648  64.7535142  70.6056185
  54.2086977  68.6060959  67.2960879  54.7874639  69.6968006  67.3607950
  53.0365435  68.3726838  67.8839036  52.6037927  67.6327714  67.8146912
  52.3748584  69.3762431  68.7132755  52.9453803  70.1573777  68.7747521
  51.0353028  69.8251931  68.1220812  50.4041974  69.0891692  68.1059660
  50.4126424  70.9092670  68.9834446  49.4497521  70.8861725  68.8737597
  50.6442905  70.7461791  69.9112821  50.7575731  71.7721765  68.7040364
  51.2648485  70.2906204  66.7040913  50.4079117  70.4878361  66.2938581
  51.8153575  71.0883811  66.7185354  51.7135169  69.5877073  66.2100116
  52.2021973  68.8105862  70.1117927  51.6433773  67.7216182  70.2916120
  52.6933318  69.5417142  71.0966804  53.0865682  70.2979837  70.9777199
  52.6166925  69.1360818  72.4876476  52.1050866  68.3157287  72.5658163
  54.0124971  68.8683737  73.0649714  54.5631507  69.6579113  72.9445809
  53.9248508  68.5511390  74.5238700  54.6774755  67.9981654  74.7879860
  53.9369025  69.3697155  75.0432660  53.1025912  68.0721882  74.7101394
  54.6016076  67.7466456  72.3959087  55.1787178  68.0107682  71.8448152
  51.9007934  70.2155254  73.2920716  52.1197150  71.4198344  73.0998994
  51.0219465  69.7712005  74.1721622  50.8362134  68.9394075  74.2883715
  50.2661476  70.6653214  75.0463320  50.7344298  71.4960617  75.2224922
  48.9275576  71.0467735  74.4079033  49.0710173  71.1724875  73.4563298
  48.3037338  70.3199451  74.5562522  48.1615767  72.5297488  75.0221275
  47.4872035  72.2540402  75.9758122  50.1023238  69.8857243  76.3453682
  49.4083871  68.8587577  76.3748004  50.8078315  70.3210356  77.3874187
  51.2603214  71.0526195  77.4057194  50.8609232  69.5549185  78.6197993
  51.3472291  70.0573921  79.2927754  49.9602737  69.3894771  78.9389178
  51.5531299  68.2234305  78.4198431  52.7042596  68.1523141  77.9713916
  50.8590347  67.1378272  78.7537087  50.0574262  67.1536548  79.0660169
  51.4160271  65.7992860  78.6120050  52.3828570  65.8622801  78.6479438
  50.9602986  64.9013927  79.7765397  51.2581507  65.2890755  80.6140188
  49.4461964  64.7940568  79.7816846  49.1466101  64.3659891  80.5991509
  49.0499944  65.6780635  79.7273326  49.1472129  64.2683550  79.0234046
  51.5256831  63.5827644  79.6491904  51.2276901  63.0821636  80.2545944
  51.0290990  65.1392163  77.2969405  51.6230324  64.1179586  76.9360667
  50.0501627  65.6827370  76.5895777  49.6441880  66.4112921  76.7988738
  49.5741758  65.0651028  75.3628746  49.6180082  64.1011518  75.4622332
  48.1261661  65.4545393  75.0755764  48.0765531  66.3960803  74.8471816
  47.5848007  64.6451640  73.8960218  46.6891709  64.3288005  74.0936564
  47.5550264  65.1984182  73.1000260  48.1584711  63.8810772  73.7266593
  47.3276560  65.2163424  76.2332265  46.5866541  65.6029690  76.1555284
  50.4496208  65.5004811  74.1966488  50.6665237  66.6962759  73.9841681
  50.9459469  64.5362664  73.4327093  50.9136753  63.6991024  73.6243025
  51.6006728  64.8503562  72.1720526  51.6365296  65.8135286  72.0590916
  53.0411961  64.3240372  72.1276444  53.0345934  63.3961718  72.4117328
  53.6266807  64.4099267  70.7211236  54.5545185  64.1274481  70.7302829
  53.1284656  63.8363066  70.1190441  53.5793023  65.3234637  70.3970010
  53.8661913  65.1220787  72.9779229  53.8080326  65.9305564  72.7572186
  50.8012141  64.2431218  71.0355319  50.2423900  63.1489672  71.1669559
  50.7590191  64.9354186  69.9104725  51.0323963  65.7461282  69.8203399
  50.2123010  64.3194861  68.6937800  50.5085569  63.4006617  68.5959890
  48.6772008  64.2646648  68.7769845  48.3984551  63.6066319  68.1217574
  48.4696689  63.9518651  69.6704658  47.7510377  65.4530576  68.5543402
  47.4680164  65.3537032  67.6313876  46.5448398  65.4196261  69.4574952
  45.8014583  65.8503325  69.0076609  46.3238205  64.4966044  69.6543594
  46.7529991  65.8927734  70.2789416  48.3988501  66.7900216  68.6593707
  47.7372449  67.4763044  68.4791720  48.7531572  66.8995042  69.5547416
  49.1169113  66.8448795  68.0098542  50.7935312  65.0738713  67.5060778
  51.7334845  65.8728514  67.6560530  50.2452448  64.8289489  66.3201262
  49.5454257  64.3439490  66.1965896  50.8268780  65.3918863  65.1067803
  51.7344755  65.6538145  65.3273126  50.8440662  64.3665342  63.9690455
  49.9303642  64.1569080  63.7191664  51.3169517  64.7452776  63.2105749
  51.5314623  63.0786007  64.3493348  52.7551473  63.0121278  64.3987550
  50.7372888  62.0463940  64.6463883  51.0792820  61.2898381  64.8697483
  49.8824307  62.1381612  64.6145996  50.0750439  66.6245926  64.6181272
  48.8659237  66.7582019  64.7954593  50.7998873  67.4640201  63.8747729
  51.6406543  67.3727506  63.7159122  50.2045701  68.6313817  63.2599353
  49.2394121  68.5401875  63.2456982  50.4399559  69.4258100  63.7627248
  50.7069685  68.7856094  61.8291332  51.7309673  68.2173641  61.4525886
  49.9308215  69.5351371  61.0476449  49.2095637  69.9131346  61.3223921
  50.2168071  69.7973097  59.6427343  50.9664162  69.2485063  59.3613912
  49.0093669  69.4656115  58.7686483  48.7397599  68.5554174  58.9684605
  48.2967367  70.0811805  59.0012377  49.1916074  69.5504748  57.2476326
  49.7088135  70.3514705  57.0698751  49.9123582  68.3630446  56.7210060
  50.2793966  68.5783315  55.8492025  50.6274702  68.1310349  57.3332023
  49.2893591  67.6245522  56.6440123  47.8659748  69.6387741  56.5400117
  48.0219409  69.8146910  55.5988433  47.3947882  68.7968507  56.6455118
  47.3468584  70.3598274  56.9304284  50.5940206  71.2636376  59.4783613
  49.7931695  72.1477275  59.7862814  51.7817159  71.5057380  58.9209591
  52.2701656  70.8907944  58.5715335  52.3898012  72.8296334  58.8375195
  51.8733785  73.4619584  59.3602466  53.8113179  72.7525653  59.3503351
  53.7876146  72.4146642  60.2590127  54.3069008  72.1423985  58.7818837
  54.5456778  74.0132100  59.3756982  54.0366751  75.2859933  59.4459045
  53.1311692  75.4983533  59.4721946  55.0640811  76.2012576  59.4735849
  54.9730285  77.0557865  59.5151024  56.2604981  75.5241400  59.4233527
  57.5553322  76.0014451  59.4319285  57.7338341  76.9132094  59.4683013
  58.5684241  75.0817305  59.3835978  59.4502818  75.3758386  59.3906215
  58.3057138  73.6993392  59.3250187  59.0158934  73.0989798  59.3009853
  57.0214156  73.2230040  59.3037128  56.8539670  72.3093768  59.2554507
  55.9655547  74.1427396  59.3570247  52.3725024  73.3038355  57.3869130
  53.1045320  72.7757606  56.5427989  51.5276328  74.2867284  57.1092947
  51.0170862  74.6502123  57.6978621  51.3647921  74.8639629  55.7837875
  52.0805238  74.5646974  55.2008833  50.0279932  74.4380747  55.1322248
  49.3096221  74.7994120  55.6749404  49.9985467  74.8229896  54.2433916
  49.7413588  72.9256991  54.9691576  49.8903321  72.5013706  55.8288542
  48.2655867  72.6702460  54.5646562  48.0920133  71.7158126  54.5872414
  47.6825515  73.1268135  55.1915230  48.1200666  73.0117887  53.6689099
  50.6931775  72.2828141  53.9621466  50.9066356  71.3838452  54.2593192
  50.2597960  72.2501525  53.0947720  51.5027890  72.8147211  53.9085636
  51.4297836  76.3793345  55.9232651  50.7058882  76.9716744  56.7446011
  52.2628756  77.0097286  55.0988229  52.6486320  76.6358536  54.4271567
  52.6034284  78.4389720  55.2744936  53.3755867  78.6439609  54.7252577
  51.4663709  79.3268107  54.7921903  50.6559070  79.0861553  55.2662359
  51.6930040  80.2527340  54.9703408  51.1965707  79.1864899  53.2925367
  52.0946859  78.7365467  52.5547568  50.0850476  79.5410246  52.8518479
  52.9752186  78.6091633  56.7382894  53.7880874  77.8094955  57.2390456
  52.3997719  79.5636641  57.4741828  51.7879072  80.0914984  57.1790887
  52.7612864  79.7987773  58.8633290  53.5549486  79.2712690  59.0464607
  53.1340625  81.2669141  59.1288048  53.3532178  81.3679903  60.0683156
  53.9016726  81.4961422  58.5819720  52.0120328  82.2704635  58.8011405
  51.0084255  81.9090497  58.1593971  52.1526981  83.4665256  59.1990284
  51.6589338  79.3568382  59.8152563  51.4898145  79.9403897  60.8876146
  50.9083610  78.3191753  59.4367498  51.0026378  77.9107951  58.6854718
  49.8475397  77.7764450  60.2709092  49.8764754  78.2199200  61.1335920
  48.4564568  78.0010504  59.6441702  48.4070052  77.4777162  58.8295145
  47.3893219  77.5608243  60.5897119  46.5315397  77.8798997  60.2682676
  47.3867639  76.5917848  60.6338705  47.5731075  77.9322826  61.4665052
  48.2405754  79.4351391  59.3008471  47.3635411  79.5359750  58.9017507
  48.2986040  79.9658291  60.1112216  48.9251644  79.7150988  58.6727505
  50.0935809  76.2854444  60.4871754  50.4302415  75.5535891  59.5470513
  49.8762016  75.8373689  61.7194642  49.7008238  76.3529950  62.3848471
  49.9098916  74.4187668  62.0831700  50.1942289  73.8894618  61.3213003
  50.8917080  74.1417215  63.2286932  50.6661113  74.7186027  63.9755614
  50.7921442  72.7187449  63.7238840  51.5694852  72.5191898  64.2679829
  49.9840601  72.6245602  64.2534785  50.7596166  72.1206475  62.9609007
  52.3149844  74.4426093  62.7588847  52.8768131  74.5979271  63.5335084
  52.6482883  73.6822426  62.2552063  52.3019335  75.2315484  62.1960218
  48.4908867  74.0193768  62.4539580  47.8454446  74.6551723  63.3008810
  47.9844086  73.0051962  61.7795793  48.4137598  72.5768337  61.1686716
  46.6368447  72.5030175  62.0003283  46.1117437  73.1427387  62.5069314
  45.9078562  72.2568046  60.6643298  46.3696449  71.5445748  60.1950101
  44.9972121  71.9882275  60.8621341  45.8268142  73.4389173  59.7113672
  46.9566391  73.8721244  58.9819034  47.7650911  73.4247211  59.0833012
  46.8821647  74.9489520  58.1221121  47.6374992  75.2268946  57.6565763
  45.6524313  75.6266871  57.9499243  45.5721567  76.6989965  57.0772900
  44.8846630  77.1531383  57.2417149  44.5254065  75.2209274  58.6583453
  43.7195832  75.6738266  58.5560070  44.6137542  74.1242980  59.5273244
  43.8561652  73.8454934  59.9889649  46.7632161  71.1899172  62.7706944
  47.5668608  70.3317771  62.3914945  45.9958895  71.0311516  63.8544713
  45.4768399  71.6322848  64.1833321  46.0062532  69.7556974  64.5673570
  46.1029681  69.0368150  63.9244462  47.1529186  69.6931328  65.5705291
  47.2405920  68.7851046  65.8991203  47.9736201  69.9685145  65.1334467
  46.8704890  70.7778590  66.9751941  47.8766066  71.3915794  67.2035985
  44.6690443  69.5666864  65.2850284  43.8679439  70.4954918  65.3952860
  44.4238965  68.3533901  65.7936929  45.2091852  67.1180093  65.6818682
  45.8515427  67.0474444  66.4046735  45.6651388  67.0733946  64.8263813
  44.1595594  66.0518604  65.7874586  44.5363507  65.2152913  66.1051638
  43.7098895  65.9114933  64.9394804  43.1857492  66.6244600  66.8209523
  43.5077887  66.4787065  67.7242155  42.3001288  66.2425820  66.7179531
  43.1516919  68.1261754  66.5091508  42.3929972  68.3294186  65.9398385
  43.0758255  68.9517282  67.7805047  44.0534727  69.0625384  68.5322568
  41.8899412  69.5077635  68.0383186  41.1842432  69.4243454  67.5528490
  41.7253638  70.3376469  69.2337540  42.4452081  70.9875695  69.2488817
  40.4134784  71.1269996  69.1896661  40.3981229  71.7312211  69.9492282
  40.3929763  71.6339738  68.3628614  39.1172087  70.2936833  69.2455492
  39.0193453  69.7977504  68.4174229  39.1627370  69.6795401  69.9955848
  37.8694370  71.1884137  69.4254746  37.9422924  71.6630017  70.2684333
  37.8289999  71.8211564  68.6909677  36.6108647  70.4423385  69.4404934
  36.6414024  69.5986823  69.2742293  35.4230584  70.9824855  69.6947204
  35.3027076  72.3053118  69.9358078  35.9989294  72.8094340  69.9249889
  34.5293009  72.6438616  70.0990319  34.3547642  70.1992210  69.7159195
  34.4371442  69.3565187  69.5661619  33.5798283  70.5339424  69.8790788
  41.7870269  69.5125783  70.5060502  42.1265611  70.0500725  71.5550338
  41.5155487  68.2079538  70.4425261  41.3067578  67.7715919  69.7311362
  41.5724818  67.4279900  71.6770310  41.0227600  67.8534354  72.3533713
  40.9471646  66.0322966  71.4554295  40.8593782  65.5998174  72.3191813
  40.0724265  66.1536548  71.0550839  41.7137923  65.0883945  70.5662406
  42.9783511  64.6228798  70.8659027  43.4409130  64.8516952  71.5543858
  43.3675831  63.7706338  69.9338001  44.1897417  63.3385308  69.9034821
  42.3914131  63.6371182  69.0534973  42.4095435  63.0392342  68.2398414
  41.3436583  64.4504624  69.4296051  40.5323867  64.5443548  68.9844864
  42.9763033  67.3641239  72.2749500  43.1228086  66.9073313  73.4133184
  43.9972552  67.8957653  71.6016056  43.9631732  68.1710408  70.7874632
  45.2898140  68.0490581  72.2420523  45.5922919  67.1583675  72.4802252
  46.3035328  68.6816551  71.2686868  46.1963106  68.2735552  70.3949667
  46.0532545  70.1785095  71.1151883  46.6649652  70.5354259  70.4534552
  45.1373750  70.3177830  70.8278756  46.1995663  70.6125805  71.9702936
  47.7184488  68.4255835  71.7569020  48.3140077  69.0740276  71.3511449
  47.7394829  68.5142094  72.7216714  47.9827528  67.5276884  71.5007189
  45.2218106  68.8788641  73.5240872  46.1152711  68.7820997  74.3597104
  44.1812255  69.6872753  73.7138451  43.5137938  69.7670443  73.1778220
  44.1229458  70.5256336  74.9092930  45.0352741  70.6281462  75.2237150
  43.5567764  71.9362514  74.6203800  43.6081311  72.4434864  75.4462247
  44.4032578  72.6481458  73.5568281  45.2011746  73.0061583  73.9759151
  44.6493035  72.0087959  72.8699641  43.8818236  73.3679116  73.1676989
  42.0771089  71.8943675  74.2206789  41.9939857  71.4210115  73.3774857
  41.5789248  71.4299631  74.9118577  41.4476061  73.2908055  74.0418967
  40.7162900  73.2287414  73.4086512  41.1171177  73.5999988  74.9004874
  42.1235460  73.9014665  73.7091351  43.3209102  69.8398282  76.0060404
  43.0812288  70.4383463  77.0568814  42.9324135  68.5779965  75.7900123
  43.0436221  68.1574714  75.0480519  42.2692250  67.7869063  76.8212263
  41.6533819  68.3795786  77.2798578  41.4960920  66.6053775  76.2311550
  42.0376299  66.1968225  75.5370739  41.3230058  65.9635934  76.9369563
  39.9957987  67.0278172  75.5365655  40.0691231  68.1421804  75.0976360
  43.2772151  67.2029501  77.7966858  44.4421099  66.9746052  77.4546379
  42.8083588  66.9371308  79.0104551  42.0589901  67.2332179  79.3095839
  43.5351210  66.1057623  79.9592880  44.4037361  65.9008149  79.5786800
  43.7583146  66.8173170  81.2940578  44.1234733  66.1942454  81.9422029
  44.7535604  67.9543936  81.1362174  45.2103221  68.1142595  81.9765468
  45.4103157  67.7291369  80.4583739  44.2915701  68.7651006  80.8694364
  42.5052653  67.3182050  81.7808469  42.2531729  67.9667776  81.3096049
  42.7571505  64.8213151  80.2088205  41.6157881  64.6649257  79.7634226
  43.3853713  63.9119733  80.9603370  44.1880642  63.9898456  81.2592048
  42.7198717  62.6704712  81.3424402  42.4388005  62.2031167  80.5413730
  43.6920873  61.7549018  82.0908341  43.2531979  60.9073234  82.2620678
  44.4781651  61.6158713  81.5382971  44.0964695  62.3181747  83.3271093
  44.5370645  63.0205320  83.1924123  41.4929007  62.9376547  82.1972620
  40.6213560  62.0686024  82.3042988  41.4002554  64.1216666  82.7944561
  42.0106077  64.7269176  82.7549946  40.2426681  64.5135132  83.5817946
  39.8817700  63.7195713  84.0058732  40.6569623  65.5040284  84.6970044
  40.4663706  66.4024702  84.3851741  40.1259800  65.3065449  85.4846744
  42.1405073  65.4854188  85.1378820  42.6972479  65.3735152  84.3516495
  42.3468649  66.3262736  85.5735228  42.4824851  64.3582760  86.1142934
  41.5980329  63.5254114  86.4094760  43.6421682  64.3093777  86.5893776
  39.1394096  65.1495272  82.7356948  38.1062255  65.5343146  83.2883014
  39.3259862  65.2520452  81.4118352  39.9421907  64.8342664  80.9820679
  38.4926760  66.0929161  80.5641518  37.8399080  66.5181033  81.1412833
  39.3466614  67.1748081  79.8708208  40.2007717  66.7887617  79.6215967
  38.8789649  67.4852301  79.0803688  39.6162682  68.3717923  80.7514563
  38.6457528  68.9615030  81.2827773  40.8084244  68.7229235  80.9000013
  37.7494911  65.3517225  79.4709115  36.9229826  65.9692231  78.7893708
  38.0052863  64.0609927  79.2760263  38.3737774  63.5386490  79.8511796
  37.6584957  63.4240347  78.0093749  37.9143662  64.0258612  77.2940252
  38.4541166  62.1206919  77.8727223  38.1732017  61.5072303  78.5702282
  38.2757732  61.7354819  77.0009563  39.9553516  62.3119374  77.9976490
  40.2291653  63.0569737  77.4409751  40.1774991  62.4909003  78.9253821
  40.8683400  60.8554320  77.4737251  41.5772187  60.2742805  79.0149570
  41.5709444  59.3040059  79.0191823  42.4881261  60.5995732  79.0865767
  41.0466845  60.6110691  79.7542322  36.1700485  63.1518715  77.8418125
  35.6889414  63.0979102  76.7048797  35.4274197  62.9556514  78.9352424
  35.7116524  63.0264095  79.7444507  34.0224971  62.5903694  78.8259425
  33.9513646  61.8274945  78.2308643  33.4746927  62.1826072  80.1963912
  34.1857022  62.3000511  80.8455649  32.7327561  62.7710959  80.4057258
  32.9591960  60.7443862  80.3585903  32.1320591  60.6941105  79.8549496
  33.8945392  59.6806188  79.7764151  34.7171826  59.6664115  80.2915336
  33.4588479  58.8152904  79.8252205  34.0880054  59.9010933  78.8516893
  32.7092747  60.4331972  81.8330548  33.5616776  60.3738383  82.2919087
  32.1756795  61.1449423  82.2200485  32.2368504  59.5895065  81.9024392
  33.1861742  63.7206883  78.2322253  32.3259725  63.4766760  77.3780538
  33.4007492  64.9646921  78.6522030  33.9727255  65.1783489  79.2591526
  32.6604256  66.1037393  78.1013687  32.5101713  65.9357642  77.1580909
  31.3235496  66.2607638  78.8144164  31.1009645  65.4276964  79.2582357
  31.3939881  66.9751498  79.4665767  30.2047901  66.5993112  77.8688009
  29.1595942  65.9633713  77.8999965  30.4217284  67.5956214  77.0032116
  29.8078892  67.8215290  76.4449096  31.1749662  68.0106806  77.0045158
  33.4762525  67.3751524  78.2068391  33.1663628  68.2790876  78.9812108
  34.5154816  67.4997151  77.3875979  34.9698366  66.5679350  76.3460681
  34.2400040  66.3214181  75.7576552  35.3631413  65.7728677  76.7387327
  36.0102597  67.3760446  75.6074690  35.6084787  67.8425529  74.8575409
  36.7275826  66.8022653  75.2951450  36.5542552  68.3659692  76.5671372
  36.8569035  69.1659549  76.1112558  37.2793877  67.9857582  77.0877258
  35.3655880  68.6970698  77.4793474  35.6822473  68.8263408  78.3872509
  34.6265740  69.9453401  77.0185942  33.8463366  69.9168065  76.0681541
  34.8671064  71.0403392  77.7281195  35.3288069  71.0432103  78.4527196
  34.3737450  72.3647912  77.3550372  33.5987656  72.3172004  76.7736380
  33.9370419  73.1505322  78.5834734  33.2370918  72.6588882  79.0406233
  34.6997882  73.2661199  79.1707694  33.3978786  74.5253953  78.2419175
  33.6187128  75.0604401  77.1447227  32.6871000  75.1126746  79.1915552
  32.3537568  75.8942928  79.0580176  32.5581954  74.7128998  79.9422287
  35.5445432  73.0013827  76.6207786  36.4567380  73.5664920  77.2308222
  35.5477255  72.8613482  75.2978238  34.8856127  72.5900720  74.8209950
  36.7576591  73.1875069  74.5580055  37.5038197  72.7188231  74.9638058
  36.6616943  72.7028917  73.1091422  35.7541794  72.8322817  72.7917073
  37.2799213  73.2122442  72.5621382  37.0076661  71.2279498  72.9659784
  38.3240919  70.7748672  73.1281332  39.0001441  71.3845378  73.3140824
  38.6330609  69.4092992  73.0135025  39.5095286  69.1200048  73.1252662
  37.6299538  68.4948897  72.7323150  37.9287590  67.1490500  72.6333205
  37.2491699  66.7215279  72.3865239  36.3244261  68.9228973  72.5753055
  35.6526566  68.3076583  72.3857994  36.0149834  70.2827081  72.7017527
  35.1327498  70.5614634  72.6079801  37.0447149  74.6792949  74.6157685
  38.2029219  75.0807716  74.7669174  36.0048818  75.5076479  74.4892879
  35.1965590  75.2595911  74.3317090  36.1675774  76.9513362  74.6137515
  36.7590275  77.2523506  73.9057747  34.8179430  77.6391003  74.4563685
  34.1593313  77.1574835  74.9813313  34.8932720  78.5515144  74.7748777
  34.3260313  77.6862682  73.0317116  33.7241153  78.4408953  72.9296875
  35.0854637  77.7855692  72.4374964  33.5845076  76.4399070  72.6402370
  33.3540542  76.2666533  71.4323817  33.2343641  75.6358121  73.5337133
  36.8004286  77.3370360  75.9496246  37.7264354  78.1504869  76.0058923
  36.3149280  76.7682976  77.0426423  35.6791918  76.1898799  77.0680100
  36.8862144  77.1315488  78.3336285  36.8976782  78.0973626  78.4241670
  36.0117738  76.5781477  79.4583862  35.1062956  76.9092973  79.3485035
  36.0181516  75.6096051  79.4166559  36.4998294  76.9932094  80.8407579
  36.9315810  76.1009789  81.6066987  36.4679140  78.2095697  81.1492039
  38.3301343  76.6492376  78.4484867  39.2000317  77.3870592  78.9267070
  38.6097922  75.4175805  77.9967066  38.0417678  74.8832024  77.6340258
  39.9646743  74.8822500  78.0983271  40.2326986  74.9012549  79.0297684
  39.9986594  73.4318016  77.6207348  39.5513373  73.3907358  76.7609775
  40.9284158  73.1720219  77.5244139  39.3357592  72.3871460  78.5181784
  38.4627295  72.7129924  78.7891053  39.1326517  71.0726252  77.7500817
  39.3013962  70.3282522  78.3482623  38.2190211  71.0350752  77.4246063
  39.7513272  71.0444944  77.0034243  40.1507469  72.1607058  79.7929544
  39.6905570  71.5154107  80.3519932  41.0274235  71.8237638  79.5513802
  40.2398481  73.0036386  80.2649357  40.9464806  75.7174507  77.2967823
  42.0846836  75.9426228  77.7344369  40.5209279  76.2099276  76.1292390
  39.7238714  76.1279280  75.8177539  41.4331235  76.9532315  75.2702283
  42.2534505  76.4468668  75.1644726  40.8082602  77.1432650  73.8973236
  40.4890318  76.2808572  73.5869690  40.0655143  77.7600199  73.9835551
  41.7353675  77.6959657  72.8210503  42.1400480  78.5226995  73.1298897
  42.8744953  76.7174535  72.5315479  43.2554696  76.9239606  71.6644036
  43.5509494  76.8070095  73.2210105  42.5210874  75.8135509  72.5317686
  40.9319161  77.9979830  71.5618949  41.3961521  77.6262297  70.7955637
  40.0534268  77.5947108  71.6440779  40.8477564  78.9589463  71.4642031
  41.7753573  78.2972841  75.8714336  42.8858728  78.8101238  75.6766724
  40.8211871  78.8627974  76.6132595  40.0755981  78.4851988  76.8107698
  40.9540002  80.1972305  77.1693935  41.1558963  80.8355388  76.4674544
  39.6056118  80.6024727  77.8100504  38.9130841  80.0027111  77.4892258
  39.6126373  80.4244464  79.3348148  38.7212461  80.5962982  79.6773973
  39.8783222  79.5157426  79.5456416  40.2424836  81.0512320  79.7234167
  39.2432150  82.0232747  77.3729686  38.4726549  82.3221932  77.8814032
  39.9992566  82.6072859  77.5421756  38.8986152  82.1168991  75.9000102
  38.8202063  83.0519688  75.6532599  39.6025921  81.6958250  75.3837206
  38.0561634  81.6617411  75.7435739  42.1174117  80.2493891  78.1444203
  42.9408974  81.1718685  78.0983005  42.2377394  79.2504309  79.0004908
  41.6843179  78.5943590  79.0477702  43.3260784  79.1557089  79.9621304
  43.4166836  80.0061108  80.4202933  42.9889365  78.0842535  81.0053043
  42.7331971  77.2714238  80.5422403  43.7764439  77.9229690  81.5484003
  41.8459302  78.4553485  81.9492403  41.9386124  79.3845316  82.2100982
  41.0003425  78.3212597  81.4933064  41.8427155  77.6005898  83.2197028
  42.7549845  77.4874529  83.5295064  41.3131621  78.0448075  83.9004971
  41.2726601  76.2772114  82.9924747  41.8110984  75.6081752  82.9462060
  39.9709825  76.0407424  82.8516524  39.1034626  77.0442227  82.9106646
  39.3823998  77.8471752  83.0395456  38.2622714  76.8904435  82.8197896
  39.5377328  74.8013336  82.6447551  40.0997951  74.1510334  82.6006917
  38.6963175  74.6489486  82.5539580  44.7070938  78.8475960  79.2944479
  45.6877993  78.6295629  80.0353017  44.8112780  78.8418189  77.9644519
  44.1661244  79.0510026  77.4356749  46.0403393  78.4778588  77.2687147
  46.6630283  78.1030722  77.9110569  45.7629720  77.4369228  76.1788575
  45.1091883  77.8009690  75.5622789  46.5929633  77.2507007  75.7114649
  45.2155532  76.1025064  76.7021198  44.5655169  76.2774403  77.4013286
  44.7951997  75.6224668  75.9713770  46.3076855  75.2155171  77.2839118
  46.8768006  74.8929660  76.5676759  46.8333537  75.7264106  77.9194083
  45.7172841  74.0129538  78.0067041  44.9813520  74.3081544  78.5657458
  45.3982366  73.3728541  77.3510669  46.7220173  73.3199023  78.8841963
  46.8209932  72.4745168  78.6247967  47.5088517  73.7326533  78.8308842
  46.4467880  73.3316623  79.7306669  46.6880662  79.7124134  76.6517352
  46.0181972  80.5130589  76.0056204  47.9886198  79.8489202  76.8453617
  48.4398752  79.3567559  77.3880144  48.8086086  80.8456886  76.1656404
  48.2552753  81.5852342  75.8699200  49.8764399  81.3696000  77.1262564
  50.4553307  81.9902673  76.6561983  49.4481615  81.8164022  77.8723707
  50.6578402  80.2671811  77.6146641  51.4599290  80.3574223  77.3823195
  49.4830657  80.2276461  74.9432219  49.6284718  79.0095777  74.8505696
  49.9240792  81.0843918  74.0106620  49.7644882  81.9300841  74.0003586
  50.7437566  80.6075951  72.8988495  50.1837827  80.0883405  72.3014871
  51.3128584  81.7918616  72.1084883  51.7378687  82.4096503  72.7236521
  51.9616733  81.4628409  71.4676984  50.2512900  82.5413024  71.3548671
  49.2166646  81.9794839  71.0013247  50.5060382  83.8093046  71.0757545
  49.9276666  84.2790193  70.6462940  51.2488757  84.1629404  71.3248852
  51.8794118  79.7220969  73.3994163  52.1682106  78.6704905  72.8195886
  52.5317411  80.1256912  74.4838826  52.3212369  80.8183502  74.9479015
  53.6965422  79.4028760  74.9937086  54.3296998  79.2289276  74.2796628
  54.4010023  80.2887360  76.0308861  54.4775928  81.1855006  75.6703030
  53.8672355  80.3004199  76.8411438  55.7750918  79.8297434  76.4004872
  56.0404818  79.1507026  77.5708263  57.3332653  78.8842047  77.6376071
  57.7592276  78.4320089  78.3292993  57.9164696  79.3690735  76.5551192
  58.7557495  79.3181976  76.3750891  56.9655915  79.9683489  75.7650150
  57.1099690  80.3886647  74.9479589  53.3252849  78.0454186  75.5759390
  54.2086776  77.1968578  75.7424949  52.0416229  77.7820591  75.8270023
  51.4011216  78.3540169  75.7766899  51.6316619  76.4366870  76.2228192
  52.2221407  76.1495671  76.9365411  50.1970843  76.4265741  76.7706293
  49.6293822  76.9444172  76.1780191  49.8821737  75.5099636  76.8137622
  50.0900951  77.0237833  78.1623766  49.2713979  77.9056043  78.4082212
  50.9268954  76.5504814  79.0784249  50.9042423  76.8570254  79.8813792
  51.4915308  75.9356444  78.8692018  51.7095355  75.4500970  75.0665434
  51.5926492  74.2390068  75.2884447  51.8754860  75.9253909  73.8410537
  51.9541601  76.7611962  73.6531975  51.9378421  75.0411609  72.6824049
  51.5930180  74.1681190  72.9252300  51.0857227  75.5723116  71.5342061
  51.3502246  76.4862284  71.3429424  51.2278171  75.0147233  70.7538693
  49.6040776  75.5714142  71.8458854  48.8724025  74.4000419  71.8223193
  49.2911439  73.5993963  71.6048995  47.5063365  74.4082716  72.1233608
  47.0199359  73.6148208  72.1006386  46.8784990  75.5942821  72.4548232
  45.9710539  75.6043964  72.6548284  47.6117610  76.7633211  72.4862019
  47.1992287  77.5669088  72.7073352  48.9641795  76.7328731  72.1841127
  49.4512199  77.5246624  72.2127365  53.3855468  74.8798317  72.2624825
  54.0410861  75.8611183  71.8875015  53.8979552  73.6486760  72.3684936
  53.4706845  72.9784395  72.6983616  55.2546811  73.3247637  71.9265573
  55.7707914  74.1418430  71.8429121  55.9746693  72.4196935  72.9297612
  56.1271936  72.9267028  73.7425415  55.4051197  71.6564424  73.1158552
  57.3329484  71.8739687  72.4697747  57.2129553  71.5451478  71.5653669
  58.4166019  72.9861611  72.4210710  59.2878136  72.5737405  72.3079496
  58.2301981  73.5760794  71.6737264  58.3931670  73.4868967  73.2508214
  57.8064931  70.6785363  73.3266216  58.7180719  70.4556979  73.0817009
  57.7671579  70.9275698  74.2636254  57.2240970  69.9214135  73.1606824
  55.1403958  72.6443156  70.5665414  54.6053897  71.5317635  70.4667097
  55.6390610  73.3061474  69.5269402  56.0042920  74.0823194  69.5874165
  55.6145996  72.7767125  68.1744535  55.1245626  71.9391649  68.1730914
  54.9242322  73.7480983  67.1992467  55.4364059  74.5707124  67.1592692
  54.8657544  73.1294248  65.7799143  54.6195176  73.8197234  65.1435643
  55.7380972  72.7685846  65.5556346  54.2024991  72.4215263  65.7713052
  53.5398880  74.0649711  67.6748975  53.1197796  74.6710272  67.0448633
  53.0296152  73.2423221  67.7338061  53.5943600  74.4839521  68.5487578
  57.0436970  72.4992936  67.7375912  57.8980380  73.3951092  67.7824549
  57.2940857  71.2799697  67.2633121  56.7057183  70.6570678  67.1940946
  58.6307400  70.9051602  66.8144758  59.1886252  71.6986104  66.7860711
  59.2487432  69.8884006  67.7645899  58.6515169  69.1272044  67.8342977
  60.1037749  69.6070695  67.4025836  59.4913152  70.4014252  69.1523531
  60.2137932  71.0492769  69.1350959  58.6822946  70.8170857  69.4890696
  59.8790723  69.2731356  70.0884043  59.0311707  68.6970158  70.7718112
  61.1562936  68.9325246  70.1017802  61.7168259  69.3456289  69.5966284
  61.4274566  68.2975569  70.6154511  58.5712624  70.3476302  65.4019597
  57.7945131  69.4353148  65.1181728  59.3303528  70.9422653  64.5168457
  59.7588846  71.6708958  64.6731438  59.5311983  70.4342261  63.1727295
  58.8440909  69.7927922  62.9329482  59.4657580  71.5529215  62.1415950
  59.9378028  71.2739547  61.3417424  58.5362446  71.7344710  61.9313723
  59.8822947  72.3480285  62.5114113  60.8968400  69.7625315  63.1912473
  61.9292635  70.4413805  63.2411237  60.8976179  68.4395308  63.1741985
  60.2145972  67.9470946  63.0009979  62.1144093  67.7051904  63.4621548
  61.9494181  66.7503568  63.4138867  62.8067156  67.9388713  62.8244291
  62.5766782  68.0637207  64.8578401  61.8383775  67.9266489  65.8422345
  63.8003993  68.5619136  64.9555767  64.3428553  68.6359563  64.2920345
  64.3410706  69.0358013  66.2195209  63.8533945  68.6170116  66.9461240
  65.8127775  68.6234851  66.3425998  65.9028639  67.6908826  66.0909572
  66.3475395  69.1791688  65.7532991  66.3510240  68.7844389  67.7572837
  66.6832534  69.8919851  68.1850569  66.4500405  67.6744392  68.4854495
  66.7493316  67.7133824  69.2911853  66.2153924  66.9173550  68.1508440
  64.2133395  70.5459365  66.3862110  64.5712839  71.0702094  67.4423543
  63.7073330  71.2537519  65.3823915  63.4124392  70.9101070  64.6510299
  63.6058830  72.7061592  65.4383126  64.3361787  73.0383764  65.9833638
  63.7001860  73.3232999  64.0355035  62.9398611  73.0497185  63.4971678
  63.6722111  74.8414299  64.1534724  64.0721230  75.2269413  63.3592379
  62.7504153  75.1348366  64.2356918  64.1743788  75.1063260  64.9391489
  64.9362319  72.8284695  63.3143660  64.9779970  73.2434993  62.4379826
  65.7210839  73.0670175  63.8313691  64.8820293  71.8638445  63.2208317
  62.2933634  73.1053838  66.0972784  61.2117050  72.7198259  65.6374859
  62.3748287  73.9309384  67.1279132  63.1073018  74.1916230  67.4960256
  61.1638314  74.4698959  67.7218486  60.4876211  73.7766488  67.7860372
  61.4292646  74.9653986  69.1423584  61.5746347  74.1970656  69.7170113
  62.2194699  75.5275447  69.1336195  60.2840848  75.7823166  69.7391256
  60.3222052  76.6846486  69.3864830  59.4414402  75.3662796  69.4981582
  60.3475540  75.8692197  71.2547501  61.3362495  75.4636031  71.8712713
  59.2831835  76.3913894  71.8648331  58.6090789  76.6575173  71.4018223
  59.2701028  76.4633384  72.7218571  60.6201027  75.5913018  66.8455005
  61.3696324  76.4091646  66.3151991  59.3101115  75.5947432  66.6617961
  58.7915200  74.9553291  66.9090840  58.6161219  76.6949721  66.0146950
  59.2606011  77.2660607  65.5679630  57.6256018  76.2208718  64.9626305
  56.9348568  75.7164295  65.4185683  57.2421608  77.0087162  64.5478857
  58.1299757  75.3400899  63.8326061  58.6581301  74.5941849  64.1568849
  56.8991164  74.8177793  63.1061531  57.1571625  74.5273247  62.2173137
  56.5322858  74.0704074  63.6039679  56.2429593  75.5291233  63.0450982
  59.0383999  76.1215687  62.9213798  59.7731604  75.5514451  62.6451331
  58.5340349  76.4116491  62.1456123  59.3804113  76.8920726  63.4016391
  57.8690884  77.4507728  67.0917852  57.1558631  76.8411214  67.8897562
  58.0369630  78.7595624  67.1165416  58.5124641  79.2003175  66.5523123
  57.4057590  79.5807650  68.1393352  57.3784657  79.0996716  68.9816571
  58.2075194  80.8592340  68.3604877  58.9941627  80.6393173  68.8849684
  58.4735765  81.2064376  67.4945776  57.4729615  81.9813064  69.0928586
  56.6600767  82.2080481  68.6146574  57.2590081  81.6978266  69.9951208
  58.3648834  83.2273156  69.1658143  59.2384015  82.9758651  69.5032352
  58.4498908  83.6111446  68.2790094  57.8079730  84.2493944  70.0549547
  57.4809471  84.9611894  69.7001168  57.7792083  84.1392032  71.3795405
  58.2611096  83.0496331  71.9575768  58.5899399  82.4170834  71.4769808
  58.2442488  82.9739521  72.8142851  57.2662923  85.1103425  72.1258780
  56.9488898  85.8175693  71.7521055  57.2503947  85.0327291  72.9814296
  55.9828756  79.9009037  67.7267833  55.7419251  80.3740955  66.6137755
  55.0459805  79.6340572  68.6268702  55.2091546  79.2964000  69.4011536
  53.6323554  79.8905576  68.3914438  53.4349342  79.7528709  67.4507923
  52.7536207  78.9405962  69.2198259  52.9545850  79.0363157  70.1643756
  51.2623834  79.2988524  69.0324734  50.7244523  78.7157069  69.5906646
  51.1244068  80.2240840  69.2911298  51.0227224  79.1768465  68.1004766
  53.0485221  77.5011329  68.8339562  52.2698797  77.1266545  68.3927250
  53.8093188  77.4848058  68.2334742  53.2492130  76.9936481  69.6361696
  53.3405381  81.3338481  68.7561985  53.6678788  81.7621282  69.8633594
  52.7167044  82.0702983  67.8381099  52.4648089  81.7669837  67.0734525
  52.3952956  83.4761244  68.0437051  52.6706077  83.7336883  68.9371395
  53.1693094  84.3589026  67.0510277  52.9390670  85.2871886  67.2078670
  54.6423657  84.1284711  67.2604090  55.1405264  84.7662714  66.7264907
  54.8496641  84.2491770  68.1996148  54.8620345  83.2244221  66.9859825
  52.8000701  84.0206333  65.6116506  53.1305726  83.1320179  65.4054641
  51.8350570  84.0447805  65.5232898  53.3881954  84.9865875  64.5854445
  52.6933098  85.2433940  63.9599060  53.7237946  85.7714667  65.0467239
  54.1119104  84.5453767  64.1140427  50.9022686  83.7524740  67.9692114
  50.4922820  84.8832987  68.1947610  50.0843801  82.7430067  67.7140443
  50.3457092  81.9510277  67.5049457  48.6426111  82.8808152  67.7632478
  48.3822237  83.4248964  68.5221061  48.3163177  83.2963093  66.9496002
  48.0373754  81.5034007  67.9012914  48.6989962  80.4846554  67.6773048
  46.7849997  81.4746648  68.3051583  46.3313859  82.1625636  68.5530752
  46.0670327  80.2137245  68.3579116  46.3108046  79.6680223  67.5931121
  46.4053648  79.4161259  69.6262483  45.9154042  78.5796535  69.6058642
  47.3593036  79.2417893  69.6364201  46.0579936  80.1143859  70.9057714
  46.9500466  80.9162085  71.5859942  47.7560192  81.0861374  71.3378768
  46.3719267  81.3840681  72.6796097  46.7611830  81.9586137  73.2983364
  45.1461134  80.8944149  72.7439493  44.9243558  80.0980701  71.6471113
  44.1419264  79.6339752  71.4509832  44.5814323  80.5032329  68.2875035
  44.1038052  81.4874707  68.8623968  43.8691890  79.6419557  67.5710504
  44.2089032  78.9820917  67.1356370  42.4244324  79.7341804  67.4518579
  42.0562318  80.0556398  68.2905403  42.0200859  80.7083259  66.3384867
  41.0518547  80.7584834  66.3016827  42.3899730  81.5829444  66.5374968
  42.5073733  80.2790961  65.0753094  41.9444410  80.4508699  64.4769324
  41.8572574  78.3456974  67.1914171  42.5791487  77.3903541  66.8918220
  40.5406791  78.2568256  67.2930263  40.0344774  78.9304356  67.4656947
  39.8023731  77.0192148  67.1264829  40.3989935  76.2815464  66.9225898
  39.0578284  76.6824849  68.4184609  39.7146366  76.5175579  69.1129651
  38.5050716  77.4417419  68.6573956  38.1529339  75.4680738  68.3588571
  37.2686118  75.7287277  68.0567147  38.5272230  74.8058305  67.7573777
  38.0210096  74.7500262  70.0216612  36.9049775  75.9241331  70.8179991
  36.4661774  75.4862685  71.5644334  37.4183273  76.6825038  71.1352924
  36.2436561  76.2182786  70.1727314  38.8382179  77.1997078  65.9754160
  38.0865456  78.1772022  65.9469464  38.8662292  76.2686483  65.0297846
  39.4631052  75.6511964  64.9857725  37.8737928  76.2062178  63.9601322
  37.1842079  76.8688926  64.1219829  38.5088226  76.4982280  62.6015236
  38.9107462  77.3808500  62.6210606  39.1865668  75.8291715  62.4171324
  37.4959184  76.4662785  61.4794691  36.9964793  75.6357829  61.5302498
  36.8949242  77.2213199  61.5780814  38.1237281  76.5477467  60.1069342
  39.3472515  76.5209953  59.9584626  37.2811395  76.6364569  59.0868004
  36.4334814  76.6450975  59.2283990  37.5835224  76.6854757  58.2833020
  37.2257154  74.8233042  63.9835095  37.8589598  73.8305014  63.6372292
  35.9652546  74.7510833  64.3849913  35.4764700  75.4367983  64.5579933
  35.2822218  73.4632311  64.5705768  34.4603399  73.5784863  65.0733663
  34.9416008  72.9321742  63.1978550  35.7518574  72.8732111  62.6682877
  34.5383339  72.0547955  63.2860107  33.9505611  73.8453570  62.4637076
  32.9397396  74.2226924  63.0214503  34.2873187  74.2444909  61.2440099
  33.7591246  74.7568545  60.7989195  35.0326596  73.9904939  60.8988788
  36.1759671  72.5924722  65.4337941  36.5841802  73.0609619  66.5160581
  36.5605963  71.3852701  65.0259796  36.3970962  71.0662621  64.2444410
  37.3082063  70.4829835  65.8919271  37.1589126  70.7445847  66.8140589
  36.7884490  69.0558664  65.7147627  36.8885684  68.7975949  64.7841576
  37.3034560  68.4599930  66.2814599  35.0315946  68.8805023  66.1621999
  34.4509474  68.3412266  65.2603432  38.8161152  70.5393588  65.6641847
  39.5559611  69.6639911  66.1415487  39.2916245  71.5424777  64.9454821
  38.8010038  72.1664179  64.6141454  40.7034843  71.6836556  64.6439216
  41.1962843  70.9326269  65.0095623  40.9323694  71.7115042  63.1221315
  40.1630212  72.1154204  62.6919698  42.1352760  72.5450733  62.7546697
  42.3662415  72.3749806  61.8289432  41.9177043  73.4825172  62.8739112
  42.8766710  72.3013373  63.3314020  41.1198194  70.2638042  62.6259652
  41.5272392  70.2823564  61.7455704  41.6943983  69.7892246  63.2471233
  40.2526478  69.8307445  62.5806036  41.2402869  72.9336360  65.3317493
  40.5239574  73.9323330  65.5004455  42.4819688  72.8330356  65.7998250
  42.9116016  72.0900793  65.8521372  43.2533956  73.9745332  66.2798572
  42.6489822  74.6678451  66.5876674  44.1623086  73.5651497  67.4275437
  44.3207105  72.6149055  67.3158573  44.9883929  74.0564541  67.3007618
  43.8348133  73.7312521  68.8916102  43.0714126  73.1943049  69.1554815
  45.0896420  73.2877042  69.6815913  45.0355820  73.6395865  70.5840797
  45.1210406  72.3187512  69.7063349  45.8798226  73.6331001  69.2387230
  43.4588886  75.1645365  69.1935332  43.5823680  75.3308656  70.1406058
  44.0281540  75.7561457  68.6766885  42.5298395  75.3049110  68.9513354
  44.1247985  74.4992637  65.1460018  44.6917923  73.7108883  64.3779854
  44.2323867  75.8225295  65.0592011  43.7824580  76.3600038  65.5580143
  45.1073785  76.5281454  64.1258365  45.5634953  75.8786871  63.5694101
  44.3140066  77.4792527  63.2301335  43.6822277  77.9778700  63.7729653
  44.9260217  78.0885438  62.7893731  43.5330881  76.7222156  62.1578732
  44.0962156  76.5995773  61.3767374  43.2591325  75.8603254  62.5076483
  42.3261939  77.4586203  61.7459017  41.5797465  76.8411896  61.6889225
  42.1354379  78.1503913  62.3981524  42.4930615  78.1076951  60.4167377
  43.0625208  78.8896389  60.4863516  42.8657344  77.4833653  59.7739187
  41.1285101  78.5139232  59.9919375  41.1640765  78.9203199  59.2008890
  40.6043958  77.7979260  59.9251291  40.7778350  79.0740963  60.5882161
  46.1278499  77.3096512  64.9356970  45.7712327  78.2432775  65.6604605
  47.3812543  76.9399236  64.8240010  47.6515503  76.3001009  64.3180505
  48.4422583  77.6044078  65.5726319  48.0891043  78.2148036  66.2385562
  49.2874530  76.5880734  66.3213389  49.7566598  76.0420634  65.6712958
  49.9244158  77.0676609  66.8744494  48.5108594  75.6463273  67.2322904
  47.8103910  75.2077933  66.7245631  49.4703943  74.5909729  67.7886832
  49.0028169  74.0550602  68.4484490  49.7762413  74.0266407  67.0608784
  50.2260880  75.0372796  68.2006047  47.8276542  76.3983077  68.3559461
  47.2050941  75.8028022  68.8020696  48.4990102  76.7056418  68.9842556
  47.3510657  77.1573419  67.9835157  49.2377013  78.3963956  64.5463108
  49.8110970  77.8120824  63.6234151  49.2094340  79.7274013  64.6619560
  48.7308233  80.1602094  65.2313337  50.0210176  80.5653214  63.7971116
  50.0263168  80.2201903  62.8902878  49.4627278  81.9885636  63.7028767
  48.5601415  81.9515308  63.3485611  49.4567964  82.3857881  64.5869878
  50.3050421  82.8915195  62.7765914  51.1626376  83.0611302  63.1961521
  50.4343039  82.4389361  61.9285916  49.6444987  84.2407399  62.4935020
  48.9174280  84.3808035  63.1202487  50.3024979  84.9467112  62.5856735
  49.0690844  84.2950145  61.0609206  48.7139744  83.4206988  60.8348080
  48.3613683  84.9574118  61.0343750  50.0783414  84.6629797  60.0098112
  49.6744099  84.7611207  59.2224951  50.4782201  85.4273625  60.2268939
  50.6930481  84.0239282  59.9415189  51.4343801  80.5683773  64.3672564
  51.6199625  80.7431294  65.5732813  52.4179112  80.3175920  63.5200585
  52.3114253  80.1876442  62.6767820  53.7975743  80.2420160  63.9756461
  53.8285003  80.4023388  64.9308917  54.4489106  78.8523261  63.7498411
  55.3911054  78.9364916  63.9650391  53.8208923  77.7791645  64.7057968
  54.4265416  77.0241339  64.7744307  53.6874857  78.1757285  65.5816830
  52.9713131  77.4894600  64.3405152  54.3747315  78.3975040  62.2797233
  54.8911484  77.5825734  62.1752834  53.4481563  78.2329745  62.0457993
  54.7397075  79.0953167  61.7135971  54.5731390  81.3396190  63.2633842
  54.1174909  81.9212807  62.2745063  55.7545587  81.6364229  63.7885328
  56.1282426  81.2043653  64.4315791  56.5172412  82.7665728  63.2783001
  55.8974914  83.4504182  62.9796903  57.3627770  83.3762192  64.3886466
  57.7500587  84.2059379  64.0676842  56.7937758  83.5510740  65.1554669
  58.4938566  82.4851638  64.8471399  58.6877128  81.3702771  64.3052003
  59.1969007  82.9228684  65.7750799  57.3906014  82.4022922  62.0915256
  58.0689454  83.2850241  61.5690730  57.3552704  81.1423854  61.6373037
  56.8944151  80.5175114  62.0086605  58.0938204  80.6904149  60.4640094
  58.4423560  81.4634352  59.9936982  59.2780158  79.7829282  60.8558639
  58.9378200  78.9415992  61.1991224  60.1552320  79.4811032  59.6535518
  61.0438299  79.2259475  59.9466120  59.7724112  78.7533578  59.1379047
  60.2238198  80.2654471  59.0868144  60.0612073  80.4368750  61.8541228
  59.5599222  80.8463973  62.3899200  57.1523882  79.9400447  59.5296363
  56.4358983  79.0127298  59.9443799  57.1436153  80.3524553  58.2723434
  57.5642076  81.0437406  57.9830135  56.3954334  79.6386674  57.2519177
  55.5528709  79.3318504  57.6238931  56.0896880  80.5599255  56.0721329
  56.3806677  80.1302816  55.2530482  55.1345550  80.7239046  56.0385027
  56.5651478  81.3962951  56.1938616  57.1812413  78.4268137  56.7718536
  58.3949740  78.4894231  56.5748763  56.4762257  77.3338422  56.5643077
  55.6264653  77.2698971  56.6767192  57.1213520  76.1199524  56.1140016
  57.8376513  75.8846161  56.7249633  56.0928033  74.9861108  56.0796404
  55.6888133  74.8972889  56.9566557  55.4130710  75.1948527  55.4207976
  56.7083950  73.6645414  55.7128677  57.8774259  73.5934099  55.3675256
  55.9105854  72.5906035  55.7835447  55.0907226  72.6796125  56.0301545
  56.2175917  71.8126076  55.5839363  57.7566330  76.3168003  54.7390809
  57.0430812  76.4446046  53.7498530  59.0914800  76.2852287  54.6247973
  60.0768682  75.9459440  55.6749763  59.8207309  75.1309672  56.1349813
  60.1636152  76.6731478  56.3115245  61.3702085  75.7473069  54.9139282
  61.5306160  74.8027705  54.7572041  62.1146099  76.1331327  55.4001905
  61.2134183  76.4472112  53.6055247  61.7053217  75.9893446  52.9066697
  61.5096841  77.3691981  53.6692864  59.7068295  76.4030288  53.2978994
  59.4500488  77.2401202  52.8795602  59.3593801  75.2458201  52.3672594
  59.6389959  75.3263492  51.1653883  58.7547919  74.1743151  52.8731358
  58.5254356  74.0949936  53.6972947  58.4255184  73.0206019  52.0477499
  58.8774329  73.1107738  51.1945551  58.9287914  71.7324703  52.7107487
  58.6066088  71.7020088  53.6258249  58.5923935  70.9701663  52.2154145
  60.4395977  71.6427411  52.7441845  60.7842544  71.7470541  51.8428879
  60.7887476  72.3432799  53.3161439  60.9264454  70.2955494  53.2872828
  60.5371855  70.1332490  54.1609929  60.6776475  69.5853724  52.6758065
  62.4344703  70.3217385  53.4204141  62.8344907  70.2581146  52.5388673
  62.7035156  71.1494424  53.8480985  62.9318248  69.1939836  54.2384944
  63.8213631  69.2016501  54.2592723  62.6221892  69.2612578  55.0707738
  62.6578958  68.4219878  53.8909023  56.9275105  72.9272742  51.7714472
  56.4433962  71.8628391  51.3932869  56.1942935  74.0157753  51.9403146
  56.5037091  74.7789327  52.1887172  54.7596017  74.0003319  51.7102516
  54.3401294  73.3244609  52.2660963  54.1571170  75.3592796  52.0747737
  54.5913846  76.0306930  51.5257284  52.6574280  75.3831597  51.8269054
  52.3981292  76.2345601  51.4404866  52.4107622  74.6726732  51.2142636
  52.1799445  75.2583152  52.6622666  54.3548578  75.6347148  53.4650675
  55.1623048  75.8180222  53.6107824  54.4844360  73.6742776  50.2458154
  54.8801524  74.4492978  49.3619187  53.7914588  72.5930560  49.9396235
  53.2313171  71.5792787  50.8624089  52.6579969  71.9945337  51.5248832
  53.9395822  71.0826059  51.3006984  52.4205998  70.6682342  49.9318341
  51.4967449  70.9574608  49.8775460  52.4619818  69.7440546  50.2237887
  53.0992775  70.8203454  48.5709613  52.4954134  70.5982032  47.8444368
  53.9027850  70.2807429  48.5110462  53.4486708  72.3062050  48.5418457
  54.1958193  72.4562227  47.9417208  52.2454895  73.1372829  48.1278274
  51.5519628  73.7065817  48.9610733  51.9863422  73.1801143  46.8212509
  52.5294675  72.9421030  46.1989010  50.6883879  73.6614248  46.3610609
  50.5143289  74.5636264  46.6713669  50.6331943  73.7336336  44.8329086
  51.2790516  74.3895281  44.5283422  50.8510902  72.8599722  44.4716635
  49.2688082  74.1353756  44.2834736  48.6097289  73.4789880  44.5588349
  49.0327792  75.0097048  44.6319615  49.2512623  74.2125468  42.7619564
  49.9640132  74.7993345  42.4616911  49.3772032  73.3237434  42.3943866
  47.9157585  74.7673921  42.2384287  47.2001506  74.1589406  42.4817332
  47.7568332  75.6394210  42.6316237  47.9155074  74.9173735  40.7601034
  47.1464832  74.6203349  40.4240129  48.0147106  75.7739676  40.5416470
  48.5854935  74.4501778  40.4066678  49.6478109  72.6934071  46.9058887
  49.8366511  71.4823909  46.8376240  48.5782709  73.2117774  47.4920793
  48.3770402  74.0481397  47.5033186  47.6449054  72.3410895  48.1823086
  47.6020982  71.4980550  47.7040940  48.0868253  72.0872786  49.6313065
  47.5681370  71.3536812  49.9978106  49.0302742  71.8625670  49.6399558
  47.8832273  73.2948216  50.5152108  48.8670694  74.2875592  50.6356763
  49.6639482  74.2052690  50.1641941  48.6570959  75.4131402  51.4661898
  49.3172616  76.0632796  51.5496944  47.4475912  75.5399536  52.1620078
  47.1772880  76.6239805  52.9978683  46.3578608  76.8085740  52.9727827
  46.4746337  74.5566497  52.0452209  45.6753641  74.6344782  52.5126562
  46.7010288  73.4476271  51.2223332  46.0401631  72.7968136  51.1488811
  46.2564707  72.9565766  48.1799209  46.0833788  74.1445086  47.8978755
  45.2589088  72.1164327  48.4726079  45.3197008  71.2591263  48.4451110
  43.9526966  72.6120266  48.8755597  44.0740776  73.4660620  49.3187010
  43.0272894  72.8358974  47.6886184  42.1310497  72.9951814  48.0239524
  43.3403350  73.6121914  47.1988460  42.9502377  71.7167559  46.7388741
  43.7912219  71.2342273  46.7280716  42.2280417  71.1204814  46.9892014
  42.6781177  72.2663691  45.3494911  42.1164627  73.0545331  45.4177501
  43.5187052  72.4942050  44.9219452  41.9642693  71.2391196  44.4922771
  42.0707402  71.4642606  43.5547434  42.3301217  70.3578966  44.6662625
  40.5092070  71.2265549  44.8196481  40.2284883  70.3891952  44.9291681
  40.3628894  71.6810472  45.5715883  40.0459171  71.6035213  44.1603008
  43.3363347  71.6440533  49.8695228  43.8693473  70.5590823  50.1271337
  42.2395526  72.0946414  50.4736424  41.9120352  72.8769480  50.3317032
  41.4726870  71.3273249  51.4358645  41.9867926  70.5493329  51.7034948
  41.1419949  72.1366637  52.6880875  40.7003255  72.9561070  52.4132604
  40.5465832  71.6096930  53.2437553  42.3254469  72.5286722  53.5434587
  43.5406189  71.8785475  53.4620235  43.6484051  71.1777925  52.8602931
  44.6121467  72.2634500  54.2766948  45.4264701  71.8195751  54.2162931
  44.4538295  73.3164816  55.1806468  45.1592371  73.5705265  55.7309579
  43.2423974  73.9798869  55.2533849  43.1338976  74.6897257  55.8445335
  42.1857850  73.5830117  54.4391482  41.3721292  74.0300819  54.4956328
  40.1669667  70.9258128  50.7711898  39.4340115  71.7849956  50.2695447
  39.8539015  69.6503893  50.7971521  40.3413989  69.0362096  51.1502138
  38.6169128  69.1812778  50.2049499  38.0347754  69.9385504  50.0354439
  38.8387842  68.4621465  48.8609736  37.9774028  68.3039096  48.4451948
  39.6723227  69.3307494  47.9337629  39.7960196  68.8661846  47.0916349
  39.2073515  70.1688789  47.7838072  40.5325816  69.4996460  48.3480895
  39.4945377  67.1307554  49.0679304  39.5634149  66.6760279  48.2129954
  40.3788828  67.2685266  49.4410615  38.9556478  66.6040412  49.6788812
  37.9554931  68.2556106  51.1979162  38.6161679  67.6227630  52.0237540
  36.6393998  68.1937323  51.1130607  36.1694450  68.7181185  50.6203086
  35.8460815  67.2298040  51.8465798  36.3607095  66.8346801  52.5677713
  34.6303864  67.8979727  52.4636755  34.9279181  68.6209143  53.0382183
  34.0693462  68.2477122  51.7537162  33.7980312  66.9589798  53.2933370
  33.3576176  66.3204166  52.7104246  34.3702031  66.4935744  53.9230997
  32.7312373  67.7019653  54.0780181  33.1430938  68.3965902  54.6152513
  32.0874721  68.0945651  53.4670363  32.0356614  66.7768977  54.9620074
  31.3583555  66.3547162  54.6390315  32.3607155  66.5310929  56.2268334
  33.3694927  67.1583651  56.8108658  33.8286298  67.7372797  56.3713490
  33.5650279  66.9861985  57.6304332  31.6347730  65.6650582  56.9168975
  30.9661694  65.2720876  56.5454552  31.8328699  65.4947431  57.7363695
  35.4400616  66.1367197  50.8707009  34.7425950  66.4021114  49.8915219
  35.8892170  64.9100213  51.1257999  36.3375945  64.6770896  51.8217212
  35.6093882  63.8530490  50.1618267  35.5779782  64.2517275  49.2777588
  36.7126108  62.7861521  50.1698860  36.4973482  62.0347725  49.5963796
  37.9674133  63.4113209  49.6249414  38.6430522  62.7232471  49.5181124
  37.7705336  63.8171637  48.7657423  38.2791042  64.0873406  50.2455694
  36.8465461  62.1918951  51.5628669  37.1316727  62.8870080  52.1761612
  35.9869114  61.8389351  51.8386427  37.8232583  61.1067191  51.6240581
  38.5365029  61.3566606  52.2318388  37.3827553  60.3029970  51.9428589
  38.1841658  60.9553882  50.7362931  34.2540246  63.2433283  50.4234643
  33.6200834  63.4861054  51.4567154  33.7948111  62.4930359  49.4625928
  34.2377067  62.3550161  48.7392989  32.5457014  61.7915567  49.4127220
  31.8970100  62.1954339  50.0106925  31.9762813  61.8354121  47.9912990
  32.6395652  61.4813319  47.3784852  31.1723254  61.2940502  47.9607831
  31.6119328  63.2389687  47.5234797  32.3208459  63.8524341  47.7745424
  31.5031923  63.2344672  46.5595376  30.3264802  63.7281498  48.1394313
  29.2362035  63.2385799  47.8090421  30.4367646  64.6863429  49.0485651
  31.2126716  64.9937603  49.2572080  29.7334165  65.0002573  49.4305811
  32.7702099  60.3577313  49.8146582  33.8028384  59.7734961  49.4538569
  31.8100369  59.8122325  50.5513895  30.5439682  60.4465578  50.9617653
  29.9701946  60.6030514  50.1948861  30.7094460  61.2812814  51.4280696
  29.9495423  59.4401536  51.8722126  28.9809044  59.4758228  51.8367961
  30.2547281  59.5789326  52.7823423  30.4221116  58.1075486  51.3814366
  29.8457326  57.7708463  50.6789860  30.4705967  57.4665020  52.1079889
  31.8217808  58.3756864  50.8265155  32.4808571  58.1399866  51.4976303
  32.0661181  57.6184759  49.5354662  31.5121105  57.9502399  48.4870687
  32.9218003  56.6143677  49.6076922  33.3243432  56.3726803  50.3284837
  33.2512742  55.8323164  48.4541045  33.3250468  54.9019182  48.7194473
  32.5359744  55.9200706  47.8043673  34.5384851  56.2239389  47.7790682
  35.0952549  55.4158300  47.0138908  35.0337170  57.4203415  48.0610101
  34.6499227  57.9965103  48.5710028  36.3002967  57.8681819  47.5143440
  36.3778814  57.5215370  46.6114576  36.3735184  59.3938757  47.4670766
  36.1871138  59.7411680  48.3534757  37.2665521  59.6525317  47.1907838
  35.3894551  60.0296860  46.5053158  34.4885586  59.9027166  46.8412224
  35.5846756  60.9768755  46.4307313  35.4669413  59.4242117  45.1252844
  34.6878735  58.5280737  44.7892011  36.4155022  59.8926801  44.3216990
  36.9457557  60.5104847  44.5974178  36.4981310  59.5774809  43.5252255
  37.4579350  57.3618005  48.3534270  37.3003642  56.9898624  49.5247564
  38.6464100  57.3886475  47.7482193  38.7777492  57.7224171  46.9663306
  39.8492195  56.8460662  48.3638003  39.6173266  56.4742537  49.2292453
  40.4640236  55.7466725  47.4972812  41.3389000  55.4892853  47.8293252
  39.5653880  54.5159249  47.5298291  39.4834442  54.1400583  46.6397378
  39.9420598  53.8448178  48.1208423  38.6827663  54.7577580  47.8518516
  40.6162912  56.2336416  46.1518520  41.3887252  56.5480321  46.0459773
  40.8774196  57.9441388  48.5751938  40.8538891  58.9791297  47.9046521
  41.7944602  57.6867046  49.5043434  41.7904579  56.9947993  50.0145316
  42.9156254  58.5971446  49.7339990  43.2442614  58.9326434  48.8852900
  42.4827200  59.7934906  50.5952157  43.2661615  60.3259346  50.8033593
  41.8452493  60.3238564  50.0912989  41.8231120  59.4080445  51.9122234
  40.4645725  59.1828601  51.9835647  39.9451888  59.2656676  51.2156309
  39.8555494  58.8294223  53.1941318  38.9432724  58.6522643  53.2145188
  40.5770324  58.7435199  54.3291723  40.1616334  58.5355995  55.1354320
  41.9483641  58.9670363  54.2859660  42.4561241  58.8877087  55.0608840
  42.5604570  59.3096866  53.0847374  43.4758362  59.4735361  53.0675535
  44.0509703  57.8261020  50.3932253  43.8527637  56.7357265  50.9422504
  45.2478566  58.4093064  50.3300614  45.4116338  59.1294655  49.8892974
  46.4033757  57.8592832  51.0198397  46.2688237  56.9029929  51.1108711
  47.6870108  58.1099527  50.2384105  47.8303819  59.0674441  50.1769219
  48.4244648  57.6934988  50.7113690  47.6319744  57.5756310  48.9239538
  47.5450739  56.7399885  48.9568606  46.5612076  58.4764610  52.4051056
  46.3093247  59.6633613  52.6081220  47.0465815  57.6672946  53.3406076
  47.2542770  56.8452673  53.1940993  47.2786911  58.0854885  54.7138217
  47.0043129  59.0095480  54.8193564  46.4809933  57.2185757  55.7138719
  46.6972927  56.2855744  55.5628083  46.8648485  57.6188765  57.1249033
  46.0761935  57.5811282  57.6887822  47.5370761  57.0033890  57.4550292
  47.2191966  58.5207985  57.1114844  44.9589258  57.3623576  55.5150623
  44.5038408  57.0103482  56.2955654  44.7423937  58.3014988  55.4015163
  44.6951213  56.8641429  54.7254629  48.7669519  57.9849634  54.9911676
  49.3740413  56.9326820  54.7484016  49.3575313  59.0842701  55.4879076
  48.9731290  59.8530625  55.5269227  50.7223920  59.0862842  56.0142176
  51.2022313  58.3185688  55.6655856  51.4938615  60.3437210  55.6003739
  51.5612211  60.3540906  54.6328807  50.9979015  61.1191206  55.9063202
  52.9074167  60.4587149  56.1574476  52.8700053  60.3836368  57.1239799
  53.7364575  59.3445378  55.5683688  54.6708637  59.5032772  55.7743975
  53.4509380  58.5010275  55.9538853  53.6074978  59.3287345  54.6073341
  53.5661019  61.8412306  55.8764420  54.3894344  61.9078296  56.3850904
  53.7558112  61.9139343  54.9283140  52.9534633  62.5439588  56.1461120
  50.6064866  58.9893606  57.5310857  50.3947768  59.9994905  58.2020340
  50.7373910  57.7790227  58.0799628  50.9033447  57.0545320  57.6467173
  50.5985480  57.6119184  59.5160192  49.8037803  58.0665319  59.8384348
  50.4416286  56.1310320  59.8942065  49.8857828  56.0648601  60.6864645
  50.0236245  55.6603554  59.1566951  51.3181943  55.7569895  60.0724139
  51.8471698  58.1863590  60.1693151  52.9571906  57.9573818  59.6935869
  51.6701862  58.9420340  61.2579414  50.9061245  59.1011404  61.6171904
  52.8014251  59.5740714  61.9420411  53.6124017  59.1313413  61.6461218
  52.9127984  61.0647056  61.6306708  52.0804112  61.4942738  61.8823368
  53.6456818  61.4318816  62.1480059  53.2178478  61.4556620  59.9141173
  52.1687952  61.6512444  59.3656528  52.6625653  59.3962303  63.4418369
  51.5756587  59.1477726  63.9407737  53.8013513  59.5090373  64.1463524
  54.5693166  59.6095433  63.7733514  53.9054062  59.4801347  65.6048115
  53.0584262  59.7214114  66.0136348  54.2534939  58.0603568  66.1492954
  55.0971075  57.7613102  65.7762536  54.3071789  58.0823479  67.1168435
  53.1569406  57.0917603  65.7347154  53.2706667  56.3380996  64.5693009
  54.0516243  56.3891157  64.0667548  52.2394080  55.5097371  64.1434054
  52.3318430  54.9929165  63.3763707  51.0734975  55.4710630  64.8839829
  50.0364893  54.6925886  64.4858023  49.8302658  54.8738214  63.6914652
  50.9398896  56.2155794  66.0403368  50.1572435  56.1694622  66.5402090
  51.9794851  57.0292016  66.4459290  51.8823561  57.5444802  67.2142245
  54.9657077  60.5018074  65.9921754  56.0441315  60.5414074  65.3941855
  54.6369823  61.3451827  66.9618180  53.8781832  61.3319045  67.3661763
  55.5320837  62.3976615  67.4523511  54.9956836  62.9755932  68.0181858
  56.6869081  61.8242783  68.2886348  57.2442275  61.2706980  67.7194240
  57.2087163  62.5570828  68.6513574  56.2096074  60.9751408  69.4428010
  55.5456098  61.4595038  70.3534802  56.5335056  59.6990314  69.4003664
  56.2868025  59.1714902  70.0321060  56.9919892  59.3936086  68.7397480
  56.1049842  63.2297834  66.3128529  57.2798218  63.5852409  66.3213145
  55.2648710  63.5473394  65.3248514  54.4385454  63.3116841  65.2914944
  55.7107648  64.3428123  64.1935484  54.9299706  64.6994055  63.7430023
  56.2460242  65.0793353  64.5284100  56.5372491  63.6101386  63.1621387
  56.9351922  64.2326597  62.1769500  56.8048556  62.3067599  63.3431491
  56.5112097  61.8328637  63.9966048  57.6469891  61.5940820  62.3968350
  58.0359196  62.2374164  61.7834616  58.7829734  60.8586930  63.1258425
  58.3982977  60.2791856  63.8029812  59.2804842  60.3305327  62.4816533
  59.6623021  61.7642636  63.7483726  60.0784790  62.2057544  63.1672291
  56.8321975  60.5991012  61.5832008  56.0686113  59.7977222  62.1503356
  56.9941514  60.6047760  60.2657549  57.5121287  61.7470655  59.4891126
  58.4799476  61.7176701  59.4355630  57.2266012  62.5882474  59.8776897
  56.8892699  61.5449969  58.1176065  57.4841087  61.8547061  57.4178100
  56.0356877  62.0016917  58.0538776  56.6822294  60.0359061  57.9963127
  57.4971719  59.5891873  57.7190042  55.9631872  59.8270699  57.3807384
  56.3012613  59.6130409  59.4237224  55.3444743  59.6867159  59.5637742
  56.7167126  58.1765938  59.7028946  57.8847767  57.8690442  59.9531115
  55.7328633  57.2817394  59.6791187  54.9057775  57.4687567  59.5372749
  56.0115171  55.8732535  59.8988128  56.9648613  55.7629296  60.0453408
  55.2950145  55.3806032  61.1608000  55.9575973  55.1497719  61.8318886
  54.7175236  56.0854670  61.4933435  54.5132947  54.2414238  60.8792588
  54.5293010  53.7133361  61.5318422  55.6308135  54.9901216  58.7298766
  56.3174516  54.0025273  58.4824648  54.5718956  55.3101705  58.0050411
  54.0968515  56.0177292  58.1218732  54.1153760  54.4611399  56.9191594
  54.8533328  54.2653224  56.3202694  53.7682180  53.6273539  57.2742767
  53.0316871  55.1500014  56.1463069  52.4277778  56.1223072  56.6100407
  52.7921257  54.6702334  54.9293973  53.2217818  54.0064975  54.5909089
  51.7861717  55.2088201  54.0400683  51.1871633  55.7969107  54.5264235
  52.4370217  56.0279710  52.9076152  52.9336995  56.7630099  53.2992770
  53.3904970  55.1670289  52.1365774  54.0385035  55.7343477  51.6904351
  53.8430652  54.5670851  52.7505803  52.8932994  54.6540020  51.4799413
  51.3780897  56.6353340  51.9829006  51.7468648  57.4235822  51.5550097
  51.1302745  55.9795849  51.3115775  50.6004904  56.8790327  52.5094245
  50.9426262  54.0610396  53.5035613  51.4651051  52.9914489  53.1475016
  49.6296502  54.2597828  53.4873331  49.2372822  54.9630233  53.7908790
  48.7338269  53.2555159  52.9277631  49.1485712  52.8024225  52.1782949
  48.3930790  52.2028194  53.9971114  47.7618812  51.5709038  53.6194116
  49.2092793  51.7444985  54.2520076  47.7706322  52.7737710  55.2619727
  48.5375511  53.1060052  56.3613711  49.4566494  52.9676487  56.3334303
  47.9680635  53.6406244  57.5045309  48.5023262  53.8673035  58.2320836
  46.6158775  53.8334760  57.5579939  46.0315691  54.3516318  58.6964311
  45.3953494  54.8592661  58.4874172  45.8349764  53.5224895  56.4745651
  44.9155708  53.6598564  56.5064967  46.4225349  53.0007422  55.3327311
  45.8886028  52.7996626  54.5972691  47.4878586  53.9428709  52.3698177
  47.2068899  55.1055527  52.6530431  46.7494452  53.1986181  51.5761286
  46.9206942  52.3707303  51.4168410  45.5649379  53.6671692  50.8746898
  45.5035004  54.6356394  50.8620471  45.6486693  53.1566739  49.4302378
  46.5128064  53.4110462  49.0704727  45.5685685  52.1903428  49.4467960
  44.6084383  53.6666273  48.4798006  44.5291012  53.0432140  47.7400118
  43.7624126  53.7325422  48.9489507  44.9188926  55.0137105  47.9083577
  45.8905723  55.6825334  48.2710594  44.0904400  55.4292660  46.9971750
  43.4239363  54.9369494  46.7666405  44.2079021  56.1954803  46.6259079
  44.2957321  53.1950250  51.5920352  44.2431040  52.0909102  52.1253079
  43.2983361  54.0849521  51.6409534  43.3019709  54.8106583  51.1794619
  42.0905284  53.9671782  52.4571671  42.0659218  53.0424607  52.7486684
  42.0513991  54.9397142  53.6683188  42.4232293  55.7893769  53.3824347
  41.1239083  55.0557923  53.9296419  42.9057824  54.4661785  55.0627643
  42.6607211  53.3154413  55.2992849  40.8763114  54.3775292  51.6207354
  40.9972446  55.0267351  50.5807426  39.6947307  54.1049303  52.1382196
  39.5649736  53.5907638  52.8156072  38.4927387  54.6816747  51.5682589
  38.7040751  55.4234750  50.9796612  37.7505904  53.6293867  50.7440023
  37.0364234  54.0622302  50.2500892  38.3733595  53.2145018  50.1272737
  37.3820245  52.9614477  51.3428192  37.6234535  55.2656426  52.6732597
  37.6232160  54.7888380  53.8119051  36.9070237  56.3331349  52.3292853
  37.0332742  56.7929314  51.6135884  35.8197288  56.8225019  53.1652630
  36.1034381  56.8794762  54.0912905  35.4180809  58.2297490  52.7423451
  36.2001916  58.8004808  52.7877334  35.0857862  58.1942888  51.8306912
  34.3212859  58.8727927  53.6119413  34.1640017  59.7755517  53.2929712
  33.5109875  58.3455726  53.5283143  34.7205451  58.9766313  55.3538229
  36.0690804  60.1480650  55.2763073  36.3136977  60.4080681  56.1790087
  36.8253749  59.7303912  54.8368051  35.7823053  60.9262039  54.7741352
  34.6585327  55.8391371  53.0344684  34.0650240  55.7148809  51.9594025
  34.3861041  55.0761033  54.0969636  34.8070823  55.1047417  54.8466184
  33.3093988  54.1049984  54.0411157  33.4478391  53.5573862  53.2514448
  33.3049946  53.1953783  55.2630519  33.2167544  53.7487506  56.0555106
  32.5473395  52.5933465  55.1934925  34.5509310  52.3396549  55.4452219
  35.3004418  52.9174950  55.6547435  34.3985373  51.7151189  56.1714271
  34.9113844  51.5435414  54.2216233  35.1399743  52.1526721  53.5024763
  35.6683385  50.9723422  54.4264257  33.8161422  50.6957871  53.7661968
  33.0878896  50.6952924  54.2221835  33.8766203  49.9230184  52.6869133
  35.0018790  49.8481646  51.9741897  35.6925815  50.3009101  52.2123105
  35.0365736  49.3461887  51.2760512  32.8174551  49.2174282  52.3326641
  32.0965183  49.2597888  52.8000919  32.8488487  48.7141389  51.6356998
  31.9523280  54.7947374  53.9425358  31.7973806  55.9558935  54.3202827
  30.9409318  54.0824042  53.4612447  31.0179730  52.8566749  52.6415171
  31.1075876  52.0680312  53.2010770  31.7553268  52.9026818  52.0133421
  29.6705017  52.8644636  51.9127509  29.3746786  51.9623741  51.7123806
  29.7148702  53.3876330  51.0982146  28.7336865  53.5149437  52.9040071
  28.4708838  52.8970773  53.6040706  27.9460177  53.8740859  52.4650905
  29.5917542  54.6512560  53.4821386  29.5446455  55.4177345  52.8895338
  29.1323285  55.0782490  54.8526505  28.2995771  55.9877950  54.9341455
  29.6416174  54.4756992  55.9331927  30.2016952  53.8232392  55.9092389
  29.2631468  54.9083486  57.2812712  28.3656514  55.2735514  57.2395841
  29.1986518  53.7226987  58.2512179  28.8339854  54.0293218  59.0960153
  28.6253089  53.0392423  57.8712056  30.5389670  53.0940607  58.5302942
  31.5888274  53.5716717  58.0983602  30.5151235  52.0370577  59.3044899
  31.2473161  51.6315417  59.5023654  29.7670623  51.7481166  59.6155068
  30.1917262  55.9998496  57.8244018  30.1648507  56.2844378  59.0210084
  30.9887068  56.6178541  56.9637868  31.0523903  56.3851572  56.1382024
  31.8473639  57.7499657  57.2978608  32.2690330  58.0494134  56.4761917
  31.0326431  58.9067402  57.8717936  30.5111842  58.5801897  58.6219265
  31.6396662  59.6024584  58.1677328  30.0898912  59.5102168  56.8886574
  30.5573820  60.3401098  55.8838211  31.4675737  60.5172955  55.8184269
  29.6875013  60.9026361  54.9830917  30.0041691  61.4732805  54.3203191
  28.3430751  60.6180582  55.0668514  27.7504984  60.9860942  54.4522163
  27.8791556  59.7879918  56.0593907  26.9701859  59.6012695  56.1192567
  28.7448346  59.2371065  56.9579224  28.4224219  58.6718465  57.6233419
  32.9642983  57.3881557  58.2566112  33.5591413  58.2742859  58.8709589
  33.2545174  56.1090380  58.4150589  32.7566609  55.4617620  58.1437976
  34.4777543  55.6888141  59.0818493  34.7731422  56.4059479  59.6643088
  34.2553348  54.4450308  59.9447849  35.0590722  54.2496763  60.4511137
  33.1489355  54.6740083  60.9059118  33.2022530  54.0344146  61.6331965
  33.2067337  55.5709548  61.2711053  32.2931079  54.5707589  60.4590922
  33.9491059  53.3140508  59.0997481  33.1875529  53.4072045  58.7595081
  35.5421957  55.3811448  58.0348321  35.2743330  55.2780261  56.8377297
  36.7606109  55.1814536  58.5021028  37.0148705  55.3698732  59.3015964
  37.7895441  54.6046404  57.6512227  37.3831381  54.2853726  56.8303693
  38.8773128  55.6131703  57.2102829  39.2741563  55.2589058  56.3992484
  38.2587005  57.0109079  56.8983515  38.7132127  57.3929739  56.1302693
  37.3145812  56.9023566  56.7032689  38.3737397  57.5865990  57.6706512
  39.9669787  55.7495972  58.2493911  39.5833180  56.0931918  59.0710730
  40.3685734  54.8807493  58.4073970  41.0751534  56.7162458  57.7951265
  41.8136966  56.6658466  58.4208356  41.3737235  56.4594651  56.9079852
  40.7185001  57.6175552  57.7759245  38.3892671  53.4299491  58.4099174
  38.4647736  53.4327209  59.6429997  38.8124894  52.4210879  57.6570920
  38.7442552  52.4027756  56.8000916  39.4459374  51.2247506  58.2198197
  39.2435903  51.1401789  59.1642822  38.9104954  49.9651446  57.5284569
  39.1891005  49.9714591  56.5992765  39.2678265  49.1827274  57.9763653
  37.3758158  49.8777385  57.5670290  37.0601545  50.3312010  58.3638092
  37.0211491  50.3125534  56.7752825  36.8102797  48.4366492  57.5981219
  37.3351594  47.9054249  58.2171930  35.8851048  48.4661756  57.8875242
  36.8541460  47.7469966  56.2287060  37.0706986  48.4056870  55.5507408
  37.5319965  47.0530667  56.2458843  35.5376656  47.1058568  55.8550909
  35.5998116  46.7326499  55.0494213  35.3251888  46.4782905  56.4498776
  34.8938979  47.7197927  55.8399945  40.9545764  51.4067215  58.0698862
  41.6105875  50.8432489  57.1913453  41.5121194  52.2201135  58.9544965
  41.0867244  52.5977439  59.5989841  42.9195081  52.5445526  58.9032604
  43.2375897  52.4609032  57.9903925  43.0498422  53.4591339  59.1999810
  43.7457582  51.6325385  59.7843774  43.2730666  50.6424749  60.3288743
  45.0184399  51.9871650  59.9094187  45.3904920  52.6039906  59.4395214
  45.9190698  51.3584168  60.8642515  45.4394299  50.7767017  61.4746449
  46.9557375  50.4810700  60.1639590  46.5031572  49.7387165  59.7347885
  47.4223169  51.0127497  59.5000597  47.8940048  49.9741643  61.0875054
  48.2339250  49.2656105  60.7923855  46.5489527  52.4950686  61.6529240
  47.3803561  53.2391852  61.1246714  46.1148988  52.6541683  62.8973152
  45.5850291  52.1050168  63.2939130  46.5001542  53.7859830  63.7108064
  47.3376232  54.1273907  63.3597960  45.4327687  54.9108820  63.7048550
  44.5716861  54.5104758  63.9013481  45.6663242  55.5511201  64.3945376
  45.2753530  55.6889392  62.4080156  46.2631780  56.5450296  61.9431285
  47.0706831  56.6054987  62.4004261  46.0606379  57.3218788  60.7948669
  46.7458794  57.8630550  60.4744071  44.8295413  57.2831604  60.1291798
  44.6844508  57.8124946  59.3782617  43.8417743  56.4578453  60.5954386
  43.0289887  56.4110869  60.1471483  44.0486457  55.6840214  61.7405241
  43.3557998  55.1557386  62.0650991  46.6682821  53.3448507  65.1574218
  45.7875567  52.6684098  65.7061763  47.7540300  53.7863463  65.7960306
  48.3663345  54.2627038  65.4245637  48.0049786  53.4961070  67.2065068
  47.3602136  52.8531356  67.5396704  49.3975694  52.8908896  67.3836579
  50.0509543  53.5701308  67.1578778  49.4963824  52.6324656  68.3134590
  49.7207905  51.6491233  66.5320503  49.4525781  51.8349275  65.6188078
  51.1962410  51.3693961  66.6036013  51.3651075  50.4757223  66.2669454
  51.6679251  52.0212956  66.0621199  51.4862404  51.4353853  67.5275876
  48.9516861  50.4123534  66.9807693  48.9383351  49.7686052  66.2555521
  49.3928823  50.0297331  67.7547852  48.0455731  50.6706116  67.2108387
  47.8594245  54.7834221  68.0106721  47.6666654  55.8669366  67.4483854
  47.9304269  54.6753458  69.3404571  47.9990849  53.9368700  69.7762835
  47.8914537  55.8860170  70.1668990  47.0085391  56.2825242  70.1075362
  48.1573052  55.5533152  71.6356490  48.9659256  55.0205521  71.6991035
  48.2651190  56.3792078  72.1326597  47.0178206  54.7605707  72.2764641
  45.9355259  55.2976373  72.5683713  47.2632233  53.4808565  72.5092431
  46.6582807  52.9855738  72.8683148  48.0272012  53.1439348  72.3025972
  48.9333493  56.8866255  69.6716001  50.0684535  56.5172012  69.3554195
  48.5365871  58.1553034  69.5732738  47.7425934  58.4299138  69.7561428
  49.4394667  59.1984301  69.1367007  49.1889785  60.0306291  69.5685970
  50.3424215  58.9635976  69.4025791  49.4376502  59.4283560  67.6480100
  50.2096303  60.2708987  67.1513669  48.6342061  58.6770135  66.9096991
  48.1358123  58.0455422  67.2141356  48.5386783  58.8810547  65.4735269
  49.4275749  58.9979945  65.1028870  47.9156561  57.6502435  64.8236561
  47.8211692  57.8080705  63.8709962  48.4902563  56.8847579  64.9772645
  46.6321064  57.3884482  65.3808216  46.6605225  56.6951810  65.8545791
  47.7143052  60.1125686  65.1313445  47.8305281  60.6131776  64.0158017
  46.8728260  60.5757626  66.0644544  46.8163874  60.0801124  66.9422679
  46.0335376  61.7548177  65.8865267  45.1812472  61.4841607  65.2624019
  45.5123783  62.2077847  67.2564712  44.7478047  62.9658256  67.0876423
  46.3364064  62.6684373  67.8007469  44.7792653  60.8966281  68.3184668
  44.4819474  61.6950281  69.3397688  46.8101812  62.8874771  65.1918114
  47.9627745  63.1670103  65.5195170  46.1797016  63.5063262  64.2027031
  45.3627340  63.3492049  63.9845683  46.8124373  64.5164575  63.3870897
  46.1467001  65.1770218  63.1418104  47.5059686  64.9465184  63.9109751
  47.4490425  64.0128949  62.1122153  47.7545296  64.8196632  61.2350075
  47.6715433  62.7082789  61.9802322  47.6375665  62.1347913  62.6212170
  48.0035475  62.1429688  60.6776180  48.8558254  62.4825364  60.3636255
  48.1187742  60.6260778  60.7884364  47.3216223  60.2782298  61.2166287
  48.2093613  60.2491917  59.8993488  49.2522292  60.2723179  61.5607671
  49.0286490  59.7403344  62.1716357  46.9271653  62.5307449  59.6660351
  45.7588902  62.6617654  60.0200222  47.3225164  62.7296735  58.3981953
  48.1165677  62.5752095  58.1063041  46.3976939  63.2387999  57.3965508
  45.5345956  63.2958869  57.8333807  46.7886112  64.6402331  56.8540523
  46.1477215  64.8762921  56.1646312  46.7179111  65.6891426  57.9554207
  46.9326395  66.5565806  57.5799091  45.8198842  65.7007652  58.3224081
  47.3555322  65.4616244  58.6494645  48.1689380  64.6371264  56.2070753
  48.3268626  65.4996775  55.7941546  48.8368688  64.4702918  56.8906868
  48.2011222  63.9374543  55.5353936  46.2692997  62.2713128  56.2293808
  47.1564652  61.4631824  55.9399267  45.1349849  62.3834424  55.5556807
  44.4808118  62.8818340  55.8070637  44.8722807  61.6786905  54.3192859
  45.5756472  61.0331472  54.1472086  44.0233310  61.2120967  54.3745097
  44.8201785  62.6737991  53.1763418  44.3854667  63.8122818  53.3477617
  45.2673893  62.2332359  52.0007340  45.4849787  61.4175289  51.8337521
  45.4227091  63.1345619  50.8863373  44.7140402  63.7932007  50.9499968
  46.7918172  63.8430106  50.8870370  46.8591444  64.3904072  50.0900489
  46.8535929  64.4004761  51.6782796  47.9502466  62.9125894  50.8963551
  48.3429577  62.3094328  52.0632412  47.8864745  62.4896358  52.8525802
  49.3986913  61.4455940  52.0746481  49.6360305  61.0164015  52.8647689
  50.1247667  61.2035259  50.9085935  50.8615245  60.6360030  50.9253199
  49.7465736  61.8024030  49.7445204  50.2205087  61.6404704  48.9608053
  48.6628132  62.6482139  49.7312459  48.4024874  63.0483225  48.9333959
  45.2973924  62.3699647  49.5885485  45.5139058  61.1637041  49.5276031
  45.0106575  63.1266826  48.5455815  44.6655430  63.9116954  48.6126926
  45.2393438  62.7266024  47.1722464  45.6106014  61.8317058  47.1315185
  43.9308697  62.7232325  46.3830757  43.4412198  63.5390675  46.5739952
  44.1306703  62.6691303  45.4356019  43.0513760  61.5494924  46.7469629
  43.1931892  60.4720313  46.1942599  42.1395842  61.7601812  47.6837083
  41.6152963  61.1223697  47.9244400  42.0711443  62.5348590  48.0512096
  46.2302320  63.6967158  46.5496907  46.4073819  64.8237410  47.0172119
  46.8849246  63.2515222  45.4888909  46.8523347  62.4367331  45.2149207
  47.7327281  64.1129503  44.6797735  47.7026645  65.0091215  45.0500374
  49.1957389  63.6507248  44.6697794  49.2791808  62.8250760  44.1665065
  50.0643414  64.6925236  43.9786570  50.9113599  64.2869784  43.7370817
  49.6087654  65.0052711  43.1814459  50.2132753  65.4327106  44.5873802
  49.6498486  63.3744442  46.0938469  49.2991817  64.0712987  46.6701459
  49.3002541  62.5111604  46.3665388  51.1473136  63.3383056  46.2851309
  51.3422127  63.2350529  47.2302389  51.5106956  62.5895847  45.7879091
  51.5269910  64.1685422  45.9586998  47.1749385  64.1546345  43.2664755
  46.9095826  63.1125499  42.6553618  46.9846421  65.3624418  42.7717849
  47.0752693  66.0773302  43.2419502  46.6052269  65.6492853  41.3991874
  46.5404298  64.8463983  40.8580711  45.2351850  66.3178101  41.3477212
  45.2341682  67.0857986  41.9390135  45.0533751  66.5991414  40.4367553
  44.1029546  65.3708904  41.7904925  43.7401604  64.4584359  41.0053134
  43.5894300  65.5274986  42.9279156  47.7285783  66.5306023  40.8597805
  47.7695864  67.7349118  41.1315121  48.6487020  65.9241839  40.0974215
  48.7440489  65.0702038  40.0455959  49.5966993  66.6702014  39.2671487
  50.0503970  66.1131711  38.6156844  48.8476327  67.7128633  38.4135977
  48.9370811  68.5799459  38.8394741  49.2508715  67.7344183  37.5316210
  47.3315540  67.4432295  38.2239876  46.8187940  66.1382993  38.1009655
  47.4061818  65.4182043  38.0951682  45.4510050  65.9003101  37.9897569
  45.1300945  65.0293690  37.9299903  44.5749257  66.9686701  37.9669744
  43.2203823  66.7432194  37.8363406  43.0812853  66.1636407  37.2441467
  45.0522808  68.2633826  38.0940080  44.4590073  68.9802646  38.0890335
  46.4191202  68.4935463  38.2270079  46.7277159  69.3649129  38.3207622
  50.6735564  67.2478036  40.1914075  51.5701718  66.5081814  40.6157765
  50.6118680  68.5314488  40.5450675  50.0526525  69.1000910  40.2230519
  51.5317921  69.0758491  41.5479882  52.1801746  68.3894513  41.7692374
  52.2977330  70.2772122  40.9664597  52.8886605  70.6353646  41.6477860
  52.8155815  69.9814605  40.2008019  51.3798577  71.3955132  40.5073151
  50.1746863  71.1335045  40.2924166  51.8758260  72.5384879  40.3483273
  50.8430454  69.4766524  42.8560102  51.5272926  69.8677038  43.8202978
  49.5220252  69.3525750  42.9202318  49.0562663  68.9527575  42.3176443
  48.7087539  69.8751863  44.0135786  49.2486903  70.4885818  44.5372728
  47.4830789  70.6033579  43.4510298  47.7840184  71.3424397  42.8992277
  46.9665309  69.9792247  42.9172023  46.4313105  71.2504417  44.6859277
  45.4631501  71.7280353  44.1625065  48.2508780  68.7557285  44.9395812
  47.6469083  67.7784145  44.4803310  48.5232930  68.9140468  46.2401789
  48.9759871  69.5731354  46.5552445  48.0770596  67.9716011  47.2666017
  47.9850469  67.0941694  46.8645228  49.0818268  67.8814757  48.4319289
  49.1158845  68.7478262  48.8656372  48.6142551  66.8201990  49.4826189
  49.1374236  66.9271451  50.2928876  47.6737902  66.9588106  49.6756125
  48.7495698  65.9320514  49.1174371  50.4565340  67.5665537  47.9449944
  51.0992779  67.8306758  48.6225287  50.5226280  66.6122680  47.7813472
  50.6210573  68.0549060  47.1235584  46.7230852  68.4381206  47.7829531
  46.6256941  69.5048744  48.3983141  45.6963238  67.6151855  47.5937923
  45.7396005  66.8975081  47.1222200  44.3848594  67.8517908  48.1751770
  44.2644950  68.7983734  48.3462665  43.2813535  67.3930226  47.2169429
  43.4674148  66.4847864  46.9336282  42.4290585  67.4289090  47.6791661
  43.2203799  68.2342770  46.0677383  43.8014388  67.9988587  45.5080886
  44.3128126  67.0888260  49.5046987  44.2209567  65.8647465  49.5175767
  44.3634845  67.8137611  50.6172631  44.4911970  68.6646439  50.6343775
  44.2048270  67.2178400  51.9301709  44.6645278  66.3657232  51.9815337
  44.8093211  68.1240893  52.9952781  44.4235929  69.0102301  52.9071808
  44.6050160  67.7583375  53.8701135  46.2943514  68.2616910  52.8911595
  47.1254535  67.2862911  53.4058713  46.7538353  66.5406843  53.8198114
  48.5104760  67.3998710  53.3156592  49.0594389  66.7327646  53.6630851
  49.0573927  68.5012952  52.7117784  49.9812055  68.5935288  52.6526773
  48.2231723  69.4788888  52.1873474  48.5935848  70.2203962  51.7662839
  46.8659086  69.3687595  52.2828077  46.3216234  70.0386684  51.9371886
  42.7292561  66.9904068  52.1801279  41.9184320  67.8786430  51.9230035
  42.3638108  65.7820793  52.6261361  42.9036559  65.1378962  52.8066477
  40.9499505  65.4914978  52.8358674  40.4662430  66.3222467  52.6999287
  40.4360265  64.4745951  51.8036673  39.5021818  64.2991345  52.0012264
  40.5199991  64.8764653  50.9247646  41.2478583  62.8924482  51.7226605
  42.3643539  63.0461194  51.3107467  40.5884275  64.9878687  54.2241991
  39.3954856  64.9813239  54.5687349  41.5445620  64.5388358  55.0106197
  42.3847504  64.5995005  54.8395258  41.2328882  63.8876876  56.2684823
  40.4002752  64.2329676  56.6287783  41.1009986  62.3869237  56.0731007
  40.3465932  62.2246564  55.4851450  41.9174126  62.0641280  55.6617552
  40.8753235  61.5628747  57.3222728  39.5863648  61.3366825  57.8171876
  38.8558053  61.7175765  57.3843034  39.3813239  60.5513514  58.9462465
  38.5231824  60.4219327  59.2820813  40.4535233  59.9746268  59.5533273
  40.2447894  59.2250457  60.6481183  39.6114368  58.6896508  60.5136944
  41.7463369  60.1648389  59.0715874  42.4669611  59.7577752  59.4949618
  41.9514607  60.9527429  57.9737433  42.8162662  61.0836242  57.6565754
  42.3411973  64.1829286  57.2531888  43.5224879  64.1755322  56.8807444
  41.9457412  64.4288792  58.5047992  41.1280319  64.5704390  58.7285231
  42.8714561  64.4804325  59.6157304  43.7536178  64.2107088  59.3165750
  43.0188686  65.8783466  60.1817142  43.4556521  66.4401370  59.5222358
  42.1389354  66.2297577  60.3860319  43.8582375  65.9154056  61.4705871
  43.3750888  65.4562643  62.1750036  44.7067172  65.4734856  61.3065537
  44.2067643  67.5887199  62.0379092  45.6168324  68.0229603  60.9919986
  45.6854277  68.9887561  60.9390902  46.4252566  67.6547732  61.3829111
  45.4797867  67.6523007  60.1069744  42.3610122  63.5240561  60.6811140
  41.1824453  63.5578248  61.0515376  43.2431635  62.6632431  61.1532486
  44.0828851  62.6699578  60.9707450  42.8263711  61.6064730  62.0511016
  41.9987284  61.2137172  61.7318659  43.8792543  60.4971572  62.0958840
  43.9886722  60.1239664  61.2076592  44.7202646  60.8666859  62.4071317
  43.4838100  59.4054008  63.0137673  42.2850172  58.7337280  62.8704204
  41.7187840  58.8546869  62.2348821  42.1512741  57.8778258  63.8629314
  41.4193640  57.3224857  64.0073956  43.2306493  57.9437391  64.6196518
  44.0599035  58.9274903  64.1353728  44.8631932  59.2099188  64.5105712
  42.5748774  62.1734173  63.4405051  43.3911532  62.9242450  63.9681883
  41.4127135  61.8772636  64.0117774  40.7778350  61.4353416  63.6378092
  41.1546496  62.3156846  65.3718109  41.8854561  62.8961875  65.6339259
  39.8607322  63.1457927  65.4587388  39.1784089  62.7125192  64.9218896
  39.5790828  63.1835619  66.3860878  39.9963822  64.5600488  64.9666698
  39.8332269  65.6592530  65.7877322  39.6514122  65.6283402  66.6268042
  39.9995531  66.7668244  65.0831534  39.9292017  67.6338557  65.4097623
  40.2815894  66.4300443  63.8343649  40.2907597  65.0525154  63.7390394
  40.4654804  64.5553084  62.9731811  41.0731094  61.1757540  66.3730818
  41.6073786  61.2874435  67.4898342  40.3947842  60.0851664  66.0584287
  40.0546029  59.8947240  65.2919104  40.2190675  59.1243385  67.1264304
  41.0856582  59.0225363  67.5512949  39.1698530  59.6142073  68.1143082
  39.0867719  58.9791954  68.8422501  39.4291607  60.4829865  68.4592158
  37.8474890  59.7434671  67.4404000  37.9609645  60.2278545  66.6072847
  37.4930090  58.8578728  67.2639100  36.6485618  60.6357979  68.4456390
  35.1818194  60.2341393  67.5001602  34.6358128  59.6171259  68.0122455
  34.6862159  61.0486042  67.3261911  35.4485518  59.8230973  66.6635246
  39.7884745  57.7740834  66.6003262  39.3979382  57.6214659  65.4356287
  39.8009475  56.8074664  67.5044739  40.0617436  56.9173055  68.3170585
  39.3691276  55.4470092  67.2087833  39.2066102  55.3211125  66.2602116
  40.4593275  54.4508197  67.6212692  41.2753860  54.6800627  67.1493347
  40.5963448  54.5298129  68.5785478  40.1631848  52.9951201  67.3279430
  39.4335128  52.6992304  67.8932403  39.9177329  52.9031528  66.3936778
  41.3743041  52.0860538  67.5944357  41.4439796  51.4995103  68.6902026
  42.2618230  51.9596735  66.7093033  38.0609797  55.1841110  67.9331723
  37.8632800  55.6480554  69.0613724  37.1591146  54.4806655  67.2740837
  37.2277204  54.2407387  66.4508442  35.9379545  54.0512906  67.9418369
  35.6870857  54.6989937  68.6193755  34.8007726  53.9492527  66.9336580
  34.9787093  53.1894834  66.3575250  33.9763318  53.8087166  67.4241882
  34.5811765  55.1611482  66.0247720  35.4187726  55.3602208  65.5770836
  33.5134723  54.8561524  64.9976735  33.3396362  55.6563671  64.4765954
  33.8260663  54.1447967  64.4173529  32.7044936  54.5786032  65.4559190
  34.1589508  56.3629946  66.8182636  34.3568198  57.1642138  66.3085140
  33.2067685  56.3078328  66.9923727  34.6477206  56.3753265  67.6567969
  36.1526203  52.6999337  68.6110371  37.0468904  51.9416029  68.2209673
  35.3379621  52.3529970  69.6144378  34.4672272  53.2444486  70.4111892
  33.6466477  53.4434541  69.9322832  34.9283641  54.0670385  70.6356456
  34.1785387  52.4251348  71.6639505  33.2893952  52.6089152  72.0049032
  34.8396737  52.5947357  72.3530391  34.2713262  50.9717861  71.1891642
  33.4668549  50.6971146  70.7230843  34.4501117  50.3675820  71.9263658
  35.4647831  51.0116014  70.2249690  36.2929379  50.9588472  70.7269438
  35.4407127  49.8565537  69.2358202  36.0699472  48.8193537  69.4928903
  34.7510960  49.9996386  68.1061373  34.2529230  50.6753813  67.9171152
  34.7966033  48.9790674  67.0669883  34.5222662  48.1361743  67.4607857
  33.8374133  49.3570542  65.9514962  34.3289419  49.5828621  65.1467637
  32.9131645  48.1797745  65.6209667  32.1008041  48.5038058  65.2002587
  33.3592685  47.5680698  65.0147467  32.6785503  47.7036486  66.4327711
  33.0639752  50.4795710  66.3715194  32.4838498  50.6625963  65.7918986
  36.1872258  48.7790251  66.4696936  36.3888308  47.8188316  65.7103697
  37.1327176  49.6684466  66.7628005  37.0371972  50.3108700  67.3269548
  38.4386376  49.6241573  66.1382205  39.0729366  50.0798971  66.7125253
  38.7065225  48.6962141  66.0450045  38.5173483  50.2650200  64.7666547
  39.5350472  50.0940043  64.0791858  37.4755932  50.9562856  64.3281400
  36.7187024  50.9934045  64.7346183  37.5166138  51.7212189  63.1052179
  38.2324977  51.3997310  62.5353576  36.2113339  51.5809796  62.2715776
  36.3116519  52.0723962  61.4416981  35.9472887  50.1079358  61.9060092
  35.4781281  50.0727980  61.0570660  36.7959590  49.6429592  61.8342490
  35.4052296  49.7022641  62.6008569  35.0355505  52.1755966  63.0361324
  34.2198402  52.0172808  62.5348952  34.9771214  51.7503519  63.9061939
  35.1779380  53.1285397  63.1430818  37.8028341  53.1661196  63.4990923
  37.7684638  53.5360292  64.6619042  38.0701967  54.0059160  62.5116227
  37.9235725  53.8408593  61.6806048  38.6554995  55.3148597  62.7843057
  38.7141960  55.4847503  63.7380483  40.0499723  55.3362768  62.1755710
  39.9795070  55.2179588  61.2149178  40.4721336  56.1855706  62.3748318
  40.9155101  54.2450319  62.7188332  41.3258747  53.1690068  61.9628961
  42.0324892  52.3499082  62.7240338  42.4246298  51.5533150  62.4474366
  42.0859603  52.8527960  63.9418703  42.4942986  52.4994401  64.6111105
  41.3860921  54.0298952  63.9688919  41.2578255  54.5797716  64.7087896
  37.7829854  56.4483453  62.2865633  37.0119592  56.2973220  61.3340212
  37.8846181  57.5853473  62.9745105  38.4211907  57.7114126  63.6351938
  37.0611406  58.7250350  62.6351851  36.7778952  58.6270748  61.7123103
  35.8355397  58.8165894  63.5563134  35.2498577  59.5201371  63.2341408
  35.3677223  57.9666812  63.5448268  36.1311352  59.0189142  64.4569060
  37.8437968  60.0202924  62.7319866  38.7281924  60.1704237  63.5772694
  37.4463840  60.9798617  61.8994400  36.7682075  60.9232326  61.3731180
  38.1527483  62.2354546  61.8191588  38.2983198  62.5840034  62.7136394
  39.0116326  62.0976420  61.3900509  37.3792092  63.2615536  61.0247666
  36.1837271  63.1131211  60.7691179  38.0978041  64.3194532  60.6538434
  38.9564789  64.3408555  60.6994561  37.5371059  65.5597292  60.1301651
  36.5833047  65.4375352  59.9973571  37.7854878  66.7404370  61.0998488
  37.3012343  67.5225934  60.7921996  37.3061235  66.4016978  62.4716347
  37.4316879  67.1598594  63.0637214  36.3635930  66.1733805  62.4476882
  37.8044375  65.6453703  62.8195973  39.2055430  67.0291667  61.1464769
  39.4390514  67.4376960  60.4501303  38.1863513  65.9007803  58.7948353
  39.2371780  65.3601476  58.4377281  37.5489876  66.8093808  58.0559622
  36.7217286  67.0248932  58.1481954  38.2484931  67.5297883  56.9949820
  38.7764010  66.9064479  56.4728614  37.2630809  68.1813415  56.0300051
  37.7603180  68.6835438  55.3656669  36.7415348  67.4861782  55.5977046
  36.2924997  69.1379124  56.7091760  36.6498310  69.7708281  57.7190444
  35.1546625  69.2560656  56.2256346  39.1722755  68.5611923  57.6371042
  39.2462285  68.6993381  58.8562775  39.9080008  69.2778025  56.8252920
  39.8813227  69.2418747  55.9666218  40.8572668  70.2214305  57.3914802
  41.2518176  69.8343263  58.1886069  41.9990771  70.4671659  56.4059643
  41.6320869  70.4690944  55.5084280  42.3922370  71.3311839  56.6048894
  43.1345444  69.4301460  56.4341890  43.6343906  69.5599137  55.6135477
  44.0181651  69.6592901  57.6603397  44.8616316  69.1965349  57.5338530
  44.1762696  70.6107445  57.7621162  43.5667090  69.3133208  58.4458775
  42.6729200  67.9607525  56.4106354  43.4179589  67.3909721  56.6584729
  41.9454131  67.8472845  57.0421342  42.3717112  67.7378525  55.5155338
  40.2039920  71.5322502  57.8165833  40.9134204  72.4310158  58.2519462
  38.8794755  71.6502296  57.7363393  38.3730404  71.1252168  57.2804917
  38.1646354  72.7111131  58.4395190  38.7719216  73.4562809  58.5700808
  36.9869950  73.2158652  57.5977402  36.3628138  72.4853188  57.4649929
  36.5522053  73.9407221  58.0727711  37.3884639  73.7291038  56.2421802
  38.0120656  74.4636473  56.3530714  37.8083802  73.0111293  55.7424023
  36.1937573  74.2389011  55.4279020  35.0329009  73.8478330  55.7118791
  36.4186157  75.0356751  54.4976553  37.6493990  72.2588939  59.8006991
  36.9417939  73.0198708  60.4749188  37.9491237  71.0383564  60.2089467
  38.3704636  70.4575292  59.7362719  37.5762714  70.5733273  61.5285494
  38.2006366  69.8810734  61.7983668  37.6445668  71.3186536  62.1471223
  36.1857265  70.0042399  61.6549753  35.7399223  69.7497090  62.7843634
  35.5028540  69.7444857  60.5399291  35.8025741  69.8928434  59.7480801
  34.1618751  69.1748749  60.5615412  33.7381077  69.4069654  61.4020989
  33.2997651  69.7070794  59.4170943  33.7651540  69.5633315  58.5785952
  32.4535763  69.2320193  59.4135499  33.0019863  71.1853843  59.5359863
  32.5476787  71.6660716  60.5764138  33.2377210  71.9069666  58.4551245
  33.0869262  72.7538120  58.4623224  33.5410122  71.5306546  57.7439292
  34.2868943  67.6692354  60.4092883  34.8074353  67.2038043  59.3890197
  33.7663583  66.9168498  61.3891679  33.3568641  67.2315001  62.0768951
  33.8504046  65.4673304  61.3727155  34.7891876  65.2211827  61.3536389
  33.2277501  64.8405411  62.6352263  32.5626483  65.4496564  62.9916559
  32.8112417  63.9980457  62.3947365  34.2318076  64.5668694  63.7201528
  34.9056507  63.3571445  63.7657277  34.7076632  62.6990216  63.1389979
  35.8509490  63.1176528  64.7117762  36.2891954  62.2980903  64.7349800
  36.1591140  64.0911399  65.6339248  36.8223030  63.9385422  66.2673285
  35.4742752  65.3089414  65.6175709  35.6583772  65.9561872  66.2578242
  34.5371080  65.5425130  64.6596549  34.0973301  66.3619359  64.6345445
  33.1556209  64.9049867  60.1446307  32.1800666  65.4533389  59.6429479
  33.7080291  63.8155067  59.6401068  34.5096005  63.5545960  59.8115271
  32.9903317  62.9398568  58.7287288  32.4579562  63.4455916  58.0949918
  33.9814623  62.0971830  57.9187635  34.6310718  61.7126975  58.5297016
  33.4914010  61.3915718  57.4687559  34.7454807  62.8648282  56.8654436
  34.1813293  63.1116120  55.6142742  33.3291979  62.7901814  55.4243521
  34.8758397  63.8311746  54.6439103  34.4828005  64.0013676  53.8179179
  36.1488094  64.2911212  54.9131135  36.8287343  64.9867572  53.9567419
  37.6542204  64.9475820  54.1053054  36.7344622  64.0484383  56.1398929
  37.5968267  64.3500960  56.3151754  36.0261014  63.3487257  57.1131104
  36.4164172  63.2014727  57.9443313  32.0825680  62.0490754  59.5698017
  32.5424804  61.4172933  60.5180132  30.7908383  62.0325112  59.2575037
  30.4392817  62.4769553  58.6104625  29.8622728  61.2400496  60.0121040
  29.0781792  61.0575126  59.4704598  30.2803739  60.3992083  60.2555041
  29.4166268  61.9375466  61.2793607  29.7948471  63.0764934  61.5598455
  28.6026172  61.2402473  62.0723935  28.0627303  59.8948921  61.7989389
  28.7770216  59.2420730  61.7371555  27.5391584  59.8929552  60.9823547
  27.1920009  59.6251054  62.9933105  27.6905768  59.1637471  63.6855653
  26.4143649  59.1017991  62.7410217  26.7555131  60.9687431  63.4931087
  26.5376157  60.9397401  64.4381259  25.9991218  61.3050066  62.9887834
  27.9880786  61.8556073  63.2584172  27.7332598  62.7663188  63.0429111
  28.8740654  61.8921046  64.4988706  28.3736741  62.1437601  65.5904621
  30.1721621  61.6859925  64.3602753  30.5853159  61.6653598  63.6071702
  31.0211607  61.4726630  65.5239011  30.5087657  61.0135277  66.2082761
  32.2271360  60.6007573  65.1361823  32.8429561  61.1316593  64.6073669
  32.6649160  60.2910240  65.9437961  31.8439729  59.4083468  64.3348882
  31.0912026  58.3909459  64.9096764  30.8371302  58.4530313  65.8020791
  30.7221004  57.2984274  64.1710711  30.2363776  56.6114935  64.5674714
  31.0737710  57.2166483  62.8335159  30.8021563  56.4877198  62.3251355
  31.8224917  58.2110926  62.2599900  32.0768576  58.1475685  61.3685060
  32.1993878  59.3079089  63.0082796  32.6988385  59.9861967  62.6135486
  31.4897329  62.7886705  66.1431647  31.5551359  63.8336228  65.4859500
  31.8285460  62.7080752  67.4304735  31.8366345  61.9676371  67.8684164
  32.2249793  63.8478849  68.2485619  32.3882293  64.6133158  67.6764046
  31.1196012  64.1799573  69.2674069  31.4041550  64.8803760  69.8739543
  29.9091444  64.6817672  68.5251089  29.1463609  64.6748726  69.1246910
  30.0804498  65.5857745  68.2174657  29.7406803  64.1002669  67.7673014
  30.8121032  62.9273587  70.1589419  30.0520496  63.1241438  70.7283057
  30.6094645  62.1730433  69.5844266  31.5908371  62.7280322  70.7029543
  33.5259328  63.5420290  68.9662353  33.8232430  62.3817910  69.2639608
  34.3005187  64.6051121  69.2669460  34.0744942  65.4240482  69.1336357
  35.6284503  64.4344544  69.8633608  35.9526630  63.5490105  69.6336715
  36.6435835  65.4267808  69.2852659  37.4760624  65.3388062  69.7753315
  36.7855436  65.2135231  68.3497503  36.2169785  66.8867308  69.3621235
  35.0682469  67.1885506  69.7193762  37.0708428  67.7488393  69.0332485
  35.5211346  64.5113163  71.3884033  36.0281640  65.4178293  72.0529139
  34.8892978  63.4695342  71.9386427  34.5085123  62.8478564  71.4817794
  34.7741479  63.2718090  73.3746932  35.5871133  63.5636388  73.8148609
  33.6115463  64.0839999  73.9674433  33.6732325  64.0484673  74.9348741
  33.6904094  65.0016167  73.6638252  32.2359807  63.5925670  73.5815496
  32.1801542  63.5487040  72.6141761  32.1000957  62.7102703  73.9619531
  31.0688926  64.5172040  74.0873243  30.2448997  64.0053626  74.1127017
  31.2828135  64.8448340  74.9751145  30.8619197  65.6770405  73.2093496
  31.5006221  66.2507362  73.1614896  29.7698858  65.9198361  72.4753359
  28.7173015  65.1092125  72.4922130  28.7265377  64.4039753  72.9838268
  28.0280339  65.2900344  72.0103887  29.7296995  67.0070415  71.7209895
  30.4007638  67.5452893  71.7074246  29.0342826  67.1750704  71.2450413
  34.5973478  61.7812111  73.6384365  34.2106868  61.0074231  72.7547536
  34.8947715  61.3739343  74.8638498  35.1444109  61.8926334  75.5028314
  34.8118201  59.9592004  75.2207868  35.0403582  59.4305502  74.4407507
  35.7837774  59.6077480  76.3345706  36.6722329  59.9018508  76.0782419
  35.5058908  60.0599666  77.1467303  35.8548614  58.1322687  76.6299195
  35.0011074  57.8395901  76.9862470  36.0545373  57.6550017  75.8100367
  36.9303500  57.7956928  77.6468634  36.7929154  58.0932978  78.8316701
  38.0125905  57.1862798  77.1861634  38.0782448  57.0026267  76.3485865
  38.6492016  56.9759058  77.7245118  33.3779695  59.6581769  75.6240960
  32.9936150  59.7625431  76.7843194  32.5912728  59.2213617  74.6578616
  32.8513241  59.0605575  73.8549511  31.1827717  58.9763325  74.8893248
  31.0306372  58.6779490  75.7996672  30.3638629  60.2563977  74.6823863
  30.8058636  61.0063714  75.1116296  30.2406677  60.5713030  73.1979057
  30.3946447  61.5169664  73.0448442  30.8935037  60.0602000  72.6951950
  29.3519301  60.3421104  72.8822015  29.0652227  60.0906261  75.2619512
  29.1073968  60.1842691  76.0950318  30.7530418  57.8660064  73.9484395
  31.4720892  57.4984069  73.0190841  29.5699166  57.3305789  74.1974097
  29.0408082  57.5782586  74.8282480  29.0670961  56.2402894  73.3809040
  29.7489118  55.5576788  73.2839240  27.8630812  55.5779445  74.0440753
  27.2700795  55.2385015  73.3557023  28.1720687  54.8482020  74.6040608
  27.3988705  56.2356104  74.5843734  28.7080867  56.7848148  72.0123857
  27.8870330  57.6983884  71.8885518  29.3531134  56.2506549  70.9884175
  29.9729079  55.6592097  71.0583633  29.0491469  56.6360117  69.6230053
  28.0936288  56.7393600  69.4923712  29.6793115  57.9658764  69.2523256
  29.4984552  58.1490307  68.3168367  29.2922953  58.6616825  69.8070230
  31.1631019  57.9889122  69.4492122  31.3695244  57.6836178  70.3463582
  31.5792649  57.4059096  68.7951828  31.7418799  59.3876629  69.2768355
  31.4083160  60.0874555  68.3349208  32.6055448  59.7934492  70.1982022
  32.8125319  59.2744700  70.8519628  32.9587814  60.5763974  70.1414129
  29.5861883  55.5211565  68.7581913  30.7470849  55.1184027  68.9073202
  28.7357695  55.0014114  67.8990417  27.9395687  55.3018053  67.7681459
  29.0731094  53.8531863  67.0827429  30.0278936  53.6807435  67.0999644
  28.3743517  52.5882774  67.5955519  28.8070727  51.8099426  67.2115915
  28.4418822  52.5608592  68.5629391  27.4418948  52.6139064  67.3304005
  28.6699970  54.1530886  65.6521720  27.7335886  54.9198230  65.3983476
  29.4038887  53.5517499  64.7253841  30.0746058  53.0412283  64.8927376
  29.1266911  53.7117547  63.3109115  29.0504369  54.6591275  63.1197488
  30.2533027  53.1042142  62.4950134  30.0569738  53.2171370  61.5524438
  31.0833192  53.5551263  62.7173461  30.3230819  52.1603837  62.7068528
  27.8252371  53.0411321  62.9048316  27.4566185  51.9857864  63.4150930
  27.1448365  53.6505432  61.9538914  27.2794815  54.4579546  61.6906360
  26.0793479  52.9563218  61.2624409  25.3897464  52.7046502  61.8961641
  25.6932795  53.5400974  60.5899112  26.5961326  51.7017581  60.5804279
  27.7998372  51.4637598  60.4329221  25.6493074  50.8668776  60.1674357
  24.8056186  50.9662763  60.3007742  26.0192050  49.6771428  59.4303008
  26.6266806  49.1377041  59.9589759  24.8007105  48.7933295  59.1373601
  24.2027014  49.2713618  58.5410638  25.2490664  47.4760492  58.4823864
  24.9818223  46.7237853  59.0332635  24.8419812  47.3849663  57.6065585
  26.2137259  47.4659350  58.3827581  24.1152509  48.4703270  60.3535984
  24.5736008  47.9319068  60.8073970  26.6918090  50.1051021  58.1343581
  26.1849691  50.9505264  57.3996410  27.8563493  49.5521136  57.8761575
  28.2881593  49.0295241  58.4067612  28.5000981  49.8198291  56.6051603
  28.4025601  50.7602090  56.3880727  29.9782783  49.4939089  56.7025522
  30.2823879  49.6556303  57.6097685  30.1171279  48.5632416  56.4666706
  30.7926647  50.3430231  55.7737950  30.3083820  51.4601338  55.4148953
  31.8936323  49.9042506  55.4067174  27.8392911  49.0240007  55.4686312
  27.0063814  48.1301540  55.6812453  28.2080438  49.3963587  54.2425020
  28.7568626  50.0416385  54.0927123  27.7388203  48.7689350  53.0179013
  27.4267449  47.8708183  53.2131787  26.5667074  49.5432635  52.3995078
  25.7532683  49.2849596  52.8599270  26.7224614  51.0229826  52.5651975
  26.1143623  51.4885701  51.9700498  26.5245315  51.2764424  53.4803127
  27.6317775  51.2862889  52.3552090  26.4559849  49.2260840  51.0053117
  25.7965968  49.6264971  50.6717031  28.9034201  48.6520063  52.0416821
  29.9786308  49.2245165  52.2564169  28.7171710  47.8598137  50.9726633
  27.9869654  47.4395523  50.7969388  29.7911549  47.6528818  49.9987209
  30.6524464  47.8198015  50.4128873  29.7579042  46.2150727  49.5123203
  28.8920567  45.9973985  49.1333282  30.7703587  45.9791041  48.4189418
  30.8922196  45.0266847  48.2795964  30.4654233  46.3816043  47.5911876
  31.6220604  46.3726258  48.6652970  30.0438269  45.3891305  50.6365359
  30.1129905  44.5874916  50.3942087  29.6792871  48.6404477  48.8445437
  28.5840975  48.8682195  48.3318314  30.8115188  49.2723072  48.4820097
  31.5786568  49.1209979  48.8393302  30.8486426  50.2886919  47.4331509
  30.0500365  50.8298919  47.5299229  32.0750509  51.2213439  47.5551379
  32.8683452  50.6958086  47.3681252  31.9611684  52.3788372  46.5632216
  32.7419411  52.9470565  46.6497305  31.9117005  52.0201978  45.6636152
  31.1585647  52.8864884  46.7611197  32.1510266  51.8088827  48.9658416
  31.8222431  52.7208832  48.9381560  31.5956876  51.2729398  49.5534416
  33.5368705  51.8429595  49.5563442  33.4674737  51.8537758  50.5239227
  34.0225255  51.0541291  49.2685755  33.9916374  52.6426285  49.2484115
  30.8258043  49.6236494  46.0604419  31.8656051  49.2930404  45.4686572
  29.6234186  49.5033362  45.5255753  28.9150038  49.8845706  45.8306800
  29.3796802  48.6952574  44.3444512  29.6447695  47.7794359  44.5269058
  27.8865848  48.7361417  44.0166118  27.6194539  49.6434008  43.8018073
  27.5683968  47.8703415  42.7558039  26.6587701  47.5386041  42.8032130
  27.6668022  48.4051773  41.9520801  28.1767246  47.1164580  42.7089108
  27.1252869  48.3108742  45.1633127  26.5199269  48.8685400  45.3286616
  30.1953487  49.1784744  43.1514071  30.7789806  48.3672066  42.4173334
  30.2044741  50.4954054  42.9076129  29.8036143  51.0886167  43.3844344
  30.9316063  51.0352199  41.7563666  30.5785478  50.6098752  40.9591718
  30.6960264  52.5597416  41.6121135  29.7348591  52.6864179  41.6253991
  31.2773178  53.3993619  42.7631522  30.7933727  54.2387084  42.8192656
  31.1814718  52.9071926  43.5936906  32.2161448  53.5701173  42.5871114
  31.3074952  53.0416654  40.3298572  31.0128175  53.9505269  40.1611895
  32.2740699  53.0188256  40.4121475  31.0232531  52.4611667  39.6062325
  32.4186245  50.7053625  41.8469476  33.0947920  50.5061641  40.8227428
  32.9544325  50.6796277  43.0527741  32.5405251  50.8867442  43.7781446
  34.3441026  50.2799780  43.2523614  34.9170757  50.7760106  42.6467003
  34.7364207  50.6102088  44.6837541  34.0376393  50.3058180  45.2846534
  35.5724757  50.1681728  44.8968581  34.9243939  52.1236347  44.8908538
  34.6305129  52.9097064  43.9951902  35.3901004  52.5141943  46.0569475
  35.5094239  53.3509180  46.2134861  35.5742836  51.9325122  46.6633338
  34.5647562  48.8031689  42.9362095  35.5310848  48.4398962  42.2427148
  33.6717940  47.9269122  43.4186852  33.0100854  48.1240375  43.9310564
  33.7828290  46.5104517  43.0807429  34.6199112  46.1855730  43.4465136
  32.6541895  45.6914163  43.7226391  31.7963259  46.0912356  43.5091643
  32.7200737  44.2583141  43.1803895  32.1962171  43.6786751  43.7548168
  32.3590039  44.2448705  42.2797476  33.6446384  43.9670035  43.1713202
  32.8062887  45.6689132  45.2432657  31.9435104  45.8439182  45.6502250
  33.1288122  44.7960124  45.5159595  33.4412649  46.3529556  45.5076407
  33.8092212  46.3267876  41.5655832  34.6341041  45.5769124  41.0171596
  32.9386927  47.0387382  40.8642328  32.3545409  47.5746383  41.1977140
  32.9206413  46.9490498  39.4135580  32.8141963  46.0223475  39.1457405
  31.7221455  47.7341705  38.8727369  31.7273660  48.6113263  39.2868580
  31.8285024  47.8200090  37.9119263  30.3281988  47.1262765  39.1190773
  30.2794747  46.9249147  40.0667034  29.1517320  48.0927937  38.8226411
  28.3143496  47.6257601  38.9703582  29.2131117  48.8577566  39.4164839
  29.2084651  48.3858777  37.8996297  30.1649924  45.8825786  38.3022052
  29.2308626  45.6224817  38.3063564  30.4555134  46.0603513  37.3939082
  30.7063362  45.1768139  38.6905761  34.2411780  47.4390430  38.8068271
  34.7660044  46.8378573  37.8664857  34.7926125  48.5272269  39.3258596
  34.4639917  48.9928979  39.9695613  36.0594117  49.0181770  38.8041837
  35.9647749  49.2192882  37.8594895  36.4494187  50.3209925  39.5105994
  37.2688874  50.1758900  40.0100535  36.5858389  51.0128092  38.8436998
  35.7353289  50.5785148  40.1135986  37.1441092  47.9617059  38.9574846
  37.9302850  47.7182859  38.0270061  37.1698849  47.2986633  40.1150956
  36.6356496  47.4478930  40.7729953  38.1270621  46.2385027  40.3784417
  39.0357865  46.5370039  40.2172279  37.9828883  45.8670795  41.8358379
  38.1629595  46.6620398  42.3625651  37.0691654  45.5745440  41.9786012
  38.8280092  44.8359713  42.3480884  40.1530485  44.9397913  42.7221754
  40.6664694  45.7121020  42.6618013  40.6015480  43.7258356  43.1966330
  41.3986284  43.5574436  43.4708353  39.5645143  42.8347036  43.1586597
  39.5210173  41.5026454  43.5486584  40.2691145  41.0766509  43.9020481
  38.3279765  40.8390833  43.3922298  38.2741519  39.9437902  43.6379106
  37.1962973  41.4677727  42.8779004  36.4049340  40.9873058  42.7950469
  37.2318133  42.7994038  42.4854272  36.4772366  43.2115677  42.1298630
  38.4331080  43.5075296  42.6382570  37.9334582  45.0406725  39.4362934
  38.9116168  44.4617958  38.9641264  36.6964537  44.6814561  39.1108946
  35.9753431  45.0324226  39.4205460  36.4974988  43.5995059  38.1462027
  36.9672986  42.8167758  38.4738958  35.0204291  43.2232733  38.0253747
  34.5168470  44.0336221  37.8507729  34.9280339  42.6080125  37.2818411
  34.3853172  42.5546859  39.2427332  34.4459575  43.1816925  39.9799689
  32.8921795  42.2148479  38.9249706  32.5489259  41.6228118  39.6117137
  32.3778522  43.0374920  38.9102042  32.8443900  41.7800047  38.0589673
  35.1046896  41.3069919  39.7008641  34.4773652  40.5671609  39.7124113
  35.8293597  41.1157234  39.0850397  35.4581030  41.4552993  40.5920121
  37.0575271  43.9787774  36.7816579  37.6229236  43.1339949  36.0814699
  36.9363580  45.2507318  36.3903867  36.5020300  45.8640395  36.8092254
  37.5807984  45.6820032  35.1467206  37.2752537  45.0996501  34.4335247
  37.1719291  47.1169618  34.7847446  37.1474620  47.6442360  35.5986950
  37.8325389  47.4796022  34.1740518  35.8209353  47.2447070  34.1197831
  35.6465912  46.9194059  32.7778109  36.3699032  46.6077660  32.2841335
  34.4259871  47.0509382  32.1761989  34.3265788  46.8268718  31.2790561
  33.3465379  47.5118146  32.8899485  32.1057749  47.6591315  32.2944573
  31.7838156  46.9053607  32.1115646  33.4883834  47.8444021  34.2134342
  32.7602624  48.1668235  34.6928767  34.7105811  47.6994698  34.8283841
  34.7969611  47.9082949  35.7297650  39.0988641  45.5762925  35.2431555
  39.7574550  45.1485946  34.2912350  39.6737075  45.9768115  36.3780249
  39.2607603  46.3123709  37.0538825  41.1130074  45.8591622  36.5386035
  41.5592524  46.3918637  35.8621159  41.5409106  46.4073669  37.8939826
  42.4682174  46.6869150  37.8430115  40.9796349  47.1652927  38.1194023
  41.4419672  45.7107473  38.5620756  41.5444482  44.4087845  36.3685205
  42.5478612  44.1274628  35.7142402  40.7648210  43.4734143  36.9127198
  40.0687494  43.6310251  37.3915978  41.0529638  42.0583697  36.7250799
  41.9105889  41.8557110  37.1320118  39.9886444  41.2117601  37.4164593
  40.4181067  40.4661157  37.8630033  39.5202438  41.7608762  38.0645784
  39.3650194  40.8833983  36.7497754  41.1310975  41.7144127  35.2493284
  42.0947813  41.0942882  34.7933819  40.1358873  42.1399029  34.4766131
  39.4728921  42.6164095  34.7476993  40.0918652  41.8176773  33.0564826
  40.1274094  40.8548641  32.9447487  38.7616586  42.3202362  32.4570005
  38.6215912  43.2408760  32.7276378  38.7909645  42.2911356  30.9696188
  37.9059055  42.4991374  30.6320615  39.4290929  42.9500656  30.6526811
  39.0566388  41.4056074  30.6757636  37.6128608  41.4423550  32.9772585
  36.7799995  41.9333410  32.8985707  37.5688648  40.6307085  32.4473488
  37.7794714  41.2213673  33.9070296  41.3022671  42.3950355  32.3409046
  41.9311439  41.7134004  31.5221833  41.6486892  43.6531319  32.6439774
  41.2139941  44.1613678  33.1835712  42.8315322  44.2880411  32.0643347
  42.7562287  44.3148986  31.0974629  42.9144400  45.7382729  32.5739269
  42.8565397  45.7272539  33.5417369  44.2231043  46.4071031  32.2369020
  44.2267522  47.3012069  32.6127571  44.9495100  45.8859425  32.6136345
  44.3141852  46.4533962  31.2723756  41.7565958  46.5133569  31.9445410
  41.9417363  46.6189381  30.9982004  40.9444496  45.9972085  32.0682399
  41.5010839  47.8772929  32.4988894  40.8988983  48.3509502  31.9046947
  41.0997249  47.7902781  33.3768059  42.3431233  48.3532128  32.5649721
  44.0787519  43.4714965  32.3705828  44.9513686  43.3103939  31.5120265
  44.1497476  42.8771070  33.5592244  43.5463033  42.9317444  34.1705473
  45.3066519  42.0568676  33.9157365  46.0744584  42.4652862  33.4872749
  45.5108156  42.0497994  35.4254061  44.6804232  42.3002158  35.8595733
  45.7768880  41.1609114  35.7063270  46.5642301  43.0064052  35.8534868
  47.7501459  42.6709833  35.8323029  46.1571140  44.2233877  36.2141348
  46.7313098  44.8106656  36.4693795  45.3205538  44.4215684  36.1918511
  45.2205327  40.6092041  33.4536426  46.1648873  39.8491068  33.7142351
  44.1495601  40.2086371  32.7797133  43.4651978  40.7056270  32.6227378
  44.0409205  38.8630244  32.2364502  43.5826105  38.9174042  31.3827267
  44.9374409  38.5209420  32.0926042  43.3007481  37.8441520  33.0792105
  43.3027964  36.6490714  32.7276354  42.6614140  38.2697761  34.1621497
  42.6718285  39.0881466  34.4237739  41.8656510  37.3995510  35.0344842
  42.1260170  36.4708208  34.9337286  42.0768109  37.8295409  36.4829310
  42.8781795  38.3728810  36.5347868  41.3068045  38.3437824  36.7721746
  42.2454628  36.6571164  37.4503039  42.0872560  35.4884039  37.0388035
  42.5381519  36.9136348  38.6435065  40.4052202  37.5272877  34.6069117
  39.7202729  38.4542381  35.0331125  39.9238490  36.5878203  33.7715747
  40.3258063  35.8463518  33.6021172  38.6557535  36.7406583  33.0628384
  38.2744993  37.5679361  33.3992516  38.8931282  36.8301691  31.5402042
  39.3063910  36.0034836  31.2467456  38.0339573  36.9438214  31.1043160
  39.7889426  37.9731537  31.0804904  39.3147264  38.8107420  31.1960535
  40.5976083  37.9728164  31.6152620  40.2043188  37.8643758  29.5877912
  39.4440696  37.5551215  29.0719375  40.4835846  38.7386629  29.2753273
  41.3130172  36.9315089  29.3566289  42.1021206  37.1937477  29.5773860
  41.1978065  35.7078127  28.8333200  40.0227686  35.2198451  28.4486908
  39.3109104  35.6960370  28.5335156  39.9730627  34.4293800  28.1137830
  42.2821630  34.9581127  28.6943172  43.0488366  35.2612853  28.9395350
  42.2199186  34.1692782  28.3583472  37.6236285  35.6367531  33.3039950
  36.5892764  35.6337466  32.6292361  37.8438017  34.7117372  34.2407155
  38.4694950  34.7448903  34.8308450  36.9908847  33.5271975  34.3223208
  36.9342625  33.1380372  33.4348919  37.6133276  32.4998310  35.2696454
  37.0443153  31.7156660  35.3052591  38.4934870  32.2572696  34.9407376
  37.7643976  33.0244847  36.6482354  38.8712401  33.6314026  37.1854071
  39.6710171  33.7788106  36.7320181  38.6277797  33.9899870  38.4886793
  39.1877511  34.3769906  39.0139052  37.3441393  33.6284289  38.8156244
  36.6505712  33.7867675  39.9947411  37.0460203  34.1898952  40.7338115
  35.3668823  33.3325428  40.0416097  34.8790224  33.4354983  40.8266670
  34.7670269  32.7173072  38.9420281  33.8935534  32.4052444  39.0108815
  35.4495305  32.5669008  37.7560079  35.0423168  32.1710308  37.0200867
  36.7680146  33.0217970  37.6816650  35.5665136  33.8407635  34.7805385
  34.6519622  33.0622457  34.5042856  35.3497548  34.9507680  35.4723568
  35.9520295  35.5480362  35.6167241  34.0550821  35.2776312  36.0656393
  33.6278131  34.4555797  36.3525983  34.2706716  36.1776998  37.2909619
  33.4084772  36.4800135  37.6162746  34.7250991  35.6692498  37.9801674
  35.1104430  37.4025021  36.9772723  34.5250340  38.5758688  36.5145326
  33.6009052  38.6235201  36.4183595  35.3130292  39.6801751  36.1930361
  34.9171018  40.4590580  35.8770930  36.6833772  39.6121444  36.3455753
  37.2124447  40.3490067  36.1430548  37.2657880  38.4458318  36.8018150
  38.1882859  38.3969176  36.9030621  36.4811333  37.3538127  37.1055671
  36.8845521  36.5706712  37.4037410  33.1176528  35.9734960  35.1003105
  31.9664747  36.2487652  35.4635705  33.5773620  36.2828888  33.8891249
  34.3825656  36.1402495  33.6230756  32.7240059  36.9081532  32.8887066
  32.2139557  37.6166864  33.3110459  33.5960418  37.4794149  31.7839792
  34.1360560  36.7546032  31.4310746  33.0085454  37.8224290  31.0926167
  34.5564016  38.6073964  32.1378899  35.0931805  38.3728333  32.9118787
  35.4404871  38.8354634  30.9326977  35.8558541  39.7086869  31.0050640
  36.1220294  38.1460313  30.9056704  34.8964369  38.7928918  30.1297686
  33.8110426  39.8758434  32.5173306  34.4484134  40.5325972  32.8405239
  33.3527618  40.2189569  31.7337058  33.1674760  39.6689892  33.2130714
  31.7210585  35.9131297  32.3048883  32.1120217  34.9587797  31.6390221
  30.4190462  36.1654506  32.4909748  30.1130439  36.8478089  32.9160193
  29.4005274  35.2719492  31.9709750  29.8063419  34.4165597  31.7590308
  28.3208197  35.0250050  33.0283784  27.7188026  34.3366270  32.7053271
  28.7487453  34.7323008  33.8494794  27.4843308  36.2639025  33.3536326
  27.4631407  37.2735105  32.6306197  26.7551791  36.1663848  34.4395001
  26.2588377  36.8246526  34.6840461  26.7728537  35.4438418  34.9056719
  28.8171116  35.8318149  30.6709214  29.1926044  36.8971760  30.1937423
  27.9043054  35.0848497  30.0788800  27.5782175  34.3676926  30.4226945
  27.3544932  35.4060295  28.7698345  28.0340467  35.8627333  28.2503294
  26.9689698  34.0962032  28.0477425  26.6792218  34.3086780  27.1472236
  27.7459884  33.5154593  28.0189357  25.8237099  33.3202395  28.7438934
  25.9912018  33.3045605  29.6988351  24.9845708  33.7708236  28.5614883
  25.6887790  31.8620471  28.2656577  25.6326479  31.8504425  27.2977406
  26.4644619  31.3591747  28.5595090  24.4904457  31.1986038  28.7979416
  23.7505634  31.3213097  28.3762397  24.4576545  30.4196199  29.8852065
  25.5579446  30.1805731  30.5887115  26.3063612  30.5287881  30.3475480
  25.5223692  29.6775537  31.2861381  23.3086019  29.8690227  30.2726105
  22.5893019  30.0137334  29.8243726  23.2857013  29.3679724  30.9712508
  26.1406494  36.3360484  28.8265625  25.5531055  36.6229548  27.7784915
  25.7633224  36.8383928  29.9960596  26.2226201  36.7813726  30.7201565
  24.5055406  37.5416879  30.1330044  23.9732631  37.3539165  29.3438380
  23.7633906  37.0539158  31.3879621  24.2901638  37.2813538  32.1702535
  22.9003894  37.4945505  31.4305317  23.5265989  35.5879745  31.4101395
  22.6776864  34.9977577  30.4815100  22.2497283  35.5281148  29.8486379
  22.4599944  33.6239631  30.4884172  21.8948845  33.2339497  29.8610661
  23.0934900  32.8449844  31.4380489  22.9439451  31.9274641  31.4596102
  23.9556963  33.4317718  32.3635941  24.3923884  32.9037319  32.9929523
  24.1606465  34.7875776  32.3467346  24.7310532  35.1749950  32.9715945
  24.6897846  39.0508831  30.1996968  25.7868910  39.5867420  30.4273256
  23.5707515  39.7363852  30.0271837  22.8582541  39.3949104  29.6861802
  23.4150715  41.1370747  30.3906033  24.2367927  41.4838930  30.7704088
  23.1114721  41.9861995  29.1472404  23.7033338  41.7199487  28.4259192
  21.6762412  41.7749680  28.6455697  21.6625903  41.7574034  27.6754361
  21.3283880  40.9329410  28.9792953  21.1068678  42.4960450  28.9551952
  23.3183293  43.3658532  29.4664533  24.0387841  43.4580233  29.8890767
  22.3278635  41.2456449  31.4694366  21.7781100  40.2404159  31.9353303
  22.0653226  42.4771616  31.8959386  22.4839768  43.1785698  31.6252573
  21.0277373  42.7676097  32.8791108  20.2597052  42.2081256  32.6857451
  21.4608306  42.4745409  34.3249607  21.7613353  41.5534253  34.3702595
  22.6089209  43.4024757  34.7682561  22.6620906  43.4236108  35.7368051
  23.4516401  43.0807553  34.4133276  22.4524082  44.3021754  34.4420718
  20.3653328  42.6989380  35.2068590  20.1822604  43.5186165  35.2351548
  20.6620483  44.2318539  32.7462261  21.4446818  45.0469788  32.2446065
  19.4809551  44.5663779  33.2466647  18.8926469  44.0057010  33.5274044
  19.0892851  45.9619118  33.3573470  19.4564330  46.4600079  32.6105594
  17.5719401  46.1339105  33.3089785  17.3572099  47.0717044  33.1862163
  16.9453790  45.3562939  32.1247258  16.1197540  45.7843035  31.8460515
  17.5609523  45.3414716  31.3748653  16.7519746  44.4445679  32.3914171
  17.0228409  45.6437262  34.5333487  16.9833946  46.2642547  35.0986462
  19.6182404  46.5135280  34.6727405  19.8455109  45.7733209  35.6342864
  19.7584669  47.8386719  34.7232286  19.6122158  48.3767565  34.0691096
  20.1905209  48.4842635  35.9522289  21.0778577  48.1656045  36.1843404
  20.2859821  49.9918910  35.7530996  20.7668245  50.1611994  34.9275197
  19.3850750  50.3483509  35.6911908  21.0069312  50.7590811  36.8691161
  20.5065424  50.6605377  37.6942010  22.4002421  50.1957791  37.1454215
  23.0124828  50.9313849  37.3073206  22.3600384  49.6213660  37.9262719
  22.6938033  49.6856634  36.3747375  21.0757230  52.2209259  36.5012216
  21.9118384  52.5903549  36.8258494  21.0295832  52.3068923  35.5359678
  20.3285974  52.6848236  36.9100434  19.2467874  48.1460138  37.0964384
  19.6938132  47.8287798  38.2061039  17.9413663  48.1407613  36.8247309
  17.5974684  48.2610223  36.0452673  16.9681757  47.9206511  37.8879692
  17.1467212  48.5415380  38.6117170  15.5479079  48.2063532  37.3803790
  15.4454353  47.8218841  36.4953440  14.9079997  47.8090793  37.9900912
  15.2480618  49.6948555  37.2851408  15.9099231  50.5217368  37.9202762
  14.2426852  50.0449490  36.4846768  14.0327239  50.8747380  36.3958883
  13.8039496  49.4417493  36.0567503  17.0798641  46.5073035  38.4461657
  17.0988884  46.3202324  39.6666617  17.1892494  45.5007595  37.5707722
  17.2019617  45.5892975  36.7159305  17.3013110  44.1199183  38.0360753
  16.5754716  43.9485020  38.6568406  17.1610137  43.1474029  36.8604774
  17.7752859  43.4073570  36.1571059  17.3654976  42.2487715  37.1643095
  15.7516382  43.1439061  36.2840153  15.5846010  42.7870338  35.0916388
  14.8134955  43.5290438  37.0266983  18.6156766  43.8808700  38.7648332
  18.6720327  43.1035800  39.7315872  19.6919344  44.5106187  38.3047520
  19.7281473  44.9909148  37.5922176  20.9389469  44.3990360  39.0489073
  21.1823008  43.4610699  39.0773580  22.0677736  45.1523240  38.3518819
  22.2928593  44.6937062  37.5280560  21.7737221  46.0569067  38.1588976
  23.3062304  45.2347502  39.1936043  24.1015839  44.1242785  39.3656113
  23.8768809  43.3287290  38.9392915  25.2149105  44.1732834  40.1503211
  25.7527067  43.4204155  40.2418305  25.5434119  45.3327995  40.8054403
  26.3013857  45.3628314  41.3440904  24.7500818  46.4567831  40.6670093
  24.9697419  47.2425159  41.1133090  23.6352169  46.4063298  39.8652837
  23.0986750  47.1595156  39.7716944  20.7731335  44.9217234  40.4755292
  21.1837718  44.2675861  41.4382080  20.1688132  46.1022199  40.6395474
  19.7934268  46.5614988  40.0179044  20.1150415  46.7051829  41.9786849
  20.9978398  46.6926381  42.3803237  19.6971911  48.1737418  41.8496195
  18.9951137  48.2494247  41.1843757  19.3761413  48.4909241  42.7079111
  20.8750035  49.0644559  41.4142112  22.0202327  48.8171672  41.7911254
  20.6015619  50.0654407  40.5949651  21.2309086  50.5867734  40.3276749
  19.7939916  50.1958331  40.3288242  19.2248953  45.9120697  42.9453147
  19.5245556  45.8345400  44.1421655  18.1927560  45.2392713  42.4541886
  17.9376226  45.2448505  41.6333251  17.3948378  44.4064337  43.3443988
  17.0543786  44.9734124  44.0536566  16.2087196  43.7938953  42.6027747
  16.5659619  43.3069902  41.8437520  15.7731536  43.1804447  43.2147058
  15.1187676  44.6893578  42.0553257  15.4994355  45.2779443  41.3838886
  14.0252456  43.7999902  41.4253331  13.4070123  44.3609150  40.9304755
  14.4439669  43.1612184  40.8268308  13.5538475  43.3311627  42.1315098
  14.5279790  45.5949927  43.1081825  13.9919530  46.2769588  42.6732247
  13.9717114  45.0671475  43.7022295  15.2476801  46.0097756  43.6084940
  18.2308975  43.2910967  43.9388040  18.0862002  42.9481250  45.1165536
  19.0793366  42.6731787  43.1247238  19.1621288  42.8296224  42.2830963
  19.9657895  41.6382246  43.6449663  19.4442084  40.9887433  44.1408577
  20.6481820  40.8940156  42.4825814  21.1501448  41.5315569  41.9513974
  21.6457581  39.8553054  42.9788757  21.9191758  39.2982150  42.2335810
  22.4168390  40.3112719  43.3520296  21.2218087  39.3115075  43.6613445
  19.5762391  40.2343789  41.6285663  19.9450320  39.4341795  41.2209810
  18.8227241  40.0000190  42.1922512  19.2935257  40.8557723  40.9394950
  20.9694414  42.2478090  44.6078534  21.0984349  41.8073474  45.7501761
  21.6586726  43.2969762  44.1803835  21.5419728  43.6912290  43.4254671
  22.7169263  43.8776082  45.0097439  23.3880118  43.1942242  45.1653311
  23.3562965  45.0485358  44.2751091  23.9025650  45.5519231  44.8988038
  23.9083223  44.7062311  43.5551647  22.6563839  45.6160244  43.9156635
  22.2028287  44.3365309  46.3704329  22.8940495  44.1769097  47.3898935
  21.0075155  44.9338750  46.4009679  20.5382579  45.1288677  45.7078127
  20.3866704  45.3163587  47.6673275  20.8706922  46.0690407  48.0405896
  18.9434193  45.7641719  47.4144170  18.9600857  46.5998663  46.9218166
  18.4933352  45.0811462  46.8934043  18.1325233  45.9901987  48.6749552
  17.8893454  45.1284420  49.0466782  18.6759110  46.4846275  49.3094872
  16.6005990  46.9294454  48.4090368  17.2640614  48.5657596  48.0667983
  16.5473470  49.2166380  48.1306703  17.9538684  48.7687218  48.7162517
  17.6386475  48.5733765  47.1721429  20.4333468  44.1728615  48.6775862
  20.7093093  44.3957676  49.8594117  20.1855110  42.9366342  48.2281594
  20.0518038  42.7302660  47.4034277  20.1228789  41.8010960  49.1410155
  19.4710321  42.0166944  49.8261133  19.6720465  40.5369813  48.4014255
  20.0337778  40.5599948  47.5023316  20.0138406  39.7634379  48.8768994
  18.1988384  40.3761391  48.2879502  17.7708621  40.7821853  49.0583103
  17.8907015  40.8032000  47.4735574  17.8042541  38.9125435  48.2379198
  17.6844025  38.6414433  47.3150107  18.4981973  38.3767732  48.6543858
  16.4880119  38.6704173  48.9908922  16.1177632  37.8214657  48.7037511
  16.6728401  38.6483952  49.9423382  15.4470797  39.7220358  48.7550622
  14.6449869  39.4136723  48.9886946  15.6305972  40.4452769  49.2402144
  15.4304843  39.9474949  47.8943307  21.4591179  41.5249700  49.8003702
  21.5149960  40.9718679  50.9126389  22.5485817  41.8223377  49.1137974
  22.5501820  42.2188418  48.3507568  23.8608167  41.4838398  49.6265385
  23.7974766  40.7998735  50.3117867  24.6915120  40.9003900  48.4911312
  24.7262133  41.5357205  47.7595433  25.5871486  40.7130185  48.8108139
  24.0795525  39.6007152  47.9758837  23.1712288  39.6024118  46.9504101
  22.9279724  40.4114266  46.5599780  22.5971000  38.4100202  46.4724473
  21.9883750  38.4318191  45.7692058  22.9387860  37.2242377  47.0469007
  22.3939361  36.0538807  46.5668838  22.9257732  35.4164111  46.6940682
  23.8548270  37.2010131  48.0819129  24.0986148  36.3915936  48.4682764
  24.4111530  38.3827348  48.5455853  25.0162860  38.3573724  49.2509242
  24.5249118  42.6690969  50.2855652  25.7414598  42.6543483  50.5184074
  23.7403008  43.6894245  50.6024597  22.8969125  43.7044311  50.4370025
  24.2166724  44.9002273  51.2656455  23.4410081  45.4549179  51.4437052
  24.8924513  44.5796167  52.5930508  24.3902486  43.8826643  53.0443332
  25.7987297  44.2771918  52.4222036  24.9673280  45.8062826  53.5377186
  24.1193021  46.7002777  53.4941542  25.9823093  45.8303857  54.3953812
  26.0688142  46.4894918  54.9406022  26.5522712  45.1870043  54.4042585
  25.1618896  45.7120946  50.3913492  26.1067809  46.3122229  50.8923167
  24.9275786  45.7050071  49.0868351  24.3663689  45.1779306  48.7029353
  25.6079112  46.6001946  48.1674506  26.4750917  46.8279481  48.5367665
  25.7975152  45.9252012  46.8136429  25.0173905  45.3806237  46.6268013
  25.8931555  46.6118209  46.1352984  27.0040762  45.0360553  46.7361699
  27.1926001  43.9894662  47.6395541  26.5601590  43.8385144  48.3039078
  28.3009305  43.1772166  47.5593034  28.4291425  42.4879883  48.1707943
  29.2271730  43.4092262  46.5460180  30.3439359  42.6398607  46.4028797
  30.5270799  42.5491690  45.5873785  29.0264478  44.4102910  45.6263959
  29.6342232  44.5344885  44.9334623  27.9386295  45.2202173  45.7302020
  27.8204775  45.9083472  45.1159558  24.8143727  47.8879351  47.9731391
  23.5786915  47.8878773  47.9245893  25.5419350  48.9787599  47.8218075
  26.3999445  49.0056534  47.8827631  24.9298427  50.2622406  47.5324111
  24.2532443  50.4278281  48.2069602  25.9660142  51.3782394  47.5614311
  26.8094376  51.0376291  47.2256775  25.6589879  52.1102826  47.0044223
  26.1935463  51.9057542  48.9418568  25.3380055  52.1260392  49.3423096
  26.6428692  51.2275829  49.4703090  27.0460215  53.1440813  48.9489798
  26.5927069  54.1539874  49.5323609  28.1620461  53.1024870  48.3718385
  24.2734378  50.2679453  46.1584769  24.7146495  49.5681901  45.2526552
  23.2275506  51.0794421  45.9824967  22.5015938  51.8419912  47.0122664
  22.9681107  52.6643689  47.2303187  22.3745172  51.3105421  47.8141213
  21.1503890  52.1373712  46.3247105  20.7489017  52.9509188  46.6689404
  20.5331166  51.3957003  46.4237767  21.5394379  52.3115360  44.8785983
  21.8739035  53.2072464  44.7137658  20.7898578  52.1248512  44.2922259
  22.6616212  51.2777418  44.6439938  22.2863743  50.4469422  44.3128581
  23.7012431  51.7905452  43.6554454  24.5105302  52.6819866  43.9571087
  23.7000937  51.1848661  42.4765368  23.2573629  50.4676219  42.3066837
  24.4576362  51.6843629  41.3384321  25.2524918  52.1401538  41.6547377
  24.8963267  50.5427299  40.4260781  25.3231620  49.8623420  40.9680355
  24.1095671  50.1766000  39.9918048  25.8806646  50.9456659  39.3321076
  25.5841225  51.7607797  38.8974890  27.2442745  51.2151750  39.9326730
  27.8050165  51.6395758  39.2644557  27.1419764  51.8007172  40.6994516
  27.6386241  50.3743685  40.2098350  25.9550457  49.8427028  38.2973024
  26.7203294  50.0007393  37.7213604  26.0526811  48.9910189  38.7501356
  25.1398820  49.8465342  37.7711660  23.5752626  52.6595577  40.5643823
  22.5100077  52.2829431  40.0687297  24.0434496  53.8854721  40.4200641
  24.8011596  54.1461653  40.7322383  23.3177559  54.9280995  39.7113845
  22.3843175  54.6708679  39.6534043  23.4350833  56.2488169  40.4556196
  22.7550570  56.8675734  40.1472536  23.2509872  56.0407093  41.9562041
  23.3302804  56.8882030  42.4210439  22.3746661  55.6647329  42.1337771
  23.9280819  55.4328402  42.2923527  24.7400932  56.7643779  40.2324068
  25.3040808  56.3186066  40.6669479  23.8688806  55.1065365  38.3083792
  24.9328395  54.5872661  37.9533206  23.1569625  55.9021715  37.5154557
  22.4224277  56.2943351  37.7295477  23.6226233  56.1596667  36.1590523
  23.8149076  55.3212324  35.7098522  22.5238508  56.8344824  35.3374534
  21.7357636  56.2695985  35.3499363  22.3219555  57.6955994  35.7381651
  22.8941829  57.0823776  33.8658359  22.1767748  57.5783091  33.4401898
  23.7174829  57.5946645  33.8304924  23.1081741  55.7939003  33.0739186
  22.3358762  54.8472352  33.1866405  24.1835892  55.7472425  32.3037093
  24.7170434  56.4202258  32.2686081  24.3484531  55.0430768  31.8373321
  24.9099594  56.9764220  36.1813159  25.7563789  56.8008009  35.3018569
  25.1117323  57.8188112  37.2053423  24.5431924  57.9962387  37.8247443
  26.3850035  58.5155579  37.3195468  26.5211975  59.0268273  36.5071252
  26.3809815  59.5069391  38.4869568  25.7988958  59.1720236  39.1867467
  27.2850168  59.6032263  38.8247555  25.8752258  60.8992399  38.0706088
  25.1542108  61.0235951  37.0446195  26.2138638  61.8705476  38.7728015
  27.5198043  57.5217225  37.4972494  28.5893426  57.6922278  36.9057287
  27.2960148  56.4659437  38.3034623  26.5727092  56.3312029  38.7500941
  28.3134531  55.4346282  38.4806252  29.1155150  55.8484710  38.8366980
  27.8387165  54.3856477  39.4831960  26.9650133  54.0632825  39.2094420
  28.4737216  53.6535377  39.4956260  27.7173264  54.9094361  40.8766762
  26.8027207  54.4170596  41.7821903  26.9291422  55.0641902  42.9261468
  26.4191443  54.9229529  43.6917937  27.9036192  55.9452573  42.7974397
  28.1743581  56.4831284  43.4107261  28.4134568  55.8657666  41.5272563
  29.1094628  56.3743900  41.1785045  28.6508091  54.7778108  37.1494668
  29.8225607  54.6381157  36.7938469  27.6179522  54.4232136  36.3786150
  26.7908710  54.5111164  36.5985852  27.8147591  53.8368364  35.0513461
  28.3115713  53.0100286  35.1544408  26.4484812  53.5259176  34.4139958
  25.9549469  54.3539906  34.2976855  26.6368037  52.8948731  33.0401667
  25.8010341  52.4884734  32.7620259  26.8967071  53.5829827  32.4096697
  27.3299898  52.2184516  33.0961945  25.6293452  52.6160465  35.3253162
  24.7504965  53.0069445  35.4550644  25.5448562  51.7442105  34.9089166
  26.0824553  52.5321378  36.1790847  28.6460384  54.7614565  34.1548919
  29.5544098  54.3165394  33.4336816  28.3186551  56.0484316  34.1468805
  27.6809557  56.4017305  34.6033554  29.0654678  56.9824690  33.3139141
  29.0189160  56.7004520  32.3864243  28.4427348  58.3804359  33.4096640
  28.3935548  58.6439293  34.3419781  28.9930285  59.0092539  32.9168731
  27.0278344  58.4252440  32.8257110  26.6913119  57.5442584  32.0150268
  26.2571119  59.3260735  33.1774382  30.5151563  57.0140195  33.7353058
  31.4257015  57.0388863  32.8924595  30.7428375  57.0012483  35.0424034
  30.1270529  56.9735134  35.6418716  32.0888696  57.0330042  35.5984440
  32.5828368  57.7794464  35.2262055  31.9702659  57.2178171  37.1230762
  31.2496704  56.6465774  37.4306023  33.2239062  56.8054682  37.8262345
  33.1828068  57.1074489  38.7476662  33.2989267  55.8393185  37.7979001
  33.9841732  57.2093626  37.3800334  31.6381819  58.6850172  37.4575832
  32.4426819  59.2191493  37.3623118  30.9559898  59.0005312  36.8448240
  31.1061860  58.8750853  38.9058331  31.1953873  59.8079454  39.1550565
  30.1727582  58.6121628  38.9369012  31.6259930  58.3203120  39.5081496
  32.8728674  55.7848192  35.2242467  34.1013505  55.8273776  35.1076272
  32.1933098  54.6697784  35.0099306  31.3440529  54.5881967  35.1185086
  32.8685834  53.4551144  34.5574939  33.7282073  53.3806084  35.0001175
  32.0278039  52.2290264  34.9554826  31.1050889  52.3820120  34.6983570
  32.3752742  51.4476082  34.4970385  32.0646296  51.9518239  36.4667181
  31.9731059  52.8039838  36.9215673  30.9277218  51.0761647  36.9300578
  31.0288682  50.9024272  37.8785333  30.0892248  51.5337738  36.7649801
  30.9508758  50.2409976  36.4365714  33.3805250  51.2956528  36.8345614
  33.2015245  50.4259752  37.2245470  33.9181648  51.1937270  36.0330450
  33.8453306  51.8553351  37.4744634  33.1445266  53.4541207  33.0582350
  33.6936395  52.4791359  32.5490240  32.8363865  54.5336872  32.3502719
  32.5396277  55.2668443  32.6886443  32.9794094  54.5622269  30.9157584
  32.3647047  53.9183856  30.5293550  32.7486959  55.4488609  30.5971591
  34.3755902  54.2341738  30.4046690  34.5312535  53.4662857  29.4604667
  35.4152446  54.8379522  30.9845011  35.3824790  55.9904450  31.9072485
  35.1949976  55.7002437  32.8133903  34.7204589  56.6394909  31.6220630
  36.7667405  56.5642016  31.8075568  37.0671649  56.8737929  32.6764857
  36.7845118  57.2948047  31.1707081  37.6747000  55.4615587  31.3288990
  38.0342892  54.9576371  32.0750710  38.3976549  55.8166467  30.7887899
  36.7752217  54.5593826  30.4721202  36.8400581  54.8416899  29.5470602
  37.1652880  53.0910139  30.5820540  37.7902653  52.5558846  29.6718184
  36.7890456  52.4102198  31.6584532  36.3442279  52.7329115  32.3188934
  37.1285864  51.0017386  31.7836075  38.0611284  50.8563491  31.5607594
  36.9240091  50.5838083  33.2320868  36.0040146  50.7499376  33.4921157
  37.1316619  49.6411303  33.3320443  37.8510509  51.3937503  34.1500550
  37.6742022  52.3323541  33.9805453  37.5731216  51.0470195  35.5767144
  37.7661142  51.8180413  36.1325788  36.6399220  50.8002648  35.6656838
  38.1387188  50.3021435  35.8362245  39.3194415  51.1468030  33.8713651
  39.8455489  51.5186047  34.5969411  39.4729665  50.1916987  33.8069609
  39.5593409  51.5770896  33.0350693  36.3209583  50.1486422  30.8132649
  36.8496987  49.2124506  30.2058600  35.0523088  50.4697934  30.6208196
  34.6283110  51.0928911  31.0353641  34.2653698  49.7397586  29.6384850
  34.2848148  48.7952548  29.8588107  32.8183689  50.2116211  29.6889366
  32.4696074  50.0868243  30.5855894  32.7769010  51.1496702  29.4437648
  32.0495322  49.4553782  28.7784243  31.8507507  48.7130522  29.1172799
  34.8434538  49.8950980  28.2385934  34.9819618  48.9126944  27.5027316
  35.2098318  51.1252652  27.8537012  35.1290158  51.8367233  28.3286088
  35.7993011  51.3381564  26.5348600  35.1564458  51.0298567  25.8774338
  36.0726251  52.8233940  26.2852380  36.3368285  52.9448509  25.3591954
  35.2643737  53.3288662  26.4673768  36.7859811  53.1175131  26.8729106
  37.0974631  50.5650019  26.3779373  37.3323903  49.9502307  25.3347276
  37.9586685  50.5898121  27.3968341  37.8235930  50.9733831  28.1538532
  39.2501298  49.9239077  27.2652396  39.6993984  50.2850348  26.4845450
  40.1230673  50.2038636  28.4883838  40.1054705  51.1541936  28.6825984
  39.7791945  49.7038535  29.2465121  41.5720431  49.7887862  28.2617262
  41.5993511  48.8412694  28.0579315  41.9323951  50.2991929  27.5189715
  42.4586254  50.0329615  29.4712849  42.1821276  50.9033498  30.3130776
  43.5341482  49.2527046  29.5713453  43.6888643  48.6561888  28.9720150
  44.0720418  49.3457950  30.2354798  39.0839856  48.4194985  27.0750867
  39.7331911  47.8215934  26.2155481  38.1862617  47.7983160  27.8311853
  37.6403689  48.1943548  28.3644641  38.0562970  46.3439450  27.8123369
  38.9186560  45.9607167  27.5877506  37.6371383  45.8485280  29.1960121
  37.6552751  44.8806724  29.2528325  38.6194053  46.3766894  30.2580908
  38.1528245  46.5311416  31.0941410  39.3257643  45.7294824  30.4068224
  39.0145037  47.2107539  29.9588542  36.2913646  46.2990730  29.4441721
  36.2473117  47.1338540  29.3581198  37.0459915  45.8411399  26.7934774
  37.0641747  44.6529898  26.4541346  36.1663768  46.6950699  26.2977803
  36.1686777  47.5420945  26.4468608  35.0976579  46.2364207  25.4374740
  34.7977185  46.9831541  24.8946770  35.4471676  45.5440606  24.8544326
  33.8791158  45.6673629  26.1479684  32.9334885  45.2517018  25.4756874
  33.8502734  45.6705966  27.4706058  34.4679939  46.0158137  27.9598467
  32.7587716  45.0830433  28.2356594  32.2514203  44.4976153  27.6517487
  33.2757892  44.2770868  29.4229676  33.8229343  44.8448453  29.9882707
  32.1315691  43.7847101  30.2842408  32.4337562  43.0251546  30.8062402
  31.8490577  44.5003337  30.8747017  31.3957141  43.5191940  29.7104485
  34.1335788  43.1327257  28.9047932  33.5593100  42.3890578  28.6626312
  34.6310950  43.4332442  28.1280692  35.1001170  42.6589442  29.9201685
  35.8393547  42.2189957  29.4708224  35.4257019  43.4204566  30.4242463
  34.6550526  42.0349800  30.5132252  31.8498537  46.2048025  28.7031974
  32.2517526  47.0559071  29.5049905  30.6245585  46.2046066  28.1863303
  30.3668366  45.6880460  27.5500131  29.5811205  47.1053643  28.6663863
  29.8249159  48.0243554  28.4787959  28.2725993  46.7659650  27.9474883
  27.5329416  46.8866901  28.5632082  28.1683771  47.3570009  27.1854493
  28.3070578  45.8435935  27.6479931  29.3994204  46.9929655  30.1811165
  29.5285420  45.9147762  30.7731508  29.0750528  48.1247116  30.8161664
  28.9409231  48.8847563  30.4350231  28.9197964  48.1396071  32.2725368
  29.7433927  47.8172199  32.6704621  28.6895172  49.5726172  32.7800548
  27.9439343  49.9294256  32.2728862  28.3320415  49.5930135  34.3009006
  28.5317960  50.4714893  34.6604162  27.3882879  49.3995506  34.4070337
  28.8608349  48.9200773  34.7588400  29.9328841  50.4665313  32.5529548
  29.6652515  51.3977479  32.6011461  30.5892001  50.2760457  33.2413337
  30.3049921  50.2739311  31.6786209  27.7904837  47.1917470  32.7020188
  27.9440501  46.3947781  33.6330392  26.6482384  47.2342912  32.0056914
  26.4891763  47.7420561  31.3310396  25.5526266  46.3519315  32.3996355
  25.3742792  46.4756040  33.3447140  24.2864712  46.7286441  31.6435771
  24.5041777  46.8675203  30.7085015  23.6391905  46.0122200  31.7308070
  23.6577706  48.0137804  32.1882397  24.3307835  48.7120240  32.1666400
  22.4662465  48.3434650  31.3074915  22.1241775  49.2172121  31.5539540
  22.7508552  48.3491665  30.3808765  21.7808258  47.6707721  31.4394643
  23.2333498  47.9502524  33.6578111  23.0947786  48.8528691  33.9857366
  22.4090146  47.4438203  33.7266008  23.9324094  47.5160684  34.1707760
  25.9000933  44.8744636  32.2161184  25.3983852  44.0333920  32.9759951
  26.7792748  44.5404453  31.2490353  27.0905017  45.0845935  30.6597090
  27.2900745  43.1748786  31.1243863  26.5186244  42.5902240  31.0635866
  28.1412451  43.0123114  29.8709085  28.7058414  43.7943780  29.7702863
  28.6889809  42.2165476  29.9628197  27.3254620  42.8685145  28.6217815
  26.1116711  43.1391244  28.6701018  27.9217752  42.4889504  27.5920559
  28.1499514  42.7936754  32.3198882  28.0524362  41.6799441  32.8448143
  29.0330683  43.6991133  32.7374534  29.1808510  44.4582544  32.3617552
  29.8430903  43.4388027  33.9237640  30.3293602  42.6120818  33.7767429
  30.8731175  44.5318873  34.1398245  31.3627583  44.6739092  33.3144200
  30.4184465  45.3487791  34.3996014  31.8805651  44.1769721  35.2379417
  32.4619890  44.9384075  35.3880867  31.3961559  43.9633334  36.0507505
  32.9193948  42.7610575  34.8244821  34.2617173  43.6817753  34.0428351
  35.0539309  43.1221288  34.0139149  33.9956396  43.9252689  33.1430604
  34.4406313  44.4812300  34.5628198  28.9719759  43.3185773  35.1489295
  29.3216610  42.5737854  36.0696506  27.8408276  44.0533202  35.1771315
  27.6080334  44.6232202  34.5776118  26.8965811  43.9234614  36.2745008
  27.3740358  44.1003863  37.1001064  25.7580354  44.9610845  36.1752750
  25.4360690  44.9884157  35.2606928  25.0392178  44.6982114  36.7713958
  26.2821181  46.6343037  36.6330567  26.3576670  46.7058592  37.8290743
  26.3123046  42.5193064  36.3095510  26.0935102  41.9715731  37.3829583
  26.0470503  41.9178230  35.1431711  26.1691865  42.2607020  34.3643363
  25.5010412  40.5623551  35.1486382  24.7207667  40.5260272  35.7240389
  25.0245890  40.1770135  33.7427064  25.6296847  39.5136979  33.3749815
  24.1284983  39.8109415  33.8016873  25.0226652  40.9690428  33.1822182
  26.5224188  39.5660192  35.7124002  26.1659235  38.6796324  36.4942715
  27.8039163  39.7332064  35.3919668  28.1058432  40.3311533  34.8528521
  28.8220215  38.8637894  35.9726672  28.5806413  37.9387312  35.8136420
  30.1671860  39.1187449  35.2915064  30.4217263  40.0452713  35.4235936
  30.8366090  38.5326892  35.6773271  30.0647174  38.8585044  33.9032953
  29.3909125  39.2484449  33.5872789  28.9163571  39.0566431  37.4908817
  28.9586186  38.0862901  38.2523139  28.9308890  40.3094342  37.9612827
  28.9352076  41.0246997  37.4832225  28.9417898  40.5250362  39.4100556
  29.7168878  40.0710429  39.7773746  29.0549928  42.0115162  39.7174764
  29.9377660  42.3096500  39.4496821  28.3771089  42.4785116  39.2045060
  28.8673698  42.4059266  41.1820238  27.9656046  42.1905768  41.4668799
  29.8113058  41.5929983  42.1045413  29.6110216  41.8075358  43.0291179
  29.6696303  40.6466575  41.9456602  30.7307137  41.8281234  41.9016222
  29.0506566  43.9311163  41.3448216  29.2763731  44.1259699  42.2679999
  29.7644964  44.2284429  40.7596177  28.2212962  44.3755936  41.1072796
  27.6897836  39.9441353  40.0822108  27.7702028  39.3584282  41.1682375
  26.5227156  40.1134681  39.4715426  26.3918211  40.5983569  38.7738418
  25.3294526  39.4401366  39.9899877  25.0945881  39.8307981  40.8465752
  24.1624026  39.6593196  39.0263394  23.8085472  40.5520847  39.1681100
  24.4924913  39.5744441  38.1186023  23.0021088  38.6695103  39.1932068
  23.3456656  37.7648122  39.1198507  22.5958661  38.8016377  40.0631971
  21.9176129  38.8484432  38.1347232  22.3121629  38.7444018  37.2547603
  21.2279789  38.1812742  38.2712494  21.2680129  40.2200099  38.2020619
  20.7702079  40.2995539  39.0309141  21.9552275  40.9029893  38.1607312
  20.3231645  40.4310173  37.0610508  20.6019296  41.1086820  36.5562087
  20.2792750  39.6958659  36.5616451  19.5092291  40.6171519  37.3707912
  25.5761265  37.9463549  40.2321743  25.2426496  37.4084794  41.2999477
  26.1816325  37.2610655  39.2704233  26.4598455  37.5890767  38.5262297
  26.4211282  35.8262750  39.4374799  25.5827588  35.3986298  39.6733195
  26.9007873  35.2124518  38.1184180  26.2784791  35.4572411  37.4160544
  27.7835902  35.5614439  37.9161098  27.0012817  33.6613501  38.1444450
  27.6750425  33.4013878  38.7913793  26.1394226  33.2963207  38.3987644
  27.3880368  33.0489321  36.7897617  26.8256122  33.4632378  35.7546697
  28.2644206  32.1488740  36.7538210  27.4098494  35.5478485  40.5633965
  27.2455241  34.5771162  41.3150927  28.4387850  36.3899454  40.7111195
  28.6045931  37.0626701  40.2008654  29.3874340  36.2067405  41.8019352
  29.7500431  35.3082215  41.7626501  30.5692564  37.1811349  41.6519468
  30.2149445  38.0688696  41.4844740  31.0771850  37.1771381  42.4783840
  31.5421341  36.8489437  40.5108618  31.0090218  36.5793354  39.7461908
  32.3583730  38.0579463  40.0656519  32.4306920  38.0511872  39.0980516
  31.9098946  38.8668546  40.3577539  33.2415106  38.0069330  40.4635408
  32.4711945  35.6655052  40.8970819  32.2955272  34.9187711  40.3029690
  33.3951291  35.9472843  40.8093188  32.2892271  35.4071312  41.8142971
  28.6992210  36.3781393  43.1478295  29.0105790  35.6561987  44.1013356
  27.7472481  37.3194021  43.2430446  27.4905504  37.8373070  42.6067398
  27.0619143  37.5154455  44.5155880  27.7324502  37.6166848  45.2099978
  26.2236599  38.7882157  44.4862685  25.6305642  38.7392677  43.7205802
  25.7050397  38.8247785  45.3056160  26.9881852  40.1077572  44.3787136
  27.5607080  40.0633858  43.5974128  26.0190562  41.2780493  44.2023974
  26.3366715  42.0330655  44.7227935  25.9789948  41.5162928  43.2635960
  25.1398355  41.0096311  44.5134163  27.8777959  40.3336710  45.5772113
  28.5410742  41.0070461  45.3565016  27.3353073  40.6359646  46.3217962
  28.3182275  39.5000850  45.8063389  26.1842732  36.3205122  44.8533138
  26.1178602  35.9087282  46.0115073  25.5270401  35.7433888  43.8437113
  25.6335351  35.9530808  43.0158604  24.5461462  34.6837036  44.0441497
  24.0157906  34.8801291  44.8313225  23.6115990  34.6281427  42.8383295
  24.1350316  34.7002958  42.0255139  23.1285679  33.7868373  42.8473499
  22.5850097  35.7693535  42.8503392  21.9564510  35.6122181  43.5723443
  23.0539968  36.6055765  42.9945863  21.7796263  35.9099255  41.5610230
  22.2280888  35.5478102  40.4741248  20.6126530  36.4910370  41.6811759
  20.3464907  36.7645222  42.4524219  20.1132636  36.5992939  40.9902521
  25.2143662  33.3422289  44.2748743  24.7489750  32.5542282  45.1008234
  26.3311595  33.0912612  43.5960068  26.7366667  33.6728086  43.1091623
  26.9826465  31.7914833  43.6100118  26.3806219  31.1563877  44.0278526
  27.2598074  31.3253334  42.1721554  27.8390838  31.9693163  41.7352218
  27.6906962  30.4556305  42.1986465  26.0036141  31.1991337  41.3568015
  24.9052305  31.1650004  41.9022393  26.1601388  31.0978022  40.0389635
  25.4708673  31.0233757  39.5296754  26.9479480  31.1065404  39.6966037
  28.2874106  31.7579897  44.3807346  28.7391047  30.6692237  44.7291193
  28.8841321  32.8962750  44.6981761  28.5458153  33.6804073  44.5951990
  30.2122406  32.8633775  45.2686274  30.4156579  33.7173107  45.6799720
  30.2643155  32.1677064  45.9433214  31.2350755  32.5806051  44.1955135
  30.9159707  32.4638971  43.0043765  32.4981571  32.4619206  44.6251702
  32.7257282  32.4959523  45.4537342  33.6278427  32.2620861  43.7229282
  33.3392223  32.5798989  42.8531281  34.8384603  33.0747864  44.1747868
  35.0617250  32.8153423  45.0828456  35.5798427  32.8777649  43.5816253
  34.6411337  34.5318230  44.1673419  34.1922889  34.8001760  43.3496170
  34.1147681  34.7979929  44.9372866  36.2399559  35.3402090  44.2468450
  35.7110725  36.7539421  45.1776324  36.3967003  37.4392548  45.1284890
  34.8824427  37.0886941  44.8006779  35.5719155  36.4906458  46.1006819
  34.0857435  30.8114340  43.6081877  34.9458460  30.5251349  42.7719972
  33.5913589  29.9249663  44.4698806  33.0854603  30.1388371  45.1307066
  33.8487455  28.4858418  44.3936778  33.4337333  28.0753588  45.1677777
  33.2245125  27.8774745  43.1395661  32.7477745  28.5682257  42.6537187
  33.9267670  27.5042572  42.5833921  32.2407248  26.7663437  43.4693528
  31.0902720  27.0262711  43.8268595  32.6969754  25.5203166  43.3719010
  32.1777907  24.8575314  43.5479467  33.5096214  25.3773893  43.1324134
  35.3368241  28.1588641  44.4742797  35.8408467  27.2683872  43.7863502
  36.0321135  28.8287451  45.3709938  35.7058077  29.4484835  45.8699065
  37.4341935  28.5731108  45.5962241  37.6489011  28.8103605  46.5120287
  37.6010131  27.6265744  45.4680637  38.3763037  29.3316013  44.6926658
  39.5790125  29.3553843  44.9663221  37.8752359  29.9566742  43.6306201
  37.0434696  29.9593255  43.4116253  38.7340441  30.7086427  42.7325618
  39.5851262  30.2516758  42.6399203  38.1014027  30.7944931  41.3404898
  37.2695840  31.2903755  41.3954019  38.7143978  31.2395226  40.7357867
  37.7991234  29.4083575  40.7857995  38.4831529  28.7878996  41.0847804
  36.9285810  29.1201678  41.1033584  37.7784303  29.3968053  39.3026783
  37.6989225  28.4837051  38.9844289  37.0318927  29.9266099  38.9829194
  39.0159953  29.9679417  38.7765851  39.5905506  30.2682499  39.3420753
  39.3140709  30.0556515  37.4864549  38.4607402  29.5907787  36.5868139
  37.7193318  29.2351170  36.8402016  38.6467430  29.6445591  35.7484729
  40.4602175  30.6133064  37.1055889  41.0079032  30.9158430  37.6951218
  40.6530994  30.6695353  36.2688859  39.0183748  32.0954533  43.3005710
  38.4147540  32.5440928  44.2797082  39.9698830  32.7747192  42.6737728
  40.3740740  32.4982932  41.9670513  40.4174938  34.0742093  43.1432439
  39.8187258  34.3822782  43.8408258  41.8452606  34.0077465  43.7153003
  42.1423444  34.8992762  43.9542438  41.8949189  33.1678398  44.9747235
  42.5719233  33.5141009  45.5772883  41.0340747  33.1888518  45.4218251
  42.1116256  32.2489487  44.7520167  42.7200749  33.4549125  42.7236887
  42.9065571  34.0384565  42.1488097  40.3732963  35.0808562  41.9962524
  40.4307202  34.7189241  40.8211568  40.3136428  36.3593798  42.3575692
  40.2520410  36.6237994  43.1733893  40.3476294  37.4449735  41.3832642
  40.5929308  37.0910956  40.5145510  38.9807393  38.1453425  41.2587500
  38.7129619  38.4907455  42.1246334  39.1028652  39.2808457  40.2865686
  38.2169630  39.5327663  39.9821389  39.5269174  40.0314944  40.7291308
  39.6421962  38.9943335  39.5328746  37.9061032  37.1434535  40.7970080
  38.0610984  36.9343705  39.8627795  37.9838978  36.3397899  41.3346433
  36.4796119  37.6416214  40.9234687  35.8721618  36.9001835  40.7770304
  36.3496813  38.0049491  41.8136822  36.3257322  38.3318018  40.2596208
  41.4214111  38.4349735  41.8114217  41.3300289  39.0254409  42.8937357
  42.4336514  38.6305892  40.9651239  42.4900756  38.2751902  40.1837265
  43.5609294  39.4991005  41.3209167  44.2469576  39.4055699  40.6419091
  43.1368150  40.9644465  41.3597127  42.3196194  41.0308117  41.8780525
  43.8429280  41.4736577  41.7869238  42.8674582  41.6132828  39.9996582
  42.2002939  41.0966945  39.5212458  42.2762858  43.0393811  40.1576861
  42.3224652  43.4969462  39.3029653  41.3517662  42.9673607  40.4435071
  42.7915725  43.5233933  40.8207983  44.1527783  41.6159913  39.1678950
  44.1712537  42.4143320  38.6173082  44.9162465  41.6091149  39.7667246
  44.1670769  40.8262698  38.6058136  44.1505227  39.0804490  42.6659861
  44.4553077  39.9069213  43.5266106  44.2529367  37.7716810  42.8662677
  44.0139933  37.1680396  42.3020150  44.7948759  37.2511896  44.0997229
  44.9688378  36.3044952  43.9820964  45.6326797  37.7049018  44.2815029
  43.9249486  37.4024502  45.3218901  44.4140116  37.1609161  46.4300100
  42.6584149  37.7864291  45.1792664  42.2923001  37.9770497  44.4245606
  41.7791745  37.9144298  46.3287959  42.2902920  37.7194427  47.1294162
  41.2119428  39.3329338  46.4476937  41.9338707  39.9466478  46.6547161
  40.7966133  39.5807196  45.6066511  40.2333216  39.3951296  47.4878058
  40.3396819  40.0948933  47.9401466  40.6385086  36.9116060  46.2458747
  40.1263163  36.6190241  45.1566277  40.2466444  36.4014923  47.4062450
  40.6140095  36.5920046  48.1598391  39.1442276  35.4621258  47.5171592
  39.0440107  34.9887694  46.6761579  39.4310870  34.4035163  48.5847526
  38.6405179  33.8557960  48.7065435  40.1738634  33.8521716  48.2907267
  39.6581277  34.8483268  49.4156606  37.8554765  36.1739812  47.8482912
  36.8318634  35.5207206  48.0076553  37.9015718  37.5054474  47.9256744
  38.6148192  37.9595460  47.7679481  36.7765238  38.3534020  48.2816109
  35.9603732  37.8297014  48.2978858  36.9618629  38.9951295  49.6660618
  37.7809797  39.5141082  49.6272946  36.2036417  39.5826569  49.8072503
  37.0685171  38.1486723  50.9242398  37.7711941  37.4843885  50.8416797
  37.4060733  39.0715061  52.0929334  38.0697276  38.6396688  52.6546216
  37.7601658  39.9052677  51.7453602  36.6000658  39.2419218  52.6041088
  35.7728952  37.3737582  51.1562785  35.9900218  36.4670526  51.4227479
  35.2643183  37.8116038  51.8574046  35.2591268  37.3622629  50.3335684
  36.6665568  39.4523112  47.2326195  37.6450339  39.7939718  46.5637701
  35.4755579  40.0321231  47.1015253  34.7592048  39.7935948  47.5129321
  35.3259552  41.1652923  46.1983018  35.8477809  41.0352924  45.3916128
  33.8814727  41.3036410  45.7550437  33.3197384  41.4634450  46.5297167
  33.8053116  42.0428128  45.1311290  33.3938467  40.0095160  45.0487794
  33.5854806  39.2770394  45.6539277  31.9192026  40.0572175  44.7932109
  31.6771956  39.3299214  44.1995620  31.4487784  39.9667682  45.6366426
  31.6972630  40.9074521  44.3810642  34.1303454  39.7149866  43.7732936
  33.9352351  38.8052755  43.4983523  33.8385192  40.3368066  43.0888886
  35.0824276  39.8163500  43.9273650  35.8463664  42.4246328  46.8896943
  35.4723183  42.7149287  48.0254030  36.7602852  43.1295227  46.2225048
  37.0253719  42.9404785  45.4260091  37.4073822  44.3105268  46.7932197
  37.3986397  44.2357510  47.7597791  38.8597027  44.4154124  46.3076136
  38.8596792  44.5273291  45.3443272  39.2762409  45.1824579  46.7303595
  39.7094392  43.1778899  46.6377299  39.1683492  42.3838140  46.5074035
  40.4770341  43.1579387  46.0446405  40.2288788  43.1590088  48.0717714
  40.6066828  42.0637313  48.5424011  40.2680546  44.2348240  48.7252030
  36.6508351  45.5717693  46.3964767  36.3285447  45.7531738  45.2138697
  36.4114570  46.4654646  47.3772080  36.6714015  46.3713519  48.1917727
  35.6700176  47.7005532  47.1197264  35.5352004  47.7604566  46.1604762
  34.3038546  47.6493602  47.8164723  33.7212615  48.3120422  47.4129889
  33.9274940  46.7625979  47.7006525  34.3712708  47.9379732  49.3277944
  35.4480865  47.8498418  49.9714455  33.2973428  48.2461661  49.8888407
  36.4200837  48.9728554  47.5207974  35.7926673  50.0270891  47.6958286
  37.7451619  48.9420777  47.6209548  38.2326775  48.2416194  47.5156139
  38.4669432  50.1788273  47.9351064  37.8161895  50.8872637  48.0571700
  39.2337913  50.0243032  49.2605940  39.8017014  49.2391778  49.2201314
  39.7721276  50.8155897  49.4200860  38.2361930  49.8568401  50.4282235
  37.4155643  50.3196989  50.1949096  38.0615445  48.9098520  50.5455368
  38.6887366  50.3983138  51.7695476  39.8865088  50.7661422  51.8793156
  37.8297053  50.4441153  52.7153226  39.3685462  50.6546872  46.7999772
  40.3231434  51.4066226  47.0381417  39.0187686  50.3059020  45.5534386
  38.4415249  49.6929008  45.3775288  39.5815227  50.9306134  44.3612245
  40.2475466  51.5763655  44.6428009  40.2296282  49.8957268  43.4501202
  39.5627374  49.2323466  43.2119660  40.5508518  50.3440596  42.6531270
  41.3993669  49.1649884  44.0646068  42.6682541  49.7211758  44.0373727
  42.7918059  50.5593460  43.6538475  43.7592705  49.0467153  44.5735548
  44.6061473  49.4298938  44.5418386  43.5860427  47.8250800  45.1430715
  44.3134632  47.3683906  45.4985335  42.3152587  47.2617388  45.1901859
  42.1891150  46.4329246  45.5913675  41.2398531  47.9322786  44.6407023
  40.3956744  47.5421761  44.6628908  38.4844895  51.6673118  43.5924414
  37.5284428  51.0470505  43.1244620  38.6206178  52.9882107  43.4503698
  39.2374050  53.4628362  43.8160202  37.6845988  53.7294233  42.6274475
  36.7879387  53.4237232  42.8366679  37.7401687  55.2326127  42.9065096
  36.9846042  55.6747222  42.4871309  37.6267201  55.5452939  44.3783013
  37.0551615  56.3175204  44.5107547  37.2471203  54.7872628  44.8504388
  38.5047133  55.7369022  44.7452498  38.9717991  55.7426299  42.3660560
  38.8779576  55.9130467  41.5493744  38.0029417  53.5032721  41.1462820
  39.0889914  53.0432240  40.7833041  37.0641481  53.8148305  40.2642106
  35.6515111  54.0979637  40.5306076  35.5400559  54.9850087  40.9071258
  35.2720908  53.4341342  41.1273526  35.0258788  54.0125551  39.1685226
  34.3126678  54.6625484  39.0785898  34.6834635  53.1195730  39.0049113
  36.1112594  54.3199143  38.1886812  36.1917518  55.2766763  38.0492520
  35.9518176  53.8731675  37.3429527  37.3874999  53.7775829  38.8312772
  37.5224050  52.8666387  38.5263128  38.6304240  54.6046527  38.4898415
  39.4934096  54.1478135  37.7230901  38.7658924  55.8016903  39.0607209
  38.2034206  56.1616476  39.6015668  39.9588374  56.6132975  38.7752496
  40.0061890  56.7441046  37.8155343  39.8534005  57.9966050  39.4273949
  38.9575506  58.3403702  39.2863010  40.0282954  57.9077872  40.3775492
  40.8393451  59.0199016  38.8657579  41.7078177  59.7052160  39.7019544
  41.6922053  59.5389839  40.6167397  42.5994385  60.6352722  39.1898677
  43.1729578  61.0928723  39.7614574  42.6362687  60.8836470  37.8287548
  43.2356683  61.5062471  37.4857937  41.7836450  60.2078215  36.9838533
  41.8082871  60.3712432  36.0683146  40.8898574  59.2842847  37.5013991
  40.3141322  58.8344165  36.9262947  41.2272712  55.9153576  39.2278086
  42.2314287  55.9622420  38.5169053  41.2058333  55.2457590  40.4054670
  40.5349012  55.2105703  40.9412075  42.3867491  54.5011975  40.8630301
  43.0966480  55.1526484  40.9762483  42.1428230  53.8053959  42.2034901
  41.3917977  53.1984722  42.1121796  42.9400814  53.3113884  42.4520876
  41.8256445  54.7805341  43.3257210  42.1959419  55.9796889  43.1990533
  41.2101043  54.3270943  44.3175413  42.7852086  53.4385737  39.8586707
  43.9763201  53.1919255  39.6243571  41.8018694  52.7083102  39.3425183
  40.9668631  52.7931240  39.5307923  42.1120626  51.6638601  38.3752102
  42.7537935  51.0534365  38.7708976  40.8529831  50.8459729  38.0308436
  40.1553525  51.4441198  37.7197701  41.1959009  49.8290230  36.9350566
  40.5133391  49.1399225  36.9195993  41.2266198  50.2841615  36.0792954
  42.0599116  49.4333101  37.1312295  40.3446640  50.0985484  39.2780062
  40.1719367  49.1729360  39.0439445  41.0215151  50.1434742  39.9714666
  39.5266511  50.5193067  39.5874802  42.7452896  52.2819095  37.1326453
  43.7987491  51.8411415  36.6774711  42.1084978  53.3217113  36.5761973
  41.3628047  53.6483074  36.8533559  42.6674937  53.9997793  35.4066977
  42.6807006  53.3725662  34.6673288  41.7873493  55.1996786  35.0077784
  41.5745554  55.6949488  35.8143267  42.5311371  56.0982200  34.0439958
  41.9051026  56.7281686  33.6521035  43.2221375  56.5767205  34.5280791
  42.9312373  55.5536768  33.3486523  40.4918268  54.7478557  34.3742617
  40.0255268  55.5217703  34.0218493  40.6911748  54.1271784  33.6553562
  39.9462773  54.3113041  35.0469001  44.1019457  54.4408161  35.6828934
  44.9996017  54.2372277  34.8608336  44.3350433  55.0691163  36.8416701
  43.7539759  55.1804176  37.4660111  45.6490222  55.6364880  37.1419229
  45.9244835  56.2080826  36.4078053  45.5623733  56.4993539  38.4076671
  45.3999304  57.4171841  38.1378931  44.8234291  56.1754921  38.9462701
  46.8061812  56.5030262  39.3006848  47.0109633  55.5953893  39.5739913
  47.5547600  56.8781276  38.8098593  46.5790449  57.3487296  40.5593745
  47.0959704  58.1665349  40.4907562  45.6352115  57.5593793  40.6344098
  46.9883611  56.6513276  41.7790911  47.8007120  56.3721007  41.8215102
  46.2018038  56.4138103  42.8305826  46.6970781  55.7731526  43.8853105
  47.5169509  55.5153965  43.8860231  46.1959027  55.6164850  44.5673746
  44.9385349  56.8308195  42.8507573  44.6165182  57.2612545  42.1799645
  44.4438804  56.6707060  43.5362277  46.7014841  54.5477597  37.2920095
  47.8437200  54.7085536  36.8394915  46.3405304  53.4296112  37.9213467
  45.5539147  53.2583536  38.2232465  47.3283614  52.3840989  38.1390664
  48.1644919  52.8048905  38.3917368  46.9013181  51.4728719  39.2909768
  46.9193078  51.9819515  40.1162133  46.0021072  51.1521741  39.1194117
  47.8069898  50.2534133  39.4715138  47.6304239  49.6298776  38.7495168
  48.7298614  50.5485659  39.4365998  47.6190848  49.4973748  40.7803012
  48.2243909  48.4363822  40.9707429  46.7951390  50.0340353  41.6813600
  46.3962161  50.7764135  41.5094879  46.6627765  49.6379856  42.4324404
  47.5759941  51.5618945  36.8910396  48.6621700  50.9944607  36.7429996
  46.5890830  51.4484154  36.0063588  45.8000776  51.7720634  36.1218376
  46.7619665  50.7538719  34.7361227  47.5108806  50.1422168  34.8202700
  45.5148892  49.9299501  34.4187475  44.7645341  50.5325937  34.2991782
  45.6714957  49.4282724  33.6037782  45.0781127  48.7504919  35.7218970
  44.2520368  47.9900367  35.2998230  47.0772728  51.7036237  33.5746381
  47.0163498  51.2902206  32.4155038  47.4126927  52.9682989  33.8566948
  47.3796660  53.3105801  34.6449098  47.8712126  53.8932762  32.8316472
  48.0765381  53.3775621  32.0357418  46.7640294  54.8970838  32.4778770
  46.9279518  55.2499454  31.5892183  45.9064431  54.4451713  32.5022484
  46.7475992  55.9688153  33.4039059  47.4172529  56.4619044  33.2830624
  49.1242672  54.6836668  33.2143366  49.6913540  55.3550395  32.3419880
  49.5609748  54.6470151  34.4717184  49.1215089  54.3163882  35.1326856
  50.8642417  55.1866568  34.8266640  51.1841271  54.7164725  35.6122237
  51.4732743  55.0201064  34.0905442  50.9198343  56.6653327  35.1337276
  51.9822199  57.2844562  34.9651249  49.8150670  57.2613659  35.5893752
  49.0621768  56.8677129  35.7194470  49.8116464  58.6852660  35.9111375
  50.0778563  59.1831242  35.1221898  48.3994944  59.1413424  36.3186849
  48.1449452  58.6672315  37.1269483  48.3768279  60.6480637  36.6304363
  47.5037829  60.8856104  36.9796969  49.0614812  60.8461550  37.2880575
  48.5507758  61.1419767  35.8136107  47.3912142  58.7994191  35.2376407
  46.6065048  59.3578024  35.3492657  47.7922572  58.9618875  34.3691393
  47.1456366  57.8638833  35.3182540  50.8235917  58.9618318  37.0171010
  50.8032225  58.3204162  38.0785458  51.6950670  59.9448614  36.7827137
  51.6119446  60.4436910  35.9087247  52.7598211  60.3548762  37.6932990
  52.7960318  59.6480442  38.5221188  54.1196037  60.3316741  36.9746065
  54.8824274  60.7200276  37.6483421  54.4977057  58.9134846  36.5628317
  55.4626769  58.9268421  36.0568464  53.7389429  58.5172679  35.8874590
  54.5609683  58.2823724  37.4493464  54.0624764  61.1638903  35.8056657
  53.8244343  62.0588864  36.0608968  52.4902347  61.7524318  38.2601628
  51.6107458  62.4893443  37.7923389  53.2741953  62.1200094  39.2766732
  54.0041675  61.4948639  39.5862983  53.1002370  63.4160349  39.9587798
  52.4910378  64.0559537  39.3213307  52.3600796  63.2279837  41.2982386
  53.0667254  62.8449889  42.0337144  51.9907597  64.1970194  41.6351415
  51.2036372  62.2734363  41.2045244  49.9440454  62.7227529  40.8496089
  49.7863219  63.7744243  40.6627520  48.8840794  61.8403118  40.7313388
  47.9011777  62.2067135  40.4738895  49.0857842  60.4822779  40.9435867
  48.2637202  59.7896278  40.8343183  50.3396357  60.0185925  41.2952489
  50.4977681  58.9653451  41.4729762  51.3919303  60.9102826  41.4184794
  52.3726005  60.5430671  41.6840747  54.4471347  64.1071587  40.1799961
  54.7305674  65.1543788  39.5829802  55.2629269  63.6439941  40.9739741
  61.8991013  47.4724414  28.5159825  61.1999278  48.7497073  28.2413932
  60.3625066  50.7364224  27.7091116  61.5157755  49.9137544  27.5851345
  59.4145992  50.0832796  28.4050591  59.9394281  48.8517648  28.7329476
  60.1449887  52.0931203  27.1928667  59.7448299  54.7113248  26.1928300
  60.5482397  53.8011366  25.4992593  59.1263219  54.3004892  27.3764055
  60.7489394  52.5094476  25.9975043  59.3286387  53.0076347  27.8744861
  59.5023349  56.0845935  25.6419361  62.0893327  46.8147982  27.2642512
  63.2451531  46.0984865  27.0926735  63.5888729  44.9452756  27.8089188
  64.1223683  46.5939827  26.1136392  64.7984726  44.2724181  27.5663092
  65.3289558  45.9257509  25.8694391  65.6626827  44.7772827  26.5875945
  63.7822465  47.8292507  25.3255560  65.1420429  43.0236189  28.3625786
  65.3066442  43.3333198  29.8530355  64.1086154  41.9157223  28.1450889
  61.3051409  46.8623528  29.1641614  62.8381039  47.6502959  28.9964770
  62.4002782  50.1429549  27.1054293  60.9959565  54.0839459  24.6138274
  58.5150040  54.9555017  27.8876795  61.3514311  51.8521143  25.4767062
  58.8707558  52.7234919  28.7545446  60.0594458  56.2096345  24.7368294
  59.8143601  56.8163390  26.3573456  58.4585656  56.2079766  25.4380603
  62.9420386  44.5831501  28.5270451  65.9768227  46.2858995  25.1511526
  66.5547953  44.2951600  26.3956520  64.5719112  48.0405943  24.6359130
  63.6607209  48.6560991  25.9930792  62.8711559  47.6691833  24.7867217
  66.0830740  42.6680118  27.9982969  64.3784562  43.6921638  30.2476746
  66.0612460  44.0808184  29.9804833  65.5948967  42.4432933  30.3721785
  63.1543481  42.2438463  28.5010350  64.4079117  41.0387775  28.6801034
  64.0418646  41.6907610  27.1011446  25.4140927   3.0368294  37.4353097
  92.7527269  61.2495085  57.0586658  10.6863081  87.5476835  47.7831365
  89.2400193  73.4571905  53.6968383  57.5211068   4.1159188  55.6096245
  21.7532781  87.0109254  31.4691841  86.6516395  30.5244949  72.8694520
  70.9994441  37.7104603  -4.9463088  54.1335131   7.5307073  86.1449213
  44.9085154   3.3291807  67.2289635  22.2497395  38.1807931  71.9181070
  74.9006801  41.5495068  57.1989105   7.4070419  46.8295782  30.0607335
  48.0101550   8.6688069  39.7270437  66.8416381  26.6761244  13.1981142
  11.4768347  57.7356459  35.4447711   7.1809125  79.7286710  65.5503435
  64.0613052  26.2203147   4.0970326  29.0557850  19.4604842  33.6064452
  90.2979163  67.9052798  35.7152133  61.5739110  42.4542721  73.4328539
  73.3605376  64.6345278  62.4833739  95.6198778  36.5388461  49.2307125
  97.9013095  61.3100408  74.6291614  34.3235116  95.6574874  26.4735829
   9.8644277  41.5495067  30.6479709  63.3126085  13.5625547  49.0228555
  37.1707791  85.3147661  92.8289210  59.0095227  57.2826480  -2.5597112
  14.1009989  61.0173732  53.7898300  23.1443258  84.9501823  14.6759517
  57.9322191   3.0368294  37.4353100  35.3737250  60.2513968  90.9199535
   2.7465890  18.1614554  47.1317007  72.0746943  97.9871206  60.4118619
  84.2722907  67.1516631  72.9404247  55.0609449  71.5374186  18.3869383
  26.6580141  12.5235827  35.9518640  66.5405542  48.0371946 103.5668804
  53.1402373  15.0771982  27.1048970  60.2139656  97.4972776  39.5936829
  54.1899590  60.5426193  73.8834172  72.2400797  36.0543698   4.3083097
   1.6458571  48.8855985  17.8452213  44.2344697  -0.2589440  24.0062894
  71.1622609  53.0563124   1.8600938  37.4519019  31.2762944  89.0429628
  77.3412027  46.6272031  54.5023609  58.3391821  89.2246916  56.2611677
  54.5438083  68.9746362   8.2518135  67.6559262   7.7358669  52.4086526
  71.1622602  76.0501004  68.2374411  25.7072222  70.9337905  89.3204410
  88.9055128  14.9633552  71.6168931  44.9085157  72.3105434  27.4025546
  68.8440476  29.8379874   7.2021520  16.3823612  43.4710080  85.8451357
  44.6419521  85.7479439  14.8689574   6.2658934  66.6560046  43.1325413
  33.3821935  40.8790355  71.4888162  44.2215697  56.2082267  -8.1640007
  93.6964147  56.8681657  45.0893181   2.5805297  82.7420079  47.4412553
  88.7394001  46.9800701  53.8424551  84.0625470  39.9884356   4.7480652
  15.8563592  36.7766841  37.1753685  68.7715944  87.3473842  50.7107791
  95.9711546  51.7091622  38.1040450  49.4969580  55.9760618  18.4897969
  34.1639828  71.8793866  84.2225689  77.1600784  39.7603686  14.8689580
  80.8548909  20.1881789  75.7782729  89.5706025  44.9222048  64.3690151
  64.9728890  22.8598987  33.0430434   2.3137259  79.0588673  35.6866240
  37.4381235  75.4309251  24.2753401  51.6464960  13.4252806  21.2226589
  50.3685890   5.4534162  69.6299779  65.7545079 102.5046647  51.1707908
  79.4037758  56.8224262  82.3964648  22.0002709  85.3217262  82.5177562
  27.4848171  73.7406671  46.3794344  98.8685542  60.1603606  16.0860451
  84.0625466  62.9822236  44.5744735  93.2004627  65.6919185  46.6903676
   5.5595767  56.7184493  62.4554871  79.8001811  31.1734852  16.5316978
  71.7581012  11.9070970  11.6251588  52.2410425  76.8472025  93.1794935
  95.0422790  48.9308745  75.3733581  65.9132202  99.3808027  63.8326974
  19.1666510  10.6078950  62.0978881  50.1301112  45.2062761 105.9734701
  72.5807976  81.7498574  81.1295477  98.6501406  51.4376714  41.7198652
  63.1001162  53.0170524  73.1695951  31.1324810  64.8191714  95.1797464
  46.6541942   9.2518177  44.1866254  58.7529382  79.5850049  24.9481411
  42.4367615  13.4800398  23.8114545  66.3504276  14.1727854  42.6369841
  95.1919604  74.4021733  28.4740297  79.6418786  54.5436381  75.2196180
  31.4614858  53.4001781  93.4822440  64.5177366  74.2560703  38.8218187
  11.6535875  85.8226046  44.1303156  54.4024388   4.4147183  18.9393390
  84.1646218  13.4252810  74.3245371  70.8685164  13.0167527  78.3830485
  35.8423559  19.4451105  55.6096242  67.7828417  18.1614554  47.1317013
  62.0043011  39.9257951 102.7017833  27.7980627  53.7609650  94.2195541
  60.6823366  19.7043431  20.1394286  45.6922913  96.2923694  22.8358163
  35.0986562  13.7606449  34.1657866  60.4719562   6.5579453  49.6618757
  15.7242289  66.9992314  67.7917293  80.1993141  43.6539801  99.1969147
  11.7172291  42.9821625  19.0996614  55.2851990 103.7803630  50.2943912
  17.1144547  83.2039039  23.1109358  40.7050449  24.6592441  31.2990039
  21.7397398  43.3675698  92.9281572  83.2826694  39.1649827  96.4380818
  74.6742646  84.0981480  69.8405398  22.4929627  55.1642212  70.6812548
  59.1306534  84.9284651  22.6656152  46.3477224  -0.7441806  26.0042408
  30.0811400  72.3968565  39.4192636  85.9631418  29.7483047  17.3089234
  39.2499193  66.4041882  -5.8322476  41.4285917  71.2751625  99.8136251
  21.0545311  77.6450954  52.6455197   6.1193119  46.0963691  80.9440845
  14.1360679  32.2456053  30.9111555  80.4316887  41.2620258  64.7745500
  91.7905147  31.9864447  17.3152104  46.5669495   0.6124058  56.5705366
  19.8322618  84.5458818  23.5443576  16.8025662  76.0334402  61.4310379
  63.9796129   7.4126022  13.8294277  91.7905145  77.9740202  43.8661490
  10.8852099  74.7240119  54.0283942  43.2941385  61.1828779  -6.7833656
  21.8057236  22.9203602  76.8306170  40.2051301  15.1987316  85.3795509
  38.0777031  10.7308740  62.4554878  56.2829249  45.1750394 109.5287635
  57.0560126  44.6279381 109.3900510  56.6354648  46.0394643 109.7402096
  58.6195527  41.3343060 107.1606084  58.8721048  40.8124581 106.3989547
  57.6820086  41.1709206 107.2632768  66.0003131  40.6550344 109.8765498
  66.9120987  40.8877730 109.7013196  65.4912778  41.2387388 109.3140577
  63.6506072  41.8253838 108.4552164  63.1352696  42.5958443 108.6940551
  63.3783381  41.1518974 109.0785225  60.0291407  43.6751364 104.9339872
  59.1218469  43.4440617 105.1331021  60.5262439  42.8788983 105.1213853
  61.2079641  43.7763959 109.4563862  60.2990860  43.4922992 109.5536332
  61.2374725  44.1963037 108.5967169  60.9055729  45.3172702 106.7951940
  60.4675159  44.6008561 106.3357578  61.6466169  45.5448817 106.2337032
  65.0266956  44.1757084 106.3883998  64.4096127  43.4503912 106.2917051
  64.5583445  44.9366444 106.0451072  56.8165502  38.3942508 105.5105302
  55.9394968  38.2731309 105.1467549  57.2923255  37.6028587 105.2584191
  61.3777894  41.4056919 105.3767527  62.3236999  41.2763127 105.4455945
  60.9992139  40.6671581 105.8536955  59.5620811  39.3306895 105.3122412
  58.6552266  39.0340008 105.3885126  59.8396792  39.0336713 104.4456699
  58.3319596  36.1893831 105.4534392  59.1938760  36.5148729 105.7130209
  58.5169940  35.4025326 104.9407457  64.4120324  46.9867122 105.7473983
  65.1156174  47.1917125 106.3631638  63.6882972  47.5543884 106.0123066
  62.3573624  25.0923380  95.8545807  61.7061603  25.6777460  95.4679821
  63.1517986  25.6229574  95.9140844  56.2829251  22.1812517  96.2532941
  57.0560127  21.6341504  96.1145817  56.6354650  23.0456766  96.4647403
  58.6195529  18.3405183  93.8851391  58.8721049  17.8186704  93.1234854
  57.6820088  18.1771328  93.9878075  63.8348889  22.7813811  96.3914791
  63.1994722  22.8548438  97.1035696  63.5046295  23.3707410  95.7133870
  58.0624958  29.9594635  99.4220602  57.9848988  30.9102460  99.5009082
  57.4586602  29.6140507 100.0795528  66.0003132  17.6612466  96.6010805
  66.9120988  17.8939853  96.4258502  65.4912779  18.2449510  96.0385883
  60.3363327  25.3176788  98.1426142  60.2009002  26.1628323  98.5710989
  60.8773140  25.5196065  97.3792075  63.6506073  18.8315961  95.1797470
  63.1352697  19.6020565  95.4185858  63.3783382  18.1581097  95.8030532
  68.6240348  21.5848315  97.1150644  67.8469790  21.2459475  96.6705806
  69.3031829  21.5900939  96.4405609  61.8838808  22.8633276  98.6550205
  61.3560170  22.1286036  98.3423443  61.3826311  23.6407953  98.4090174
  60.0291409  20.6813486  91.6585178  59.1218470  20.4502740  91.8576327
  60.5262441  19.8851106  91.8459160  62.9359487  29.3910994  94.5781865
  62.2621186  29.6942690  95.1866822  63.3225309  30.1940074  94.2287322
  61.2079642  20.7826081  96.1809168  60.2990861  20.4985114  96.2781638
  61.2374726  21.2025160  95.3212475  66.4398909  24.3932671  99.9500336
  65.9861237  23.5523581 100.0065526  65.8092876  25.0294069 100.2875116
  64.8831849  26.2309167 100.8850154  65.1754823  26.7914225 100.1662520
  65.3930469  26.5237728 101.6403313  60.9055730  22.3234825  93.5197247
  60.4675160  21.6070684  93.0602884  61.6466171  22.5510940  92.9582338
  61.1350703  29.5590666  96.7928944  61.3102458  29.0878709  97.6074566
  60.4483491  30.1856432  97.0210204  65.0266957  21.1819207  93.1129305
  64.4096128  20.4566035  93.0162357  64.5583446  21.9428567  92.7696379
  56.8165503  15.4004631  92.2350609  55.9394970  15.2793432  91.8712856
  57.2923256  14.6090709  91.9829498  60.0029429  27.7530921  99.4813129
  59.2196951  28.2952601  99.5751354  60.7022175  28.2704901  99.8807371
  64.3955860  22.3197238  99.6985758  63.4612139  22.4398700  99.5290463
  64.5732529  21.4169705  99.4345768  65.8504643  24.5058379  97.2321944
  66.1264487  24.3914973  98.1415818  64.9809141  24.1075863  97.1934117
  62.4858707  28.7544729 100.8754758  62.6681101  27.9366385 101.3382510
  63.3091693  28.9712422 100.4379648  62.8200872  27.6812915  98.1369806
  63.3488639  27.1705369  97.5239969  63.0829092  27.3655445  99.0015340
  65.9141056  27.6529713  98.7524789  66.0877933  27.0876135  97.9998642
  66.4069947  28.4530608  98.5704279  66.9016228  26.9696477  95.8521688
  67.5967133  27.5903170  96.0709002  67.2439378  26.1191828  96.1274066
  68.8007651  24.4196183  97.3809019  69.3258975  24.7583455  96.6558339
  68.7130004  23.4843198  97.1972153  60.4848312  30.4868166 101.7404272
  60.0453302  29.9944545 102.4337128  61.2356429  29.9441134 101.4996347
  57.4935691  24.5810098  97.2885034  57.6423812  25.2645563  96.6351707
  58.3002135  24.5615188  97.8034490  60.9931097  27.0758229  94.7596781
  60.4205064  27.6948416  94.3067253  61.5663890  27.6257590  95.2936703
  64.2128356  27.3595379  95.8905364  65.1459030  27.2940941  96.0938239
  64.1251569  28.1951646  95.4319896  66.8416373  26.6761249  92.8509311
  66.7630005  26.3421113  93.7445069  67.6626040  27.1683017  92.8500784
  61.3777895  18.4119042  92.1012834  62.3237000  18.2825250  92.1701252
  60.9992140  17.6733703  92.5782262  59.5620812  16.3369018  92.0367719
  58.6552268  16.0402131  92.1130433  59.8396793  16.0398836  91.1702005
  58.3319597  13.1955953  92.1779698  59.1938761  13.5210851  92.4375516
  58.5169941  12.4087449  91.6652764  64.4120325  23.9929245  92.4719289
  65.1156175  24.1979247  93.0876945  63.6882974  24.5606007  92.7368373
  65.2418135  19.7439106  98.5921560  65.1853337  20.2007657  97.7529192
  65.7946478  18.9829791  98.4144402  66.3207022  24.4311774  94.5217750
  67.1552626  23.9992972  94.3395224  66.1591365  24.2593788  95.4494644
  65.9752915  20.9343887  95.8874089  65.9201718  20.7688159  94.9462533
  65.3498970  21.6419920  96.0436279  67.6167819  36.7544330 100.5431342
  67.0532685  36.6634266  99.7747630  67.5020214  35.9344234 101.0233834
  65.1632251  38.2495521 103.3815562  65.9553543  37.9086346 102.9661862
  65.4028901  38.3590496 104.3017716  73.1967378  40.4215297  95.8545807
  72.5455358  41.0069378  95.4679821  73.9911741  40.9521492  95.9140844
  67.1223005  37.5104434  96.2532941  67.8953881  36.9633421  96.1145817
  67.4748404  38.3748684  96.4647403  69.8864255  36.2157665 106.0501200
  70.4827827  35.9913688 105.3358163  69.9439226  35.4742411 106.6526648
  69.4589283  33.6697100  93.8851391  69.7114804  33.1478622  93.1234854
  68.5213842  33.5063246  93.9878075  74.6742643  38.1105729  96.3914791
  74.0388476  38.1840356  97.1035696  74.3440050  38.6999328  95.7133870
  69.1785572  35.5725206  96.0875766  69.0621830  34.8970110  96.7556850
  69.2887832  35.0857580  95.2707919  71.5217113  35.0335354  99.7922455
  71.1575320  34.5065975 100.5035377  72.3784229  34.6433823  99.6188941
  71.1622600  30.0625253  94.7883804  71.3297002  30.9305490  95.1554275
  70.9719769  30.2252535  93.8645093  67.3710414  34.9756029 102.4886339
  66.4460911  34.8432243 102.6964030  67.6194828  35.7550248 102.9856281
  71.1411821  32.5182911  95.7730471  71.0211446  32.9639961  96.6115951
  70.4464409  32.8668228  95.2144009  64.7319225  34.6189303 103.3230128
  64.8611607  34.8723781 104.2369539  64.0516677  35.2117011 103.0034783
  68.9018713  45.2886552  99.4220602  68.8242742  46.2394378  99.5009082
  68.2980356  44.9432425 100.0795528  76.8396887  32.9904384  96.6010805
  77.7514743  33.2231771  96.4258502  76.3306534  33.5741428  96.0385883
  70.9994431  37.7104610 101.2574471  71.4632776  37.9892313 100.4679094
  70.7351229  36.8088055 101.0747562  67.8918512  37.2576092 104.1954234
  68.4619869  37.6863360 103.5571719  68.4826624  36.9758677 104.8938420
  69.9363317  33.8327763  98.0664036  70.6387360  34.2848806  98.5337963
  69.6043945  33.1911582  98.6943930  63.6788651  32.0911315 103.3681170
  62.8887705  32.3468844 102.8921281  64.1699898  32.9059653 103.4733210
  65.6303396  32.4555895 100.3264647  64.8334560  32.5674589 100.8448142
  65.4028989  32.7942547  99.4605537  71.1757082  40.6468705  98.1426142
  71.0402756  41.4920241  98.5710989  71.7166894  40.8487983  97.3792075
  64.6286479  38.1644143  98.7154067  65.1411000  38.9587394  98.8659631
  65.2809192  37.4670434  98.6487668  66.4381364  41.2809900 100.7976820
  66.6147992  42.2027864 100.6097804  67.2338197  40.9668319 101.2271200
  67.5612679  42.7988074 106.7987162  68.1120104  42.6705137 106.0264156
  66.7224155  43.0982963 106.4482055  62.5935396  36.4932798  99.4913637
  63.4310618  36.9029806  99.2747345  62.7713663  35.5532240  99.4613831
  74.4899828  34.1607878  95.1797470  73.9746451  34.9312483  95.4185858
  74.2177136  33.4873015  95.8030532  72.0746939  29.0057579 100.2382709
  71.2188535  28.6164430 100.0588347  72.4873891  29.0849540  99.3782494
  79.4634102  36.9140233  97.1150644  78.6863545  36.5751393  96.6705806
  80.1425583  36.9192856  96.4405609  74.2786131  32.0334971  97.0057251
  73.9736267  32.3481120  97.8567395  75.2316573  32.1116390  97.0484584
  72.7232563  38.1925194  98.6550205  72.1953924  37.4577953  98.3423443
  72.2220066  38.9699870  98.4090174  67.4551291  28.8544860 101.0156817
  68.0295042  28.6320042 100.2830010  68.0422273  28.9233555 101.7685418
  67.7820878  30.8849321  95.0352702  66.9458190  31.2224008  95.3561977
  67.6425647  30.7498301  94.0979839  69.7573958  25.7286109  99.7431886
  69.1038371  25.4135126  99.1188501  69.7154432  25.1061849 100.4691709
  70.8685163  36.0105404  91.6585178  69.9612225  35.7794658  91.8576327
  71.3656195  35.2143023  91.8459160  73.7753242  44.7202911  94.5781865
  73.1014941  45.0234608  95.1866822  74.1619064  45.5231992  94.2287322
  73.7746746  33.6159458  99.1982214  74.5218565  34.1280855  98.8889336
  74.0438336  33.2943511 100.0586608  72.0473397  36.1117999  96.1809168
  71.1384616  35.8277032  96.2781638  72.0768480  36.5317078  95.3212475
  77.2792664  39.7224588  99.9500336  76.8254991  38.8815498 100.0065526
  76.6486631  40.3585987 100.2875116  75.7225603  41.5601085 100.8850154
  76.0148578  42.1206142 100.1662520  76.2324224  41.8529646 101.6403313
  62.6161567  33.8323513 100.1624371  62.4185967  33.2392874  99.4375437
  62.0608231  33.5275723 100.8800309  70.5958291  33.7246620 102.2818964
  70.6506900  32.7720456 102.2061440  69.7849493  33.8806059 102.7660262
  71.7449484  37.6526743  93.5197247  71.3068914  36.9362602  93.0602884
  72.4859925  37.8802857  92.9582338  68.5350651  32.3423679 100.0409343
  67.7218516  32.6417850 100.4474535  69.0309645  31.9479368 100.7583825
  70.6859228  42.3381436 101.9743607  70.6435407  42.5642283 101.0452139
  71.6021927  42.1044811 102.1229409  68.8025029  39.2144465 101.7705570
  69.5965628  38.7194785 101.5688145  68.0916722  38.6862328 101.4073276
  65.1107793  33.3587547  97.8465323  64.1805381  33.2972002  98.0635285
  65.2065265  32.8363500  97.0501964  65.0293342  29.8842360 100.4343564
  65.2900159  30.7987693 100.3252725  65.8510514  29.4166802 100.5840177
  71.3796305  39.7873487 105.4503407  71.2407391  39.4192272 106.3229345
  70.5910901  40.3021127 105.2787365  71.9744457  44.8882584  96.7928944
  72.1496213  44.4170627  97.6074566  71.2877245  45.5148350  97.0210204
  72.9301520  39.1655090 102.8392245  72.5951353  39.1255860 103.7349895
  72.4305466  38.4999806 102.3662655  75.8660712  36.5111124  93.1129305
  75.2489883  35.7857952  93.0162357  75.3977200  37.2720485  92.7696379
  67.6559258  30.7296549  92.2350609  66.7788724  30.6085349  91.8712856
  68.1317011  29.9382627  91.9829498  59.1761398  35.5173708 102.3292116
  59.8632438  35.2035438 101.7413131  59.0209527  36.4215073 102.0559367
  70.8423184  43.0822839  99.4813129  70.0590706  43.6244519  99.5751354
  71.5415929  43.5996819  99.8807371  75.2349615  37.6489156  99.6985758
  74.3005893  37.7690618  99.5290463  75.4126283  36.7461622  99.4345768
  70.7354803  31.0334851 101.8519019  70.3652590  30.4805892 102.5399925
  71.2313895  30.4292985 101.2994019  76.6898397  39.8350296  97.2321944
  76.9658241  39.7206891  98.1415818  75.8202896  39.4367781  97.1934117
  73.3252461  44.0836647 100.8754758  73.5074856  43.2658303 101.3382510
  74.1485447  44.3004339 100.4379648  73.6594627  43.0104832  98.1369806
  74.1882393  42.4997287  97.5239969  73.9222846  42.6947362  99.0015340
  64.1611719  41.0268701 105.8805140  64.7465156  40.2812389 106.0133044
  63.9636558  41.3372658 106.7641804  67.0150375  44.0619949 100.8967582
  66.3460750  44.5466076 100.4131622  66.8763244  44.3089169 101.8110961
  62.3837952  32.3238404  97.6763515  62.6791393  31.4149082  97.6230568
  61.4825987  32.3026143  97.3544517  74.2924030  44.0445668 104.4813923
  74.1675170  43.2435408 103.9724868  74.9503122  44.5391861 103.9927893
  65.9132199  30.3994400 103.6591063  65.1918784  31.0130368 103.5198536
  66.7025454  30.9352165 103.5807709  64.1125793  30.0052501  97.8002840
  63.7838499  29.1249880  97.6177946  64.4665164  29.9500170  98.6879229
  73.3605372  41.6407404 102.3097825  73.2130335  40.7124112 102.4905395
  74.1858866  41.6627495 101.8254900  67.2267616  30.2925471  98.1678317
  67.5663689  30.8211393  97.4456926  67.6739737  30.6305877  98.9436884
  76.9639494  42.4635963 103.3962698  77.8886041  42.2578824 103.2587149
  76.7954797  42.2152364 104.3052039  69.2135764  28.7900093  96.3671610
  69.9344126  29.1681346  95.8635327  68.5901068  29.5088970  96.4706588
  73.3566886  29.4945242  97.3029942  73.5730501  30.3769880  97.0018771
  72.8760954  29.1031455  96.5735584  68.0966108  32.4530955 103.8800687
  67.9510689  32.7671258 104.7724969  67.6191311  33.0715855 103.3271586
  76.7534810  42.9821630  98.7524789  76.9271688  42.4168053  97.9998642
  77.2463701  43.7822525  98.5704279  62.5711770  34.9936299 106.8188348
  62.0265238  35.7696107 106.9508623  63.4491120  35.3407104 106.6607470
  69.3599387  28.3247883  99.1969147  69.4815298  27.3964530  99.3960034
  69.0701429  28.3386569  98.2847462  77.7409983  42.2988395  95.8521688
  78.4360887  42.9195087  96.0709002  78.0833133  41.4483746  96.1274066
  79.6401406  39.7488100  97.3809019  80.1652730  40.0875373  96.6558339
  79.5523758  38.8135116  97.1972153  71.3242067  45.8160084 101.7404272
  70.8847057  45.3236462 102.4337128  72.0750184  45.2733051 101.4996347
  63.8034406  42.0071624 101.7428900  64.6292425  41.7075396 101.3627543
  63.4528458  41.2379247 102.1918688  68.7715939  41.3598093 103.8126573
  68.1495948  40.6968798 103.5128801  69.4420806  41.3859225 103.1300221
  68.3329446  39.9102016  97.2885034  68.4817566  40.5937480  96.6351707
  69.1395889  39.8907106  97.8034490  66.0882079  35.9367194  98.2946103
  65.8428121  35.0329524  98.4926313  66.2577993  35.9384344  97.3525581
  65.3577726  31.6695551  95.7932264  64.6646971  31.7439906  95.1372300
  65.1129478  30.9055895  96.3153781  71.8324851  42.4050146  94.7596781
  71.2598818  43.0240334  94.3067253  72.4057645  42.9549508  95.2936703
  75.0522111  42.6887297  95.8905364  75.9852784  42.6232858  96.0938239
  74.9645324  43.5243563  95.4319896  77.6810128  42.0053167  92.8509311
  77.6023759  41.6713031  93.7445069  78.5019794  42.4974935  92.8500784
  72.2171650  33.7410959  92.1012834  73.1630754  33.6117167  92.1701252
  71.8385895  33.0025621  92.5782262  70.4014567  31.6660936  92.0367719
  69.4946022  31.3694048  92.1130433  70.6790548  31.3690754  91.1702005
  61.3192507  32.9867299 102.4866765  60.9995292  32.1332607 102.1941139
  60.7725935  33.2015877 103.2424733  65.0972415  35.7029740 106.2036272
  65.3158425  36.6346848 106.2224306  65.5098189  35.3437714 106.9891076
  72.0176633  26.2097825  98.1911960  71.2077361  25.8644910  98.5667206
  72.7061049  25.9005369  98.7799572  69.1713351  28.5247871  92.1779698
  70.0332515  28.8502769  92.4375516  69.3563696  27.7379367  91.6652764
  61.1880767  36.6070211 104.4559887  60.4944239  36.1924163 103.9429841
  61.9353758  36.6490747 103.8593306  63.1017510  36.5388464 102.3325902
  63.0788198  36.6376152 101.3807785  63.4118146  37.3853615 102.6543068
  65.7604888  38.5964619 106.4472516  66.7148141  38.5648562 106.3802448
  65.5617411  38.1355243 107.2622742  66.3504270  37.1665735 109.0143314
  67.1697159  37.6609814 109.0378151  66.6241077  36.2497704 108.9860881
  76.1070866  29.5576488  98.3771270  75.2196721  29.8426138  98.1591464
  76.5224855  29.3970251  97.5298546  64.1155116  44.1384239 103.4642714
  63.9809584  43.3784640 102.8980712  63.6987179  44.8625139 102.9971503
  75.2514079  39.3221162  92.4719289  75.9549930  39.5271165  93.0876945
  74.5276728  39.8897924  92.7368373  76.0811890  35.0731024  98.5921560
  76.0247091  35.5299575  97.7529192  76.6340232  34.3121708  98.4144402
  67.2724242  45.0353556 103.6761157  67.1556626  45.9798988 103.5739847
  66.4516689  44.7327117 104.0646956  77.1600777  39.7603692  94.5217750
  77.9946381  39.3284890  94.3395224  76.9985120  39.5885705  95.4494644
  76.8146669  36.2635805  95.8874089  76.7595473  36.0980076  94.9462533
  76.1892724  36.9711838  96.0436279  70.1242794  25.7643914  95.4659407
  70.1121464  26.7085754  95.6227678  71.0166216  25.5814059  95.1718868
  70.0532358  44.4412804 103.5527164  69.1027989  44.4414666 103.4391536
  70.3564845  43.6945539 103.0363199  77.9616760  52.8396352  96.2532941
  78.7347636  52.2925339  96.1145817  78.3142159  53.7040601  96.4647403
  80.2983038  48.9989018  93.8851391  80.5508558  48.4770539  93.1234854
  79.3607597  48.8355164  93.9878075  80.0179326  50.9017124  96.0875766
  79.9015584  50.2262027  96.7556850  80.1281586  50.4149498  95.2707919
  82.0016354  45.3917171  94.7883804  82.1690757  46.2597407  95.1554275
  81.8113523  45.5544453  93.8645093  81.9805575  47.8474828  95.7730471
  81.8605200  48.2931879  96.6115951  81.2858163  48.1960146  95.2144009
  87.6790641  48.3196302  96.6010805  88.5908497  48.5523688  96.4258502
  87.1700288  48.9033346  96.0385883  80.7757071  49.1619680  98.0664036
  81.4781115  49.6140724  98.5337963  80.4437700  48.5203499  98.6943930
  76.4697151  47.7847812 100.3264647  75.6728314  47.8966507 100.8448142
  76.2422743  48.1234465  99.4605537  73.4329150  51.8224715  99.4913637
  74.2704372  52.2321724  99.2747345  73.6107418  50.8824158  99.4613831
  85.3293582  49.4899796  95.1797470  84.8140206  50.2604401  95.4185858
  85.0570891  48.8164932  95.8030532  82.9140693  44.3349497 100.2382709
  82.0582290  43.9456347 100.0588347  83.3267645  44.4141458  99.3782494
  85.1179886  47.3626888  97.0057251  84.8130021  47.6773037  97.8567395
  86.0710328  47.4408308  97.0484584  78.2945045  44.1836778 101.0156817
  78.8688797  43.9611959 100.2830010  78.8816027  44.2525472 101.7685418
  78.6214632  46.2141239  95.0352702  77.7851944  46.5515925  95.3561977
  78.4819402  46.0790219  94.0979839  80.5967713  41.0578027  99.7431886
  79.9432125  40.7427044  99.1188501  80.5548187  40.4353767 100.4691709
  81.7078918  51.3397322  91.6585178  80.8005979  51.1086575  91.8576327
  82.2049950  50.5434941  91.8459160  82.8867151  51.4409917  96.1809168
  81.9778370  51.1568949  96.2781638  82.9162235  51.8608995  95.3212475
  73.4555321  49.1615431 100.1624371  73.2579721  48.5684791  99.4375437
  72.9001985  48.8567641 100.8800309  82.5843239  52.9818660  93.5197247
  82.1462669  52.2654519  93.0602884  83.3253680  53.2094775  92.9582338
  79.3744405  47.6715597 100.0409343  78.5612271  47.9709768 100.4474535
  79.8703399  47.2771286 100.7583825  75.9501547  48.6879465  97.8465323
  75.0199135  48.6263920  98.0635285  76.0459019  48.1655417  97.0501964
  75.8687096  45.2134278 100.4343564  76.1293913  46.1279611 100.3252725
  76.6904269  44.7458720 100.5840177  86.7054466  51.8403042  93.1129305
  86.0883637  51.1149870  93.0162357  86.2370955  52.6012402  92.7696379
  78.4953012  46.0588466  92.2350609  77.6182479  45.9377267  91.8712856
  78.9710765  45.2674545  91.9829498  70.0155152  50.8465626 102.3292116
  70.7026192  50.5327356 101.7413131  69.8603281  51.7506991 102.0559367
  73.2231706  47.6530322  97.6763515  73.5185147  46.7441000  97.6230568
  72.3219742  47.6318061  97.3544517  74.9519548  45.3344419  97.8002840
  74.6232254  44.4541798  97.6177946  75.3058918  45.2792088  98.6879229
  78.0661371  45.6217389  98.1678317  78.4057443  46.1503310  97.4456926
  78.5133491  45.9597795  98.9436884  80.0529518  44.1192011  96.3671610
  80.7737881  44.4973263  95.8635327  79.4294822  44.8380887  96.4706588
  84.1960641  44.8237160  97.3029942  84.4124255  45.7061797  97.0018771
  83.7154708  44.4323373  96.5735584  76.9275833  51.2659111  98.2946103
  76.6821875  50.3621441  98.4926313  77.0971748  51.2676262  97.3525581
  76.1971481  46.9987469  95.7932264  75.5040726  47.0731824  95.1372300
  75.9523233  46.2347813  96.3153781  83.0565404  49.0702877  92.1012834
  84.0024509  48.9409085  92.1701252  82.6779649  48.3317539  92.5782262
  81.2408321  46.9952853  92.0367719  80.3339777  46.6985966  92.1130433
  81.5184302  46.6982671  91.1702005  72.1586262  48.3159217 102.4866765
  71.8389046  47.4624525 102.1941139  71.6119690  48.5307795 103.2424733
  82.8570387  41.5389743  98.1911960  82.0471115  41.1936828  98.5667206
  83.5454804  41.2297287  98.7799572  80.0107106  43.8539789  92.1779698
  80.8726270  44.1794687  92.4375516  80.1957450  43.0671284  91.6652764
  86.9464620  44.8868405  98.3771270  86.0590475  45.1718056  98.1591464
  87.3618609  44.7262169  97.5298546  86.0907834  54.6513080  92.4719289
  86.7943684  54.8563083  93.0876945  85.3670483  55.2189842  92.7368373
  80.9636549  41.0935832  95.4659407  80.9515219  42.0377671  95.6227678
  81.8559971  40.9105977  95.1718868  62.3573625   2.0985502  82.5791113
  61.7061605   2.6839583  82.1925127  63.1517988   2.6291697  82.6386151
  58.0624959   6.9656757  86.1465909  57.9848989   7.9164582  86.2254389
  57.4586603   6.6202630  86.8040835  60.3363328   2.3238910  84.8671448
  60.2009003   3.1690446  85.2956296  60.8773141   2.5258188  84.1037382
  62.9359489   6.3973116  81.3027171  62.2621188   6.7004813  81.9112129
  63.3225311   7.2002197  80.9532628  64.8831850   3.2371290  87.6095461
  65.1754824   3.7976347  86.8907826  65.3930471   3.5299851  88.3648620
  61.1350704   6.5652789  83.5174250  61.3102460   6.0940832  84.3319873
  60.4483492   7.1918555  83.7455511  60.0029431   4.7593044  86.2058436
  59.2196953   5.3014724  86.2996661  60.7022176   5.2767024  86.6052677
  62.4858708   5.7606852  87.6000065  62.6681102   4.9428508  88.0627817
  63.3091694   5.9774544  87.1624955  62.8200873   4.6875037  84.8615113
  63.3488640   4.1767492  84.2485275  63.0829093   4.3717567  85.7260646
  65.9141057   4.6591835  85.4770096  66.0877935   4.0938258  84.7243949
  66.4069948   5.4592730  85.2949586  60.4848313   7.4930289  88.4649578
  60.0453304   7.0006667  89.1582435  61.2356430   6.9503256  88.2241654
  57.4935692   1.5872221  84.0130341  57.6423813   2.2707685  83.3597013
  58.3002136   1.5677311  84.5279796  60.9931098   4.0820351  81.4842088
  60.4205065   4.7010539  81.0312560  61.5663892   4.6319713  82.0182010
  64.2128358   4.3657502  82.6150670  65.1459031   4.3003063  82.8183546
  64.1251571   5.2013768  82.1565203  67.6167821  13.7606452  87.2676649
  67.0532686  13.6696389  86.4992936  67.5020216  12.9406357  87.7479141
  65.1632253  15.2557644  90.1060869  65.9553544  14.9148468  89.6907168
  65.4028903  15.3652619  91.0263022  73.1967379  17.4277420  82.5791113
  72.5455359  18.0131500  82.1925127  73.9911742  17.9583615  82.6386151
  67.1223007  14.5166557  82.9778248  67.8953883  13.9695544  82.8391124
  67.4748405  15.3810806  83.1892709  69.8864256  13.2219788  92.7746507
  70.4827828  12.9975810  92.0603470  69.9439227  12.4804533  93.3771955
  69.4589284  10.6759223  80.6096698  69.7114805  10.1540744  79.8480161
  68.5213843  10.5125369  80.7123381  74.6742644  15.1167852  83.1160098
  74.0388477  15.1902478  83.8281002  74.3440051  15.7061451  82.4379177
  69.1785573  12.5787329  82.8121073  69.0621831  11.9032232  83.4802157
  69.2887833  12.0919703  81.9953226  71.5217114  12.0397476  86.5167762
  71.1575321  11.5128097  87.2280683  72.3784230  11.6495945  86.3434247
  71.1622601   7.0687376  81.5129110  71.3297003   7.9367612  81.8799582
  70.9719770   7.2314658  80.5890400  67.3710416  11.9818152  89.2131645
  66.4460912  11.8494366  89.4209337  67.6194829  12.7612371  89.7101588
  71.1411822   9.5245033  82.4975777  71.0211447   9.9702084  83.3361258
  70.4464410   9.8730351  81.9389315  64.7319227  11.6251425  90.0475434
  64.8611608  11.8785904  90.9614846  64.0516678  12.2179133  89.7280089
  68.9018714  22.2948675  86.1465909  68.8242744  23.2456500  86.2254389
  68.2980358  21.9494548  86.8040835  76.8396888   9.9966507  83.3256111
  77.7514744  10.2293893  83.1503809  76.3306535  10.5803551  82.7631190
  70.9994432  14.7166733  87.9819778  71.4632778  14.9954436  87.1924400
  70.7351230  13.8150178  87.7992869  67.8918513  14.2638215  90.9199541
  68.4619870  14.6925483  90.2817026  68.4826625  13.9820799  91.6183727
  69.9363318  10.8389885  84.7909343  70.6387362  11.2910929  85.2583269
  69.6043947  10.1973704  85.4189236  63.6788652   9.0973438  90.0926477
  62.8887706   9.3530967  89.6166587  64.1699900   9.9121776  90.1978517
  65.6303398   9.4618017  87.0509953  64.8334561   9.5736712  87.5693449
  65.4028990   9.8004670  86.1850844  71.1757083  17.6530828  84.8671448
  71.0402758  18.4982364  85.2956296  71.7166895  17.8550106  84.1037382
  64.6286480  15.1706266  85.4399373  65.1411001  15.9649516  85.5904938
  65.2809193  14.4732557  85.3732975  66.4381365  18.2872022  87.5222127
  66.6147993  19.2089987  87.3343110  67.2338198  17.9730442  87.9516506
  67.5612680  19.8050196  93.5232469  68.1120106  19.6767259  92.7509463
  66.7224156  20.1045085  93.1727362  62.5935397  13.4994920  86.2158944
  63.4310619  13.9091929  85.9992652  62.7713665  12.5594363  86.1859138
  74.4899829  11.1670001  81.9042777  73.9746453  11.9374606  82.1431164
  74.2177138  10.4935137  82.5275838  72.0746940   6.0119702  86.9628015
  71.2188537   5.6226552  86.7833654  72.4873892   6.0911663  86.1027801
  79.4634103  13.9202356  83.8395950  78.6863546  13.5813515  83.3951112
  80.1425584  13.9254979  83.1650915  74.2786132   9.0397093  83.7302558
  73.9736268   9.3543242  84.5812701  75.2316574   9.1178513  83.7729891
  72.7232564  15.1987316  85.3795512  72.1953926  14.4640076  85.0668749
  72.2220067  15.9761993  85.1335480  67.4551292   5.8606983  87.7402123
  68.0295044   5.6382164  87.0075316  68.0422274   5.9295677  88.4930725
  67.7820879   7.8911444  81.7598009  66.9458191   8.2286130  82.0807283
  67.6425649   7.7560424  80.8225146  73.7753243  21.7265034  81.3027171
  73.1014942  22.0296731  81.9112129  74.1619065  22.5294114  80.9532628
  73.7746748  10.6221581  85.9227521  74.5218567  11.1342978  85.6134643
  74.0438337  10.3005634  86.7831914  72.0473398  13.1180122  82.9054475
  71.1384617  12.8339154  83.0026945  72.0768482  13.5379200  82.0457782
  77.2792665  16.7286711  86.6745643  76.8254992  15.8877621  86.7310833
  76.6486632  17.3648109  87.0120423  75.7225604  18.5663208  87.6095461
  76.0148579  19.1268265  86.8907826  76.2324225  18.8591769  88.3648620
  62.6161568  10.8385636  86.8869677  62.4185968  10.2454996  86.1620744
  62.0608232  10.5337846  87.6045616  70.5958292  10.7308742  89.0064270
  70.6506902   9.7782579  88.9306747  69.7849494  10.8868181  89.4905569
  71.7449486  14.6588865  80.2442554  71.3068916  13.9424724  79.7848191
  72.4859926  14.8864980  79.6827645  68.5350652   9.3485802  86.7654649
  67.7218517   9.6479972  87.1719841  69.0309646   8.9541491  87.4829132
  70.6859230  19.3443559  88.6988914  70.6435408  19.5704405  87.7697446
  71.6021929  19.1106933  88.8474715  68.8025030  16.2206588  88.4950877
  69.5965629  15.7256908  88.2933452  68.0916723  15.6924451  88.1318582
  73.6219875  18.6024683  92.8463244  73.6756897  19.1715620  93.6140960
  72.7534656  18.7726568  92.4817281  65.1107794  10.3649670  84.5710629
  64.1805382  10.3034125  84.7880592  65.2065266   9.8425622  83.7747271
  65.0293343   6.8904482  87.1588871  65.2900160   7.8049816  87.0498032
  65.8510515   6.4228925  87.3085484  71.3796306  16.7935610  92.1748714
  71.2407392  16.4254394  93.0474652  70.5910903  17.3083249  92.0032672
  71.9744458  21.8944706  83.5174250  72.1496214  21.4232750  84.3319873
  71.2877246  22.5210473  83.7455511  72.9301522  16.1717213  89.5637552
  72.5951354  16.1317983  90.4595202  72.4305467  15.5061928  89.0907962
  75.8660713  13.5173247  79.8374611  75.2489884  12.7920075  79.7407664
  75.3977202  14.2782607  79.4941686  66.5405544  25.0434069  90.2914111
  66.7802142  25.6752593  90.9693129  65.6974740  24.6922109  90.5779470
  67.6559259   7.7358671  78.9595916  66.7788725   7.6147472  78.5958162
  68.1317012   6.9444749  78.7074804  59.1761399  12.5235831  89.0537423
  59.8632439  12.2097561  88.4658438  59.0209528  13.4277196  88.7804674
  71.0533406  20.8513192  92.6955615  70.9803577  21.6568163  93.2074919
  70.6110799  21.0505157  91.8703636  70.8423185  20.0884962  86.2058436
  70.0590707  20.6306642  86.2996661  71.5415930  20.6058941  86.6052677
  73.5132089  20.7500026  94.8513773  74.2260061  21.3847490  94.7789675
  73.0222118  20.8463892  94.0353775  75.2349616  14.6551278  86.4231065
  74.3005895  14.7752741  86.2535769  75.4126284  13.7523745  86.1591075
  70.7354804   8.0396974  88.5764326  70.3652592   7.4868014  89.2645232
  71.2313896   7.4355107  88.0239326  68.5644003  18.4994469  95.6719344
  69.2653462  19.1330952  95.8248738  68.0939118  18.8409201  94.9114983
  76.6898398  16.8412419  83.9567251  76.9658242  16.7269013  84.8661125
  75.8202897  16.4429904  83.9179424  73.3252462  21.0898770  87.6000065
  73.5074857  20.2720426  88.0627817  74.1485448  21.3066462  87.1624955
  73.6594628  20.0166955  84.8615113  74.1882394  19.5059409  84.2485275
  73.9222848  19.7009485  85.7260646  64.1611721  18.0330824  92.6050447
  64.7465157  17.2874512  92.7378351  63.9636559  18.3434781  93.4887111
  67.0150376  21.0682071  87.6212889  66.3460751  21.5528199  87.1376929
  66.8763246  21.3151292  88.5356268  71.1555644  23.1025815  94.2195547
  71.7073952  23.2657436  94.9844633  71.4961838  23.6930253  93.5475572
  62.3837953   9.3300526  84.4008821  62.6791394   8.4211205  84.3475875
  61.4825989   9.3088266  84.0789824  74.2924032  21.0507790  91.2059230
  74.1675171  20.2497530  90.6970175  74.9503123  21.5453984  90.7173200
  65.9132200   7.4056523  90.3836370  65.1918786   8.0192491  90.2443843
  66.7025456   7.9414288  90.3053016  64.1125795   7.0114624  84.5248146
  63.7838501   6.1312003  84.3423252  64.4665165   6.9562293  85.4124536
  73.3605373  18.6469527  89.0343132  73.2130336  17.7186234  89.2150702
  74.1858867  18.6689618  88.5500207  67.2267618   7.2987594  84.8923624
  67.5663690   7.8273515  84.1702232  67.6739738   7.6368000  85.6682191
  76.9639495  19.4698086  90.1208005  77.8886043  19.2640947  89.9832456
  76.7954799  19.2214487  91.0297346  69.2135765   5.7962215  83.0916917
  69.9344127   6.1743468  82.5880634  68.5901069   6.5151092  83.1951895
  73.3566888   6.5007364  84.0275249  73.5730502   7.3832002  83.7264077
  72.8760955   6.1093578  83.2980891  68.0966109   9.4593078  90.6045994
  67.9510690   9.7733381  91.4970275  67.6191313  10.0777978  90.0516892
  76.7534811  19.9883753  85.4770096  76.9271689  19.4230175  84.7243949
  77.2463703  20.7884648  85.2949586  62.5711771  11.9998422  93.5433655
  62.0265239  12.7758230  93.6753929  63.4491121  12.3469227  93.3852776
  69.3599388   5.3310006  85.9214453  69.4815299   4.4026652  86.1205341
  69.0701430   5.3448692  85.0092769  77.7409984  19.3050517  82.5766994
  78.4360889  19.9257210  82.7954309  78.0833134  18.4545869  82.8519372
  79.6401407  16.7550223  84.1054325  80.1652731  17.0937496  83.3803645
  79.5523760  15.8197238  83.9217460  71.3242068  22.8222206  88.4649578
  70.8847058  22.3298585  89.1582435  72.0750185  22.2795174  88.2241654
  63.8034407  19.0133747  88.4674206  64.6292427  18.7137519  88.0872850
  63.4528459  18.2441369  88.9163995  68.7715940  18.3660215  90.5371880
  68.1495949  17.7030920  90.2374108  69.4420807  18.3921347  89.8545528
  62.0043012  16.9320074  89.4263140  61.1674920  16.5042248  89.2447141
  61.9766657  17.1252517  90.3633931  68.3329447  16.9164139  84.0130341
  68.4817567  17.5999603  83.3597013  69.1395890  16.8969229  84.5279796
  66.0882080  12.9429316  85.0191409  65.8428122  12.0391646  85.2171620
  66.2577994  12.9446467  84.0770887  65.3577727   8.6757674  82.5177571
  64.6646972   8.7502029  81.8617607  65.1129479   7.9118017  83.0399088
  71.8324852  19.4112269  81.4842088  71.2598820  20.0302456  81.0312560
  72.4057646  19.9611631  82.0182010  75.0522112  19.6949419  82.6150670
  75.9852785  19.6294981  82.8183546  74.9645325  20.5305686  82.1565203
  77.6810129  19.0115290  79.5754618  77.6023760  18.6775153  80.4690376
  78.5019796  19.5037057  79.5746090  72.2171651  10.7473082  78.8258140
  73.1630756  10.6179290  78.8946559  71.8385896  10.0087744  79.3027569
  70.4014568   8.6723058  78.7613026  69.4946023   8.3756171  78.8375739
  70.6790549   8.3752876  77.8947312  61.3192508   9.9929422  89.2112072
  60.9995293   9.1394730  88.9186446  60.7725937  10.2078000  89.9670039
  65.0972416  12.7091863  92.9281579  65.3158426  13.6408970  92.9469612
  65.5098190  12.3499837  93.7136382  69.1713353   5.5309993  78.9025005
  70.0332517   5.8564892  79.1620822  69.3563697   4.7441489  78.3898071
  61.1880768  13.6132333  91.1805194  60.4944240  13.1986286  90.6675148
  61.9353759  13.6552870  90.5838613  63.1017511  13.5450587  89.0571209
  63.0788199  13.6438274  88.1053092  63.4118147  14.3915738  89.3788375
  65.7604889  15.6026742  93.1717823  66.7148142  15.5710684  93.1047755
  65.5617412  15.1417366  93.9868049  66.3504271  14.1727858  95.7388621
  67.1697160  14.6671937  95.7623458  66.6241079  13.2559826  95.7106188
  64.1155118  21.1446361  90.1888021  63.9809586  20.3846762  89.6226019
  63.6987180  21.8687261  89.7216810  75.2514081  16.3283285  79.1964596
  75.9549931  16.5333287  79.8122252  74.5276729  16.8960047  79.4613680
  76.0811891  12.0793146  85.3166866  76.0247092  12.5361698  84.4774499
  76.6340233  11.3183831  85.1389709  67.2724244  22.0415678  90.4006463
  67.1556628  22.9861111  90.2985154  66.4516690  21.7389240  90.7892263
  77.1600778  16.7665814  81.2463056  77.9946382  16.3347013  81.0640531
  76.9985121  16.5947828  82.1739951  76.8146670  13.2697927  82.6119396
  76.7595474  13.1042199  81.6707840  76.1892726  13.9773960  82.7681585
  68.2978758  22.6943940  93.6162392  69.2006004  22.7267551  93.9328887
  68.0716128  21.7644391  93.6308728  70.0532360  21.4474927  90.2772471
  69.1027991  21.4476788  90.1636843  70.3564846  20.7007661  89.7608505
  78.4561575  29.0898370  87.2676649  77.8926440  28.9988307  86.4992936
  78.3413970  28.2698274  87.7479141  76.0026007  30.5849561  90.1060869
  76.7947299  30.2440386  89.6907168  76.2422657  30.6944536  91.0263022
  84.0361134  32.7569337  82.5791113  83.3849114  33.3423418  82.1925127
  84.8305497  33.2875532  82.6386151  77.9616761  29.8458475  82.9778248
  78.7347637  29.2987462  82.8391124  78.3142160  30.7102724  83.1892709
  80.7258010  28.5511705  92.7746507  81.3221583  28.3267728  92.0603470
  80.7832982  27.8096451  93.3771955  80.2983039  26.0051141  80.6096698
  80.5508560  25.4832662  79.8480161  79.3607598  25.8417286  80.7123381
  85.5136399  30.4459769  83.1160098  84.8782232  30.5194396  83.8281002
  85.1833805  31.0353368  82.4379177  80.0179328  27.9079247  82.8121073
  79.9015586  27.2324150  83.4802157  80.1281587  27.4211621  81.9953226
  82.3610868  27.3689394  86.5167762  81.9969076  26.8420015  87.2280683
  83.2177984  26.9787863  86.3434247  82.0016355  22.3979293  81.5129110
  82.1690758  23.2659530  81.8799582  81.8113525  22.5606575  80.5890400
  78.2104170  27.3110069  89.2131645  77.2854667  27.1786283  89.4209337
  78.4588583  28.0904288  89.7101588  81.9805576  24.8536951  82.4975777
  81.8605202  25.2994002  83.3361258  81.2858165  25.2022269  81.9389315
  75.5712981  26.9543343  90.0475434  75.7005362  27.2077822  90.9614846
  74.8910432  27.5471051  89.7280089  79.7412468  37.6240593  86.1465909
  79.6636498  38.5748418  86.2254389  79.1374112  37.2786465  86.8040835
  87.6790643  25.3258424  83.3256111  88.5908499  25.5585811  83.1503809
  87.1700290  25.9095468  82.7631190  81.8388187  30.0458651  87.9819778
  82.3026532  30.3246354  87.1924400  81.5744985  29.1442095  87.7992869
  78.7312268  29.5930132  90.9199541  79.3013625  30.0217401  90.2817026
  79.3220380  29.3112717  91.6183727  80.7757073  26.1681803  84.7909343
  81.4781116  26.6202847  85.2583269  80.4437701  25.5265622  85.4189236
  74.5182407  24.4265356  90.0926477  73.7281461  24.6822884  89.6166587
  75.0093654  25.2413694  90.1978517  76.4697152  24.7909935  87.0509953
  75.6728315  24.9028629  87.5693449  76.2422744  25.1296587  86.1850844
  72.8020110  24.6795846  92.5241467  73.0528148  25.5642856  92.7899043
  73.3379658  24.5000448  91.7516559  82.0150837  32.9822746  84.8671448
  81.8796512  33.8274281  85.2956296  82.5560650  33.1842023  84.1037382
  75.4680235  30.4998184  85.4399373  75.9804755  31.2941434  85.5904938
  76.1202948  29.8024474  85.3732975  77.2775119  33.6163940  87.5222127
  77.4541748  34.5381905  87.3343110  78.0731953  33.3022359  87.9516506
  78.4006435  35.1342114  93.5232469  78.9513860  35.0059177  92.7509463
  77.5617911  35.4337003  93.1727362  73.4329152  28.8286838  86.2158944
  74.2704374  29.2383846  85.9992652  73.6107419  27.8886280  86.1859138
  85.3293584  26.4961919  81.9042777  84.8140207  27.2666523  82.1431164
  85.0570892  25.8227055  82.5275838  82.9140695  21.3411619  86.9628015
  82.0582291  20.9518470  86.7833654  83.3267646  21.4203580  86.1027801
  90.3027858  29.2494273  83.8395950  89.5257301  28.9105433  83.3951112
  90.9819339  29.2546897  83.1650915  85.1179887  24.3689011  83.7302558
  84.8130022  24.6835160  84.5812701  86.0710329  24.4470431  83.7729891
  83.5626319  30.5279234  85.3795512  83.0347680  29.7931994  85.0668749
  83.0613821  31.3053910  85.1335480  78.2945046  21.1898900  87.7402123
  78.8688798  20.9674082  87.0075316  78.8816029  21.2587595  88.4930725
  78.6214633  23.2203361  81.7598009  77.7851946  23.5578048  82.0807283
  78.4819403  23.0852341  80.8225146  80.5967714  18.0640149  86.4677193
  79.9432126  17.7489166  85.8433808  80.5548188  17.4415890  87.1937016
  81.7078919  28.3459444  78.3830485  80.8005981  28.1148698  78.5821634
  82.2049951  27.5497064  78.5704467  84.6146998  37.0556952  81.3027171
  83.9408696  37.3588648  81.9112129  85.0012820  37.8586032  80.9532628
  84.6140502  25.9513499  85.9227521  85.3612321  26.4634896  85.6134643
  84.8832092  25.6297551  86.7831914  82.8867152  28.4472039  82.9054475
  81.9778372  28.1631072  83.0026945  82.9162236  28.8671118  82.0457782
  88.1186420  32.0578629  86.6745643  87.6648747  31.2169539  86.7310833
  87.4880386  32.6940027  87.0120423  86.5619359  33.8955125  87.6095461
  86.8542333  34.4560183  86.8907826  87.0717980  34.1883686  88.3648620
  73.4555323  26.1677553  86.8869677  73.2579722  25.5746914  86.1620744
  72.9001987  25.8629764  87.6045616  81.4352046  26.0600660  89.0064270
  81.4900656  25.1074496  88.9306747  80.6243248  26.2160099  89.4905569
  82.5843240  29.9880783  80.2442554  82.1462670  29.2716642  79.7848191
  83.3253681  30.2156898  79.6827645  79.3744406  24.6777720  86.7654649
  78.5612272  24.9771890  87.1719841  79.8703400  24.2833408  87.4829132
  81.5252984  34.6735477  88.6988914  81.4829163  34.8996323  87.7697446
  82.4415683  34.4398851  88.8474715  79.6418785  31.5498506  88.4950877
  80.4359383  31.0548826  88.2933452  78.9310477  31.0216369  88.1318582
  84.4613629  33.9316601  92.8463244  84.5150652  34.5007537  93.6140960
  83.5928411  34.1018486  92.4817281  75.9501548  25.6941587  84.5710629
  75.0199136  25.6326043  84.7880592  76.0459020  25.1717540  83.7747271
  75.8687097  22.2196400  87.1588871  76.1293915  23.1341733  87.0498032
  76.6904270  21.7520843  87.3085484  82.2190061  32.1227528  92.1748714
  82.0801147  31.7546312  93.0474652  81.4304657  32.6375167  92.0032672
  82.8138213  37.2236624  83.5174250  82.9889969  36.7524667  84.3319873
  82.1271001  37.8502390  83.7455511  83.7695276  31.5009130  89.5637552
  83.4345109  31.4609900  90.4595202  83.2699222  30.8353846  89.0907962
  86.7054468  28.8465165  79.8374611  86.0883638  28.1211993  79.7407664
  86.2370956  29.6074525  79.4941686  77.3799298  40.3725987  90.2914111
  77.6195896  41.0044511  90.9693129  76.5368495  40.0214027  90.5779470
  78.4953014  23.0650589  78.9595916  77.6182480  22.9439390  78.5958162
  78.9710767  22.2736667  78.7074804  70.0155154  27.8527749  89.0537423
  70.7026194  27.5389479  88.4658438  69.8603282  28.7569113  88.7804674
  74.8189876  22.7417945  93.4822446  74.7348065  22.1343615  92.7472856
  73.9972582  23.2326963  93.4831943  81.8927160  36.1805109  92.6955615
  81.8197332  36.9860081  93.2074919  81.4504553  36.3797075  91.8703636
  81.6816940  35.4176879  86.2058436  80.8984462  35.9598559  86.2996661
  82.3809685  35.9350859  86.6052677  84.3525844  36.0791943  94.8513773
  85.0653816  36.7139408  94.7789675  83.8615872  36.1755809  94.0353775
  86.0743370  29.9843196  86.4231065  85.1399649  30.1044658  86.2535769
  86.2520039  29.0815663  86.1591075  81.5748559  23.3688892  88.5764326
  81.2046346  22.8159932  89.2645232  82.0707651  22.7647025  88.0239326
  79.4037757  33.8286387  95.6719344  80.1047217  34.4622870  95.8248738
  78.9332872  34.1701118  94.9114983  87.5292153  32.1704336  83.9567251
  87.8051997  32.0560931  84.8661125  86.6596652  31.7721821  83.9179424
  84.1646217  36.4190687  87.6000065  84.3468611  35.6012343  88.0627817
  84.9879203  36.6358380  87.1624955  84.4988382  35.3458872  84.8615113
  85.0276149  34.8351327  84.2485275  84.7616602  35.0301403  85.7260646
  75.0005475  33.3622742  92.6050447  75.5858912  32.6166430  92.7378351
  74.8030314  33.6726698  93.4887111  77.8544130  36.3973989  87.6212889
  77.1854506  36.8820117  87.1376929  77.7157000  36.6443210  88.5356268
  69.5923130  25.9328342  91.3254890  69.6307229  25.3991933  92.1192008
  69.0863423  25.4063547  90.7065867  81.9949399  38.4317733  94.2195547
  82.5467707  38.5949354  94.9844633  82.3355592  39.0222170  93.5475572
  73.2231707  24.6592444  84.4008821  73.5185149  23.7503123  84.3475875
  72.3219743  24.6380184  84.0789824  85.1317786  36.3799708  91.2059230
  85.0068926  35.5789448  90.6970175  85.7896877  36.8745902  90.7173200
  76.7525954  22.7348441  90.3836370  76.0312540  23.3484408  90.2443843
  77.5419210  23.2706206  90.3053016  74.9519549  22.3406542  84.5248146
  74.6232255  21.4603921  84.3423252  75.3058920  22.2854210  85.4124536
  84.1999128  33.9761444  89.0343132  84.0524090  33.0478152  89.2150702
  85.0252621  33.9981535  88.5500207  78.0661372  22.6279512  84.8923624
  78.4057445  23.1565433  84.1702232  78.5133493  22.9659918  85.6682191
  87.8033250  34.7990003  90.1208005  88.7279797  34.5932865  89.9832456
  87.6348553  34.5506404  91.0297346  80.0529519  21.1254133  83.0916917
  80.7737882  21.5035386  82.5880634  79.4294823  21.8443010  83.1951895
  84.1960642  21.8299282  84.0275249  84.4124257  22.7123920  83.7264077
  83.7154709  21.4385496  83.2980891  78.9359864  24.7884995  90.6045994
  78.7904444  25.1025298  91.4970275  78.4585067  25.4069896  90.0516892
  87.5928566  35.3175671  85.4770096  87.7665443  34.7522093  84.7243949
  88.0857457  36.1176566  85.2949586  73.4105526  27.3290340  93.5433655
  72.8658994  28.1050148  93.6753929  74.2884876  27.6761144  93.3852776
  80.1993142  20.6601924  85.9214453  80.3209054  19.7318570  86.1205341
  79.9095185  20.6740610  85.0092769  88.5803738  34.6342435  82.5766994
  89.2754643  35.2549128  82.7954309  88.9226889  33.7837786  82.8519372
  74.1971548  26.4560236  96.4363812  73.4553284  26.6042871  97.0228442
  73.8764292  26.7168502  95.5730561  90.4795162  32.0842141  84.1054325
  91.0046486  32.4229413  83.3803645  90.3917514  31.1489156  83.9217460
  82.1635822  38.1514124  88.4649578  81.7240813  37.6590503  89.1582435
  82.9143939  37.6087092  88.2241654  74.6428161  34.3425665  88.4674206
  75.4686181  34.0429437  88.0872850  74.2922213  33.5733287  88.9163995
  79.6109694  33.6952133  90.5371880  78.9889704  33.0322838  90.2374108
  80.2814561  33.7213265  89.8545528  72.8436766  32.2611991  89.4263140
  72.0068675  31.8334166  89.2447141  72.8160412  32.4544435  90.3633931
  79.1723201  32.2456056  84.0130341  79.3211322  32.9291521  83.3597013
  79.9789645  32.2261146  84.5279796  76.9275834  28.2721234  85.0191409
  76.6821876  27.3683564  85.2171620  77.0971749  28.2738384  84.0770887
  76.1971482  24.0049592  82.5177571  75.5040727  24.0793946  81.8617607
  75.9523234  23.2409935  83.0399088  82.6718607  34.7404187  81.4842088
  82.0992574  35.3594374  81.0312560  83.2451401  35.2903548  82.0182010
  85.8915867  35.0241337  82.6150670  86.8246540  34.9586899  82.8183546
  85.8039080  35.8597604  82.1565203  88.5203883  34.3407207  79.5754618
  88.4417515  34.0067071  80.4690376  89.3413550  34.8328975  79.5746090
  83.0565405  26.0765000  78.8258140  84.0024510  25.9471208  78.8946559
  82.6779650  25.3379661  79.3027569  81.2408323  24.0014976  78.7613026
  80.3339778  23.7048089  78.8375739  81.5184304  23.7044794  77.8947312
  72.1586263  25.3221339  89.2112072  71.8389047  24.4686647  88.9186446
  71.6119691  25.5369917  89.9670039  75.9366170  28.0383780  92.9281579
  76.1552180  28.9700888  92.9469612  76.3491944  27.6791755  93.7136382
  82.8570388  18.5451866  84.9157267  82.0471117  18.1998951  85.2912513
  83.5454805  18.2359409  85.5044879  80.0107107  20.8601911  78.9025005
  80.8726271  21.1856809  79.1620822  80.1957451  20.0733407  78.3898071
  72.0274523  28.9424251  91.1805194  71.3337994  28.5278204  90.6675148
  72.7747514  28.9844787  90.5838613  73.9411265  28.8742505  89.0571209
  73.9181954  28.9730192  88.1053092  74.2511902  29.7207655  89.3788375
  76.5998643  30.9318660  93.1717823  77.5541897  30.9002602  93.1047755
  76.4011167  30.4709283  93.9868049  77.1898025  29.5019776  95.7388621
  78.0090914  29.9963854  95.7623458  77.4634833  28.5851744  95.7106188
  86.9464622  21.8930528  85.1016576  86.0590477  22.1780179  84.8836771
  87.3618611  21.7324291  84.2543853  74.9548872  36.4738279  90.1888021
  74.8203340  35.7138680  89.6226019  74.5380934  37.1979179  89.7216810
  86.0907835  31.6575203  79.1964596  86.7943685  31.8625205  79.8122252
  85.3670484  32.2251965  79.4613680  86.9205645  27.4085064  85.3166866
  86.8640847  27.8653615  84.4774499  87.4733988  26.6475748  85.1389709
  78.1117998  37.3707596  90.4006463  77.9950382  38.3153029  90.2985154
  77.2910444  37.0681158  90.7892263  87.9994533  32.0957732  81.2463056
  88.8340136  31.6638930  81.0640531  87.8378875  31.9239746  82.1739951
  87.6540425  28.5989845  82.6119396  87.5989229  28.4334117  81.6707840
  87.0286480  29.3065878  82.7681585  72.4432940  23.8357910  96.4380818
  73.0891803  23.3256863  96.9268043  72.2350091  24.5726591  97.0124243
  80.9636550  18.0997954  82.1904714  80.9515220  19.0439794  82.3472985
  81.8559972  17.9168100  81.8964175  79.1372512  38.0235858  93.6162392
  80.0399759  38.0559468  93.9328887  78.9109882  37.0936309  93.6308728
  80.8926114  36.7766845  90.2772471  79.9421745  36.7768706  90.1636843
  81.1958600  36.0299579  89.7608505  89.2955330  44.4190287  87.2676649
  88.7320195  44.3280224  86.4992936  89.1807725  43.5990192  87.7479141
  86.8419762  45.9141479  90.1060869  87.6341053  45.5732304  89.6907168
  87.0816412  46.0236454  91.0263022  94.8754888  48.0861255  82.5791113
  94.2242868  48.6715336  82.1925127  95.6699251  48.6167450  82.6386151
  88.8010515  45.1750392  82.9778248  89.5741391  44.6279379  82.8391124
  89.1535914  46.0394642  83.1892709  91.5651765  43.8803623  92.7746507
  92.1615337  43.6559645  92.0603470  91.6226736  43.1388369  93.3771955
  91.1376793  41.3343058  80.6096698  91.3902314  40.8124580  79.8480161
  90.2001352  41.1709204  80.7123381  96.3530153  45.7751687  83.1160098
  95.7175986  45.8486314  83.8281002  96.0227560  46.3645286  82.4379177
  90.8573082  43.2371164  82.8121073  90.7409340  42.5616068  83.4802157
  90.9675342  42.7503538  81.9953226  93.2004623  42.6981311  86.5167762
  92.8362830  42.1711932  87.2280683  94.0571739  42.3079781  86.3434247
  92.8410110  37.7271211  81.5129110  93.0084512  38.5951448  81.8799582
  92.6507279  37.8898493  80.5890400  89.0497925  42.6401987  89.2131645
  88.1248421  42.5078201  89.4209337  89.2982338  43.4196206  89.7101588
  92.8199331  40.1828869  82.4975777  92.6998956  40.6285919  83.3361258
  92.1251919  40.5314186  81.9389315  86.4106736  42.2835260  90.0475434
  86.5399117  42.5369739  90.9614846  85.7304187  42.8762968  89.7280089
  90.5806223  52.9532510  86.1465909  90.5030253  53.9040336  86.2254389
  89.9767867  52.6078383  86.8040835  98.5184397  40.6550342  83.3256111
  99.4302253  40.8877729  83.1503809  98.0094044  41.2387386  82.7631190
  92.6781941  45.3750568  87.9819778  93.1420287  45.6538271  87.1924400
  92.4138739  44.4734013  87.7992869  89.5706022  44.9222050  90.9199541
  90.1407379  45.3509318  90.2817026  90.1614134  44.6404635  91.6183727
  91.6150827  41.4973721  84.7909343  92.3174871  41.9494764  85.2583269
  91.2831456  40.8557540  85.4189236  85.3576161  39.7557273  90.0926477
  84.5675215  40.0114802  89.6166587  85.8487409  40.5705611  90.1978517
  87.3090907  40.1201853  87.0509953  86.5122070  40.2320547  87.5693449
  87.0816499  40.4588505  86.1850844  83.6413864  40.0087764  92.5241467
  83.8921903  40.8934774  92.7899043  84.1773413  39.8292365  91.7516559
  92.8544592  48.3114663  84.8671448  92.7190267  49.1566199  85.2956296
  93.3954404  48.5133941  84.1037382  86.3073989  45.8290101  85.4399373
  86.8198510  46.6233352  85.5904938  86.9596702  45.1316392  85.3732975
  88.1168874  48.9455858  87.5222127  88.2935502  49.8673822  87.3343110
  88.9125707  48.6314277  87.9516506  89.2400189  50.4634031  93.5232469
  89.7907615  50.3351095  92.7509463  88.4011665  50.7628921  93.1727362
  84.2722906  44.1578756  86.2158944  85.1098128  44.5675764  85.9992652
  84.4501174  43.2178198  86.1859138  96.1687338  41.8253836  81.9042777
  95.6533962  42.5958441  82.1431164  95.8964647  41.1518973  82.5275838
  93.7534449  36.6703537  86.9628015  92.8976046  36.2810388  86.7833654
  94.1661401  36.7495498  86.1027801  95.9573641  39.6980928  83.7302558
  95.6523777  40.0127078  84.5812701  96.9104083  39.7762348  83.7729891
  94.4020073  45.8571152  85.3795512  93.8741435  45.1223911  85.0668749
  93.9007576  46.6345828  85.1335480  89.1338801  36.5190818  87.7402123
  89.7082553  36.2966000  87.0075316  89.7209783  36.5879513  88.4930725
  89.4608388  38.5495279  81.7598009  88.6245700  38.8869966  82.0807283
  89.3213158  38.4144259  80.8225146  91.4361468  33.3932067  86.4677193
  90.7825881  33.0781084  85.8433808  91.3941943  32.7707807  87.1937016
  92.5472673  43.6751362  78.3830485  91.6399735  43.4440616  78.5821634
  93.0443705  42.8788981  78.5704467  95.4540752  52.3848869  81.3027171
  94.7802451  52.6880566  81.9112129  95.8406574  53.1877950  80.9532628
  95.4534257  41.2805416  85.9227521  96.2006076  41.7926813  85.6134643
  95.7225846  40.9589469  86.7831914  93.7260907  43.7763957  82.9054475
  92.8172126  43.4922990  83.0026945  93.7555991  44.1963035  82.0457782
  98.9580174  47.3870546  86.6745643  98.5042501  46.5461456  86.7310833
  98.3274141  48.0231945  87.0120423  97.4013113  49.2247043  87.6095461
  97.6936088  49.7852100  86.8907826  97.9111734  49.5175604  88.3648620
  84.2949077  41.4969471  86.8869677  84.0973477  40.9038832  86.1620744
  83.7395741  41.1921681  87.6045616  92.2745801  41.3892578  89.0064270
  92.3294411  40.4366414  88.9306747  91.4637003  41.5452017  89.4905569
  93.4236995  45.3172701  80.2442554  92.9856425  44.6008560  79.7848191
  94.1647435  45.5448815  79.6827645  90.2138161  40.0069637  86.7654649
  89.4006026  40.3063808  87.1719841  90.7097155  39.6125326  87.4829132
  92.3646739  50.0027394  88.6988914  92.3222917  50.2288241  87.7697446
  93.2809437  49.7690769  88.8474715  90.4812539  46.8790423  88.4950877
  91.2753138  46.3840743  88.2933452  89.7704232  46.3508286  88.1318582
  86.7895303  41.0233505  84.5710629  85.8592891  40.9617960  84.7880592
  86.8852775  40.5009458  83.7747271  86.7080852  37.5488318  87.1588871
  86.9687669  38.4633651  87.0498032  87.5298024  37.0812760  87.3085484
  93.0583815  47.4519445  92.1748714  92.9194901  47.0838230  93.0474652
  92.2698412  47.9667085  92.0032672  93.6531967  52.5528542  83.5174250
  93.8283723  52.0816585  84.3319873  92.9664755  53.1794308  83.7455511
  94.6089031  46.8301048  89.5637552  94.2738863  46.7901818  90.4595202
  94.1092976  46.1645764  89.0907962  97.5448222  44.1757082  79.8374611
  96.9277393  43.4503910  79.7407664  97.0764711  44.9366443  79.4941686
  88.2193053  55.7017904  90.2914111  88.4589651  56.3336429  90.9693129
  87.3762249  55.3505944  90.5779470  89.3346768  38.3942507  78.9595916
  88.4576234  38.2731307  78.5958162  89.8104521  37.6028585  78.7074804
  80.8548908  43.1819666  89.0537423  81.5419948  42.8681396  88.4658438
  80.6997037  44.0861031  88.7804674  85.6583630  38.0709863  93.4822446
  85.5741819  37.4635532  92.7472856  84.8366337  38.5618881  93.4831943
  92.5210694  50.7468797  86.2058436  91.7378216  51.2890477  86.2996661
  93.2203439  51.2642777  86.6052677  96.9137125  45.3135114  86.4231065
  95.9793404  45.4336576  86.2535769  97.0913793  44.4107580  86.1591075
  92.4142313  38.6980809  88.5764326  92.0440101  38.1451850  89.2645232
  92.9101405  38.0938943  88.0239326  98.3685907  47.4996254  83.9567251
  98.6445751  47.3852849  84.8661125  97.4990406  47.1013739  83.9179424
  95.0039971  51.7482605  87.6000065  95.1862366  50.9304261  88.0627817
  95.8272957  51.9650297  87.1624955  95.3382137  50.6750790  84.8615113
  95.8669903  50.1643245  84.2485275  95.6010357  50.3593320  85.7260646
  85.8399230  48.6914659  92.6050447  86.4252666  47.9458347  92.7378351
  85.6424068  49.0018616  93.4887111  88.6937885  51.7265907  87.6212889
  88.0248260  52.2112034  87.1376929  88.5550755  51.9735127  88.5356268
  80.4316884  41.2620260  91.3254890  80.4700984  40.7283850  92.1192008
  79.9257177  40.7355465  90.7065867  84.0625462  39.9884362  84.4008821
  84.3578903  39.0795040  84.3475875  83.1613498  39.9672101  84.0789824
  95.9711541  51.7091626  91.2059230  95.8462680  50.9081366  90.6970175
  96.6290632  52.2037819  90.7173200  87.5919709  38.0640358  90.3836370
  86.8706295  38.6776326  90.2443843  88.3812965  38.5998123  90.3053016
  85.7913304  37.6698459  84.5248146  85.4626010  36.7895838  84.3423252
  86.1452674  37.6146128  85.4124536  95.0392882  49.3053362  89.0343132
  94.8917845  48.3770070  89.2150702  95.8646376  49.3273453  88.5500207
  88.9055127  37.9571429  84.8923624  89.2451199  38.4857350  84.1702232
  89.3527247  38.2951835  85.6682191  98.6427004  50.1281921  90.1208005
  99.5673552  49.9224782  89.9832456  98.4742308  49.8798322  91.0297346
  90.8923274  36.4546051  83.0916917  91.6131636  36.8327304  82.5880634
  90.2688578  37.1734928  83.1951895  95.0354397  37.1591200  84.0275249
  95.2518011  38.0415838  83.7264077  94.5548464  36.7677413  83.2980891
  89.7753618  40.1176913  90.6045994  89.6298199  40.4317216  91.4970275
  89.2978822  40.7361813  90.0516892  98.4322320  50.6467588  85.4770096
  98.6059198  50.0814011  84.7243949  98.9251212  51.4468483  85.2949586
  84.2499280  42.6582257  93.5433655  83.7052748  43.4342065  93.6753929
  85.1278630  43.0053062  93.3852776  91.0386897  35.9893841  85.9214453
  91.1602808  35.0610487  86.1205341  90.7488939  36.0032527  85.0092769
  99.4197493  49.9634353  82.5766994 100.1148398  50.5841045  82.7954309
  99.7620643  49.1129704  82.8519372  85.0365302  41.7852154  96.4363812
  84.2947038  41.9334789  97.0228442  84.7158046  42.0460419  95.5730561
  93.0029577  53.4806042  88.4649578  92.5634567  52.9882420  89.1582435
  93.7537694  52.9379009  88.2241654  85.4821916  49.6717582  88.4674206
  86.3079936  49.3721354  88.0872850  85.1315968  48.9025205  88.9163995
  90.4503449  49.0244051  90.5371880  89.8283458  48.3614756  90.2374108
  91.1208316  49.0505183  89.8545528  83.6830521  47.5903909  89.4263140
  82.8462429  47.1626083  89.2447141  83.6554166  47.7836352  90.3633931
  90.0116956  47.5747974  84.0130341  90.1605076  48.2583438  83.3597013
  90.8183399  47.5553064  84.5279796  87.7669589  43.6013152  85.0191409
  87.5215631  42.6975482  85.2171620  87.9365503  43.6030302  84.0770887
  87.0365236  39.3341509  82.5177571  86.3434481  39.4085864  81.8617607
  86.7916988  38.5701853  83.0399088  93.5112361  50.0696104  81.4842088
  92.9386328  50.6886292  81.0312560  94.0845155  50.6195466  82.0182010
  96.7309621  50.3533255  82.6150670  97.6640294  50.2878816  82.8183546
  96.6432834  51.1889521  82.1565203  93.8959160  41.4056917  78.8258140
  94.8418265  41.2763125  78.8946559  93.5173405  40.6671579  79.3027569
  92.0802077  39.3306894  78.7613026  91.1733532  39.0340006  78.8375739
  92.3578058  39.0336712  77.8947312  82.9980017  40.6513257  89.2112072
  82.6782802  39.7978565  88.9186446  82.4513446  40.8661835  89.9670039
  86.7759925  43.3675698  92.9281579  86.9945935  44.2992806  92.9469612
  87.1885699  43.0083672  93.7136382  93.6964143  33.8743783  84.9157267
  92.8864871  33.5290868  85.2912513  94.3848560  33.5651327  85.5044879
  90.8500862  36.1893829  78.9025005  91.7120026  36.5148727  79.1620822
  91.0351206  35.4025325  78.3898071  82.8668277  44.2716168  91.1805194
  82.1731749  43.8570121  90.6675148  83.6141268  44.3136705  90.5838613
  84.7805020  44.2034422  89.0571209  84.7575708  44.3022110  88.1053092
  85.0905656  45.0499573  89.3788375  87.4392398  46.2610577  93.1717823
  88.3935651  46.2294520  93.1047755  87.2404921  45.8001201  93.9868049
  88.0291780  44.8311693  95.7388621  88.8484669  45.3255772  95.7623458
  88.3028588  43.9143661  95.7106188  97.7858376  37.2222446  85.1016576
  96.8984231  37.5072096  84.8836771  98.2012365  37.0616209  84.2543853
  85.7942627  51.8030197  90.1888021  85.6597095  51.0430598  89.6226019
  85.3774689  52.5271097  89.7216810  96.9301590  46.9867120  79.1964596
  97.6337440  47.1917123  79.8122252  96.2064238  47.5543882  79.4613680
  97.7599400  42.7376982  85.3166866  97.7034601  43.1945533  84.4774499
  98.3127742  41.9767666  85.1389709  88.9511752  52.6999514  90.4006463
  88.8344137  53.6444946  90.2985154  88.1304199  52.3973075  90.7892263
  98.8388287  47.4249649  81.2463056  99.6733891  46.9930848  81.0640531
  98.6772630  47.2531663  82.1739951  98.4934179  43.9281763  82.6119396
  98.4382983  43.7626034  81.6707840  97.8680234  44.6357796  82.7681585
  91.8030305  33.4289872  82.1904714  91.7908975  34.3731712  82.3472985
  92.6953727  33.2460017  81.8964175  91.7319869  52.1058762  90.2772471
  90.7815500  52.1060624  90.1636843  92.0352355  51.3591497  89.7608505
  98.1484661  55.4493770  87.0509953  97.3515824  55.5612465  87.5693449
  97.9210253  55.7880423  86.1850844  95.1116661  59.4870673  86.2158944
  95.9491883  59.8967682  85.9992652  95.2894928  58.5470116  86.1859138
  95.1342832  56.8261389  86.8869677  94.9367231  56.2330749  86.1620744
  94.5789496  56.5213599  87.6045616  97.6289057  56.3525423  84.5710629
  96.6986645  56.2909878  84.7880592  97.7246529  55.8301375  83.7747271
  97.5474606  52.8780235  87.1588871  97.8081424  53.7925569  87.0498032
  98.3691779  52.4104678  87.3085484  91.6942663  58.5111584  89.0537423
  92.3813703  58.1973314  88.4658438  91.5390791  59.4152949  88.7804674
  94.9019216  55.3176279  84.4008821  95.1972658  54.4086958  84.3475875
  94.0007252  55.2964019  84.0789824  96.6307058  52.9990377  84.5248146
  96.3019764  52.1187756  84.3423252  96.9846429  52.9438046  85.4124536
  98.6063343  58.9305069  85.0191409  98.3609385  58.0267399  85.2171620
  98.7759258  58.9322220  84.0770887  97.8758991  54.6633427  82.5177571
  97.1828236  54.7377782  81.8617607  97.6310743  53.8993770  83.0399088
  93.8373772  55.9805175  89.2112072  93.5176556  55.1270483  88.9186446
  93.2907200  56.1953753  89.9670039  76.0026008   7.5911684  76.8306176
  76.7947300   7.2502509  76.4152475  76.2422658   7.7006659  77.7508329
  84.0361135   9.7631460  69.3036420  83.3849115  10.3485540  68.9170434
  84.8305498  10.2937655  69.3631458  79.7412470  14.6302715  72.8711215
  79.6636499  15.5810540  72.9499696  79.1374113  14.2848588  73.5286141
  82.0150839   9.9884868  71.5916755  81.8796513  10.8336404  72.0201603
  82.5560651  10.1904146  70.8282689  75.4680236   7.5060306  72.1644680
  75.9804757   8.3003557  72.3150245  76.1202949   6.8086597  72.0978281
  77.2775121  10.6226063  74.2467433  77.4541749  11.5444027  74.0588417
  78.0731954  10.3084482  74.6761813  78.4006436  12.1404236  80.2477775
  78.9513861  12.0121300  79.4754769  77.5617912  12.4399125  79.8972668
  84.6146999  14.0619074  68.0272478  83.9408698  14.3650771  68.6357436
  85.0012821  14.8648155  67.6777935  86.5619360  10.9017248  74.3340767
  86.8542335  11.4622305  73.6153133  87.0717981  11.1945809  75.0893927
  81.5252985  11.6797599  75.4234221  81.4829164  11.9058445  74.4942753
  82.4415684  11.4460974  75.5720022  84.4613631  10.9378724  79.5708551
  84.5150653  11.5069660  80.3386267  83.5928412  11.1080609  79.2062588
  82.8138214  14.2298747  70.2419557  82.9889970  13.7586790  71.0565180
  82.1271002  14.8564513  70.4700818  77.3799299  17.3788109  77.0159417
  77.6195898  18.0106634  77.6938436  76.5368496  17.0276149  77.3024776
  81.8927161  13.1867232  79.4200921  81.8197333  13.9922203  79.9320226
  81.4504554  13.3859198  78.5948943  81.6816941  12.4239002  72.9303743
  80.8984463  12.9660682  73.0241967  82.3809686  12.9412981  73.3297984
  84.3525845  13.0854066  81.5759080  85.0653817  13.7201531  81.5034981
  83.8615873  13.1817932  80.7599082  79.4037758  10.8348509  82.3964651
  80.1047218  11.4684992  82.5494045  78.9332873  11.1763241  81.6360290
  84.4988384  12.3520995  71.5860420  85.0276150  11.8413450  70.9730582
  84.7616603  12.0363525  72.4505953  75.0005476  10.3684864  79.3295753
  75.5858913   9.6228552  79.4623658  74.8030315  10.6788821  80.2132417
  77.8544132  13.4036112  74.3458196  77.1854507  13.8882239  73.8622236
  77.7157001  13.6505332  75.2601574  81.9949400  15.4379855  80.9440854
  82.5467708  15.6011477  81.7089939  82.3355594  16.0284293  80.2720879
  85.1317787  13.3861831  77.9304536  85.0068927  12.5851571  77.4215482
  85.7896879  13.8808024  77.4418506  84.1999129  10.9823567  75.7588439
  84.0524092  10.0540274  75.9396009  85.0252623  11.0043658  75.2745514
  87.8033251  11.8052126  76.8453311  88.7279798  11.5994987  76.7077762
  87.6348554  11.5568527  77.7542653  87.5928567  12.3237793  72.2015403
  87.7665445  11.7584216  71.4489255  88.0857458  13.1238688  72.0194893
  82.1635824  15.1576246  75.1894885  81.7240814  14.6652625  75.8827742
  82.9143941  14.6149214  74.9486960  74.6428163  11.3487787  75.1919513
  75.4686182  11.0491559  74.8118157  74.2922215  10.5795410  75.6409302
  79.6109696  10.7014256  77.2617187  78.9889705  10.0384961  76.9619415
  80.2814563  10.7275387  76.5790834  72.8436768   9.2674114  76.1508447
  72.0068676   8.8396288  75.9692448  72.8160413   9.4606557  77.0879238
  79.1723203   9.2518179  70.7375647  79.3211323   9.9353643  70.0842320
  79.9789646   9.2323269  71.2525103  82.6718608  11.7466309  68.2087395
  82.0992575  12.3656496  67.7557866  83.2451402  12.2965671  68.7427317
  85.8915868  12.0303459  69.3395977  86.8246541  11.9649021  69.5428852
  85.8039081  12.8659726  68.8810510  72.0274524   5.9486373  77.9050500
  71.3337996   5.5340326  77.3920455  72.7747515   5.9906910  77.3083919
  76.5998645   7.9380782  79.8963130  77.5541898   7.9064725  79.8293061
  76.4011168   7.4771406  80.7113356  74.9548873  13.4800402  76.9133327
  74.8203341  12.7200803  76.3471326  74.5380936  14.2041302  76.4462116
  78.1117999  14.3769719  77.1251770  77.9950383  15.3215151  77.0230460
  77.2910446  14.0743280  77.5137569  79.1372513  15.0297981  80.3407699
  80.0399760  15.0621591  80.6574194  78.9109883  14.0998432  80.3554034
  80.8926115  13.7828967  77.0017777  79.9421746  13.7830829  76.8882149
  81.1958602  13.0361702  76.4853812  89.2955331  21.4252410  73.9921955
  88.7320196  21.3342347  73.2238243  89.1807726  20.6052315  74.4724448
  86.8419763  22.9203602  76.8306176  87.6341055  22.5794426  76.4152475
  87.0816413  23.0298577  77.7508329  94.8754890  25.0923378  69.3036420
  94.2242869  25.6777458  68.9170434  95.6699252  25.6229573  69.3631458
  88.8010517  22.1812515  69.7023554  89.5741393  21.6341502  69.5636430
  89.1535916  23.0456764  69.9138016  91.5651766  20.8865746  79.4991813
  92.1615338  20.6621768  78.7848776  91.6226738  20.1450491  80.1017261
  91.1376795  18.3405181  67.3342004  91.3902315  17.8186702  66.5725467
  90.2001354  18.1771326  67.4368688  96.3530155  22.7813810  69.8405404
  95.7175988  22.8548436  70.5526309  96.0227561  23.3707409  69.1624484
  90.8573083  20.2433287  69.5366379  90.7409341  19.5678190  70.2047464
  90.9675343  19.7565661  68.7198532  93.2004624  19.7043434  73.2413069
  92.8362831  19.1774055  73.9525990  94.0571740  19.3141903  73.0679554
  92.8410111  14.7333334  68.2374417  93.0084514  15.6013570  68.6044888
  92.6507280  14.8960615  67.3135706  89.0497926  19.6464110  75.9376952
  88.1248422  19.5140324  76.1454644  89.2982339  20.4258329  76.4346894
  92.8199332  17.1890991  69.2221084  92.6998957  17.6348042  70.0606564
  92.1251920  17.5376309  68.6634622  86.4106737  19.2897383  76.7720741
  86.5399118  19.5431862  77.6860153  85.7304188  19.8825091  76.4525396
  90.5806224  29.9594633  72.8711215  90.5030254  30.9102458  72.9499696
  89.9767868  29.6140506  73.5286141  98.5184398  17.6612464  70.0501418
  99.4302254  17.8939851  69.8749116  98.0094045  18.2449509  69.4876497
  92.6781942  22.3812691  74.7065085  93.1420288  22.6600394  73.9169707
  92.4138741  21.4796136  74.5238175  89.5706024  21.9284173  77.6444848
  90.1407381  22.3571441  77.0062332  90.1614135  21.6466757  78.3429033
  91.6150828  18.5035843  71.5154650  92.3174872  18.9556887  71.9828576
  91.2831457  17.8619662  72.1434543  85.3576162  16.7619396  76.8171783
  84.5675216  17.0176925  76.3411894  85.8487410  17.5767734  76.9223824
  87.3090908  17.1263975  73.7755260  86.5122071  17.2382670  74.2938756
  87.0816500  17.4650627  72.9096150  83.6413865  17.0149886  79.2486774
  83.8921904  17.8996896  79.5144350  84.1773414  16.8354488  78.4761866
  92.8544593  25.3176786  71.5916755  92.7190268  26.1628322  72.0201603
  93.3954406  25.5196064  70.8282689  86.3073991  22.8352224  72.1644680
  86.8198511  23.6295474  72.3150245  86.9596703  22.1378514  72.0978281
  88.1168875  25.9517980  74.2467433  88.2935504  26.8735945  74.0588417
  88.9125709  25.6376400  74.6761813  89.2400191  27.4696154  80.2477775
  89.7907616  27.3413217  79.4754769  88.4011667  27.7691043  79.8972668
  84.2722907  21.1640878  72.9404250  85.1098129  21.5737887  72.7237958
  84.4501175  20.2240320  72.9104444  96.1687339  18.8315959  68.6288083
  95.6533963  19.6020564  68.8676471  95.8964648  18.1581095  69.2521145
  93.7534450  13.6765660  73.6873322  92.8976047  13.2872510  73.5078961
  94.1661402  13.7557621  72.8273107  95.9573643  16.7043051  70.4547865
  95.6523778  17.0189200  71.3058008  96.9104085  16.7824471  70.4975198
  94.4020074  22.8633274  72.1040819  93.8741436  22.1286034  71.7914056
  93.9007577  23.6407951  71.8580787  89.1338802  13.5252941  74.4647430
  89.7082554  13.3028122  73.7320623  89.7209784  13.5941635  75.2176031
  89.4608389  15.5557402  68.4843315  88.6245701  15.8932088  68.8052590
  89.3213159  15.4206381  67.5470452  92.5472675  20.6813485  65.1075792
  91.6399736  20.4502738  65.3066941  93.0443707  19.8851104  65.2949773
  95.4540753  29.3910992  68.0272478  94.7802452  29.6942689  68.6357436
  95.8406575  30.1940072  67.6777935  95.4534258  18.2867539  72.6472827
  96.2006077  18.7988936  72.3379949  95.7225847  17.9651592  73.5077221
  93.7260908  20.7826080  69.6299782  92.8172127  20.4985112  69.7272251
  93.7555992  21.2025158  68.7703089  98.9580175  24.3932669  73.3990949
  98.5042503  23.5523579  73.4556140  98.3274142  25.0294067  73.7365729
  97.4013115  26.2309166  74.3340767  97.6936089  26.7914223  73.6153133
  97.9111735  26.5237727  75.0893927  84.2949078  18.5031594  73.6114984
  84.0973478  17.9100954  72.8866051  83.7395742  18.1983804  74.3290923
  92.2745802  18.3954700  75.7309577  92.3294412  17.4428537  75.6552054
  91.4637004  18.5514139  76.2150876  93.4236996  22.3234823  66.9687860
  92.9856426  21.6070682  66.5093498  94.1647437  22.5510938  66.4072952
  90.2138162  17.0131760  73.4899956  89.4006028  17.3125930  73.8965148
  90.7097156  16.6187449  74.2074438  92.3646740  27.0089517  75.4234221
  92.3222919  27.2350363  74.4942753  93.2809439  26.7752891  75.5720022
  90.4812541  23.8852546  75.2196183  91.2753139  23.3902866  75.0178758
  89.7704233  23.3570409  74.8563889  95.3007385  26.2670641  79.5708551
  95.3544407  26.8361578  80.3386267  94.4322167  26.4372526  79.2062588
  86.7895304  18.0295628  71.2955936  85.8592892  17.9680083  71.5125898
  86.8852776  17.5071580  70.4992577  86.7080853  14.5550440  73.8834178
  86.9687670  15.4695774  73.7743338  87.5298026  14.0874883  74.0330791
  93.0583817  24.4581568  78.8994020  92.9194902  24.0900352  79.7719959
  92.2698413  24.9729207  78.7277978  93.6531969  29.5590664  70.2419557
  93.8283724  29.0878707  71.0565180  92.9664757  30.1856430  70.4700818
  94.6089032  23.8363170  76.2882858  94.2738864  23.7963940  77.1840508
  94.1092977  23.1707886  75.8153268  97.5448223  21.1819205  66.5619918
  96.9277394  20.4566033  66.4652971  97.0764712  21.9428565  66.2186992
  88.2193054  32.7080027  77.0159417  88.4589652  33.3398551  77.6938436
  87.3762250  32.3568067  77.3024776  89.3346769  15.4004629  65.6841222
  88.4576236  15.2793430  65.3203469  89.8104522  14.6090707  65.4320111
  85.6583632  15.0771985  80.2067753  85.5741820  14.4697655  79.4718163
  84.8366338  15.5681004  80.2077249  92.7320916  28.5159149  79.4200921
  92.6591087  29.3214121  79.9320226  92.2898309  28.7151115  78.5948943
  92.5210695  27.7530919  72.9303743  91.7378217  28.2952600  73.0241967
  93.2203441  28.2704899  73.3297984  95.1919599  28.4145983  81.5759080
  95.9047572  29.0493448  81.5034981  94.7009628  28.5109849  80.7599082
  96.9137126  22.3197236  73.1476371  95.9793405  22.4398699  72.9781076
  97.0913795  21.4169703  72.8836381  92.4142314  15.7042932  75.3009633
  92.0440102  15.1513972  75.9890538  92.9101407  15.1001065  74.7484633
  90.2431513  26.1640427  82.3964651  90.9440972  26.7976910  82.5494045
  89.7726628  26.5055159  81.6360290  98.3685909  24.5058377  70.6812558
  98.6445753  24.3914971  71.5906432  97.4990407  24.1075862  70.6424731
  95.0039973  28.7544728  74.3245371  95.1862367  27.9366384  74.7873124
  95.8272959  28.9712420  73.8870261  95.3382138  27.6812913  71.5860420
  95.8669905  27.1705367  70.9730582  95.6010358  27.3655443  72.4505953
  85.8399231  25.6976782  79.3295753  86.4252668  24.9520470  79.4623658
  85.6424069  26.0080739  80.2132417  88.6937886  28.7328029  74.3458196
  88.0248261  29.2174157  73.8622236  88.5550756  28.9797250  75.2601574
  80.4316886  18.2682382  78.0500196  80.4700985  17.7345973  78.8437315
  79.9257178  17.7417588  77.4311174  92.8343155  30.7671773  80.9440854
  93.3861463  30.9303394  81.7089939  93.1749348  31.3576211  80.2720879
  84.0625463  16.9946484  71.1254128  84.3578904  16.0857163  71.0721182
  83.1613499  16.9734224  70.8035130  95.9711542  28.7153748  77.9304536
  95.8462681  27.9143488  77.4215482  96.6290633  29.2099942  77.4418506
  87.5919710  15.0702481  77.1081676  86.8706296  15.6838449  76.9689150
  88.3812966  15.6060246  77.0298322  85.7913305  14.6760582  71.2493453
  85.4626011  13.7957961  71.0668559  86.1452675  14.6208251  72.1369842
  95.0392884  26.3115485  75.7588439  94.8917846  25.3832192  75.9396009
  95.8646377  26.3335575  75.2745514  98.6427005  27.1344043  76.8453311
  99.5673553  26.9286905  76.7077762  98.4742309  26.8860445  77.7542653
  90.8923275  13.4608173  69.8162223  91.6131638  13.8389426  69.3125940
  90.2688579  14.1797050  69.9197201  95.0354398  14.1653322  70.7520556
  95.2518012  15.0477960  70.4509384  94.5548465  13.7739536  70.0226198
  89.7753619  17.1239036  77.3291300  89.6298200  17.4379339  78.2215582
  89.2978823  17.7423936  76.7762199  98.4322322  27.6529711  72.2015403
  98.6059199  27.0876133  71.4489255  98.9251213  28.4530606  72.0194893
  84.2499282  19.6644380  80.2678962  83.7052750  20.4404188  80.3999236
  85.1278631  20.0115184  80.1098083  91.0386898  12.9955964  72.6459760
  91.1602809  12.0672610  72.8450648  90.7488941  13.0094650  71.7338075
  99.4197494  26.9696475  69.3012301 100.1148399  27.5903168  69.5199616
  99.7620644  26.1191827  69.5764679  85.0365303  18.7914276  83.1609118
  84.2947039  18.9396912  83.7473749  84.7158048  19.0522542  82.2975868
  93.0029578  30.4868164  75.1894885  92.5634568  29.9944543  75.8827742
  93.7537695  29.9441132  74.9486960  85.4821917  26.6779705  75.1919513
  86.3079937  26.3783477  74.8118157  85.1315969  25.9087327  75.6409302
  90.4503450  26.0306173  77.2617187  89.8283460  25.3676878  76.9619415
  91.1208317  26.0567305  76.5790834  83.6830522  24.5966031  76.1508447
  82.8462430  24.1688206  75.9692448  83.6554168  24.7898475  77.0879238
  90.0116957  24.5810097  70.7375647  90.1605077  25.2645561  70.0842320
  90.8183401  24.5615187  71.2525103  87.7669590  20.6075274  71.7436716
  87.5215632  19.7037604  71.9416926  87.9365505  20.6092425  70.8016194
  87.0365238  16.3403632  69.2422878  86.3434483  16.4147987  68.5862914
  86.7916990  15.5763975  69.7644394  93.5112363  27.0758227  68.2087395
  92.9386330  27.6948414  67.7557866  94.0845156  27.6257589  68.7427317
  96.7309622  27.3595377  69.3395977  97.6640296  27.2940939  69.5428852
  96.6432835  28.1951644  68.8810510  93.8959161  18.4119040  65.5503447
  94.8418266  18.2825248  65.6191865  93.5173406  17.6733702  66.0272875
  92.0802078  16.3369016  65.4858332  91.1733534  16.0402129  65.5621046
  92.3578059  16.0398834  64.6192619  82.9980019  17.6575380  75.9357379
  82.6782803  16.8040688  75.6431753  82.4513447  17.8723958  76.6915346
  86.7759926  20.3737821  79.6526885  86.9945936  21.3054928  79.6714919
  87.1885700  20.0145795  80.4381689  90.8500863  13.1955951  65.6270312
  91.7120027  13.5210850  65.8866129  91.0351207  12.4087447  65.1143377
  82.8668279  21.2778291  77.9050500  82.1731750  20.8632244  77.3920455
  83.6141270  21.3198828  77.3083919  84.7805021  21.2096545  75.7816515
  84.7575709  21.3084232  74.8298398  85.0905658  22.0561696  76.1033681
  87.4392399  23.2672700  79.8963130  88.3935653  23.2356642  79.8293061
  87.2404923  22.8063324  80.7113356  88.0291781  21.8373816  82.4633927
  88.8484670  22.3317895  82.4868765  88.3028589  20.9205784  82.4351495
  85.7942628  28.8092319  76.9133327  85.6597096  28.0492720  76.3471326
  85.3774690  29.5333219  76.4462116  96.9301591  23.9929243  65.9209903
  97.6337441  24.1979245  66.5367558  96.2064240  24.5606005  66.1858986
  97.7599401  19.7439104  72.0412173  97.7034603  20.2007656  71.2019805
  98.3127744  18.9829789  71.8635016  88.9511754  29.7061636  77.1251770
  88.8344138  30.6507069  77.0230460  88.1304200  29.4035198  77.5137569
  98.8388288  24.4311772  67.9708363  99.6733892  23.9992971  67.7885838
  98.6772631  24.2593786  68.8985257  98.4934180  20.9343885  69.3364702
  98.4382984  20.7688157  68.3953146  97.8680236  21.6419918  69.4926892
  83.2826695  16.1711950  83.1626124  83.9285559  15.6610904  83.6513350
  83.0743847  16.9080631  83.7369550  89.9766268  30.3589898  80.3407699
  90.8793515  30.3913509  80.6574194  89.7503638  29.4290349  80.3554034
  91.7319870  29.1120885  77.0017777  90.7815501  29.1122746  76.8882149
  92.0352356  28.3653619  76.4853812 100.1349085  36.7544328  73.9921955
  99.5713951  36.6634265  73.2238243 100.0201480  35.9344232  74.4724448
  97.6813517  38.2495519  76.8306176  98.4734809  37.9086344  76.4152475
  97.9210167  38.3590494  77.7508329  99.8891680  34.9756027  75.9376952
  98.9642177  34.8432241  76.1454644 100.1376094  35.7550246  76.4346894
  97.2500491  34.6189301  76.7720741  97.3792873  34.8723780  77.6860153
  96.5697943  35.2117009  76.4525396  96.1969917  32.0911314  76.8171783
  95.4068971  32.3468842  76.3411894  96.6881164  32.9059652  76.9223824
  98.1484662  32.4555893  73.7755260  97.3515826  32.5674587  74.2938756
  97.9210255  32.7942545  72.9096150  94.4807620  32.3441804  79.2486774
  94.7315658  33.2288814  79.5144350  95.0167168  32.1646406  78.4761866
  97.1467745  38.1644142  72.1644680  97.6592266  38.9587392  72.3150245
  97.7990458  37.4670432  72.0978281  98.9562630  41.2809898  74.2467433
  99.1329258  42.2027863  74.0588417  99.7519463  40.9668317  74.6761813
  95.1116662  36.4932796  72.9404250  95.9491884  36.9029804  72.7237958
  95.2894929  35.5532238  72.9104444  95.1342833  33.8323511  73.6114984
  94.9367233  33.2392872  72.8866051  94.5789497  33.5275722  74.3290923
  97.6289059  33.3587545  71.2955936  96.6986647  33.2972001  71.5125898
  97.7246531  32.8363498  70.4992577  97.5474608  29.8842358  73.8834178
  97.8081425  30.7987691  73.7743338  98.3691780  29.4166801  74.0330791
  99.0586808  48.0371945  77.0159417  99.2983407  48.6690469  77.6938436
  98.2156005  47.6859985  77.3024776  91.6942664  35.5173707  75.7782729
  92.3813704  35.2035437  75.1903745  91.5390793  36.4215071  75.5049981
  96.4977386  30.4063903  80.2067753  96.4135575  29.7989573  79.4718163
  95.6760093  30.8972921  80.2077249  96.6792985  41.0268700  79.3295753
  97.2646422  40.2812388  79.4623658  96.4817824  41.3372656  80.2132417
  99.5331641  44.0619947  74.3458196  98.8642016  44.5466075  73.8622236
  99.3944510  44.3089168  75.2601574  91.2710640  33.5974300  78.0500196
  91.3094740  33.0637891  78.8437315  90.7650933  33.0709505  77.4311174
  94.9019218  32.3238402  71.1254128  95.1972659  31.4149080  71.0721182
  94.0007253  32.3026141  70.8035130  98.4313465  30.3994399  77.1081676
  97.7100050  31.0130366  76.9689150  99.2206720  30.9352163  77.0298322
  96.6307059  30.0052500  71.2493453  96.3019765  29.1249879  71.0668559
  96.9846430  29.9500168  72.1369842  95.0893036  34.9936298  80.2678962
  94.5446504  35.7696106  80.3999236  95.9672386  35.3407102  80.1098083
  95.8759058  34.1206194  83.1609118  95.1340794  34.2688829  83.7473749
  95.5551802  34.3814460  82.2975868  96.3215672  42.0071623  75.1919513
  97.1473691  41.7075395  74.8118157  95.9709724  41.2379245  75.6409302
  94.5224277  39.9257949  76.1508447  93.6856185  39.4980123  75.9692448
  94.4947922  40.1190392  77.0879238  98.6063345  35.9367192  71.7436716
  98.3609387  35.0329522  71.9416926  98.7759259  35.9384342  70.8016194
  97.8758992  31.6695549  69.2422878  97.1828237  31.7439904  68.5862914
  97.6310744  30.9055893  69.7644394  93.8373773  32.9867297  75.9357379
  93.5176558  32.1332605  75.6431753  93.2907201  33.2015875  76.6915346
  97.6153681  35.7029738  79.6526885  97.8339691  36.6346846  79.6714919
  98.0279455  35.3437713  80.4381689  93.7062033  36.6070209  77.9050500
  93.0125505  36.1924162  77.3920455  94.4535024  36.6490745  77.3083919
  95.6198776  36.5388463  75.7816515  95.5969464  36.6376150  74.8298398
  95.9299412  37.3853613  76.1033681  98.2786154  38.5964618  79.8963130
  99.2329407  38.5648560  79.8293061  98.0798677  38.1355241  80.7113356
  98.8685536  37.1665734  82.4633927  99.6878425  37.6609812  82.4868765
  99.1422343  36.2497702  82.4351495  96.6336382  44.1384237  76.9133327
  96.4990850  43.3784638  76.3471326  96.2168445  44.8625137  76.4462116
  99.7905508  45.0353554  77.1251770  99.6737892  45.9798987  77.0230460
  98.9697955  44.7327116  77.5137569  94.1220450  31.5003867  83.1626124
  94.7679314  30.9902821  83.6513350  93.9137601  32.2372549  83.7369550
  97.6813519  15.2557642  63.5551482  98.4734810  14.9148467  63.1397782
  97.9210169  15.3652617  64.4753636  97.1467746  15.1706264  58.8889987
  97.6592267  15.9649515  59.0395551  97.7990459  14.4732555  58.8223588
  98.9562631  18.2872021  60.9712740  99.1329259  19.2089985  60.7833724
  99.7519464  17.9730440  61.4007120  99.0586810  25.0434067  63.7404724
  99.2983408  25.6752591  64.4183742  98.2156006  24.6922107  64.0270083
  96.6792987  18.0330822  66.0541060  97.2646423  17.2874510  66.1868964
  96.4817825  18.3434779  66.9377724  99.5331642  21.0682070  61.0703502
  98.8642017  21.5528197  60.5867542  99.3944512  21.3151290  61.9846881
  96.3215673  19.0133745  61.9164820  97.1473693  18.7137517  61.5363463
  95.9709725  18.2441368  62.3654608  94.5224278  16.9320072  62.8753753
  93.6856186  16.5042246  62.6937755  94.4947923  17.1252515  63.8124544
  93.7062034  13.6132331  64.6295807  93.0125506  13.1986284  64.1165761
  94.4535025  13.6552868  64.0329226  98.2786155  15.6026740  66.6208436
  99.2329408  15.5710682  66.5538368  98.0798678  15.1417364  67.4358662
  96.6336384  21.1446360  63.6378634  96.4990852  20.3846761  63.0716632
  96.2168446  21.8687259  63.1707423  99.7905510  22.0415677  63.8497077
  99.6737894  22.9861109  63.7475767  98.9697956  21.7389238  64.2382876
  34.6041741  60.5042312 109.5287631  35.3772617  59.9571299 109.3900507
  34.9567139  61.3686561 109.7402093  36.9408018  56.6634978 107.1606081
  37.1933539  56.1416499 106.3989544  36.0032577  56.5001123 107.2632765
  44.3215622  55.9842261 109.8765495  45.2333478  56.2169648 109.7013193
  43.8125269  56.5679306 109.3140574  41.9718563  57.1545756 108.4552160
  41.4565187  57.9250360 108.6940548  41.6995872  56.4810892 109.0785222
  38.3503898  59.0043282 104.9339869  37.4430960  58.7732535 105.1331018
  38.8474930  58.2080901 105.1213850  39.5292132  59.1055876 109.4563859
  38.6203351  58.8214909 109.5536328  39.5587216  59.5254955 108.5967166
  39.2268220  60.6464620 106.7951937  38.7887650  59.9300479 106.3357575
  39.9678660  60.8740735 106.2337029  43.3479447  59.5049002 106.3883995
  42.7308618  58.7795830 106.2917048  42.8795936  60.2658362 106.0451069
  35.1377993  53.7234426 105.5105299  34.2607459  53.6023227 105.1467546
  35.6135746  52.9320504 105.2584188  39.6990385  56.7348837 105.3767524
  40.6449490  56.6055045 105.4455942  39.3204630  55.9963499 105.8536952
  37.8833302  54.6598813 105.3122409  36.9764757  54.3631926 105.3885123
  38.1609283  54.3628631 104.4456696  36.6532087  51.5185748 105.4534389
  37.5151251  51.8440647 105.7130206  36.8382431  50.7317244 104.9407454
  42.7332815  62.3159040 105.7473980  43.4368665  62.5209042 106.3631635
  42.0095463  62.8835802 106.0123063  40.6786115  40.4215297  95.8545804
  40.0274094  41.0069378  95.4679818  41.4730477  40.9521492  95.9140841
  34.6041742  37.5104434  96.2532938  35.3772618  36.9633421  96.1145814
  34.9567141  38.3748684  96.4647399  36.9408020  33.6697100  93.8851388
  37.1933540  33.1478622  93.1234851  36.0032579  33.5063246  93.9878072
  42.1561380  38.1105729  96.3914788  41.5207213  38.1840356  97.1035693
  41.8258786  38.6999328  95.7133867  36.3837449  45.2886552  99.4220599
  36.3061479  46.2394378  99.5009079  35.7799093  44.9432425 100.0795525
  44.3215623  32.9904384  96.6010802  45.2333479  33.2231771  96.4258499
  43.8125270  33.5741428  96.0385880  46.8074437  38.9084640 101.3468747
  46.1225476  39.2883542 100.7965780  46.8918287  39.5179967 102.0800695
  53.2677190  35.7755303 102.4671419  52.5140898  35.2062701 102.3115424
  53.4024731  35.7417968 103.4142054  38.6575818  40.6468705  98.1426139
  38.5221493  41.4920241  98.5710986  39.1985631  40.8487983  97.3792072
  41.9718564  34.1607878  95.1797467  41.4565188  34.9312483  95.4185855
  41.6995873  33.4873015  95.8030529  46.9452839  36.9140233  97.1150641
  46.1682281  36.5751393  96.6705803  47.6244320  36.9192856  96.4405606
  40.2051299  38.1925194  98.6550202  39.6772661  37.4577953  98.3423440
  39.7038802  38.9699870  98.4090171  38.3503900  36.0105404  91.6585175
  37.4430961  35.7794658  91.8576324  38.8474932  35.2143023  91.8459157
  41.2571979  44.7202911  94.5781861  40.5833677  45.0234608  95.1866819
  41.6437800  45.5231992  94.2287319  39.5292133  36.1117999  96.1809165
  38.6203352  35.8277032  96.2781635  39.5587217  36.5317078  95.3212472
  44.7611400  39.7224588  99.9500333  44.3073728  38.8815498 100.0065523
  44.1305367  40.3585987 100.2875113  43.2044340  41.5601085 100.8850151
  43.4967314  42.1206142 100.1662517  43.7142960  41.8529646 101.6403310
  39.2268221  37.6526743  93.5197244  38.7887651  36.9362602  93.0602881
  39.9678662  37.8802857  92.9582335  47.3441336  35.9283940  99.5773563
  47.2059234  36.1185536  98.6494752  46.9877554  36.6903322 100.0341614
  39.4563194  44.8882584  96.7928941  39.6314949  44.4170627  97.6074563
  38.7695982  45.5148350  97.0210201  43.3479448  36.5111124  93.1129302
  42.7308619  35.7857952  93.0162354  42.8795937  37.2720485  92.7696376
  35.1377994  30.7296549  92.2350606  34.2607461  30.6085349  91.8712852
  35.6135747  29.9382627  91.9829494  38.3241920  43.0822839  99.4813126
  37.5409442  43.6244519  99.5751351  39.0234666  43.5996819  99.8807368
  42.7168351  37.6489156  99.6985755  41.7824630  37.7690618  99.5290459
  42.8945020  36.7461622  99.4345765  44.1717134  39.8350296  97.2321941
  44.4476978  39.7206891  98.1415815  43.3021632  39.4367781  97.1934114
  40.8071198  44.0836647 100.8754755  40.9893592  43.2658303 101.3382507
  41.6304184  44.3004339 100.4379645  41.1413363  43.0104832  98.1369803
  41.6701130  42.4997287  97.5239966  41.4041583  42.6947362  99.0015336
  44.2353547  42.9821630  98.7524786  44.4090424  42.4168053  97.9998639
  44.7282438  43.7822525  98.5704276  50.0892938  35.7458053 100.3715086
  50.5324084  34.9965379  99.9734209  49.2119448  35.7368190  99.9888818
  45.2228719  42.2988395  95.8521685  45.9179624  42.9195087  96.0708999
  45.5651869  41.4483746  96.1274063  47.1220142  39.7488100  97.3809015
  47.6471466  40.0875373  96.6558335  47.0342495  38.8135116  97.1972150
  38.8060803  45.8160084 101.7404269  38.3665793  45.3236462 102.4337125
  39.5568920  45.2733051 101.4996344  35.8148182  39.9102016  97.2885031
  35.9636303  40.5937480  96.6351704  36.6214626  39.8907106  97.8034487
  49.6325803  37.2163292 102.7637534  50.4672694  37.6553096 102.9275094
  49.7684931  36.7401945 101.9445779  39.3143588  42.4050146  94.7596778
  38.7417555  43.0240334  94.3067250  39.8876381  42.9549508  95.2936700
  42.5340847  42.6887297  95.8905361  43.4671521  42.6232858  96.0938236
  42.4464060  43.5243563  95.4319893  45.1628864  42.0053167  92.8509308
  45.0842496  41.6713031  93.7445066  45.9838531  42.4974935  92.8500780
  39.6990386  33.7410959  92.1012831  40.6449491  33.6117167  92.1701249
  39.3204631  33.0025621  92.5782259  37.8833303  31.6660936  92.0367716
  36.9764759  31.3694048  92.1130430  38.1609284  31.3690754  91.1702002
  36.6532088  28.5247871  92.1779695  37.5151252  28.8502769  92.4375513
  36.8382432  27.7379367  91.6652761  42.7332816  39.3221162  92.4719286
  43.4368666  39.5271165  93.0876942  42.0095465  39.8897924  92.7368370
  43.5630626  35.0731024  98.5921557  43.5065828  35.5299575  97.7529189
  44.1158969  34.3121708  98.4144399  44.6419513  39.7603692  94.5217746
  45.4765117  39.3284890  94.3395221  44.4803856  39.5885705  95.4494641
  44.2965406  36.2635805  95.8874086  44.2414209  36.0980076  94.9462530
  43.6711461  36.9711838  96.0436275  53.2703788  50.2773343 104.6172923
  53.9082198  50.1580090 103.9136263  53.1524631  51.2254187 104.6760875
  50.0793495  50.2300771 104.5534448  49.7412006  50.1141835 103.6654983
  50.9483263  49.8291936 104.5335454  45.9380310  52.0836247 100.5431339
  45.3745176  51.9926184  99.7747627  45.8232705  51.2636152 101.0233831
  43.4844742  53.5787439 103.3815559  44.2766034  53.2378263 102.9661859
  43.7241392  53.6882414 104.3017713  51.5179869  55.7507215  95.8545804
  50.8667849  56.3361295  95.4679818  52.3124232  56.2813410  95.9140841
  45.4435496  52.8396352  96.2532938  46.2166372  52.2925339  96.1145814
  45.7960895  53.7040601  96.4647399  48.2076746  51.5449583 106.0501197
  48.8040318  51.3205605 105.3358160  48.2651717  50.8034328 106.6526645
  47.7801774  48.9989018  93.8851388  48.0327295  48.4770539  93.1234851
  46.8426333  48.8355164  93.9878072  52.8245057  48.0024797 101.6926131
  53.6108146  47.5844220 101.3416548  53.0883761  48.9070889 101.8607780
  52.9955134  53.4397647  96.3914788  52.3600967  53.5132273  97.1035693
  52.6652541  54.0291246  95.7133867  58.2253484  47.9400030 102.5959110
  58.9578656  47.3699247 102.8296939  57.4692840  47.5521630 103.0365615
  47.4998063  50.9017124  96.0875763  47.3834321  50.2262027  96.7556847
  47.6100323  50.4149498  95.2707916  49.8429604  50.3627271  99.7922452
  49.4787811  49.8357892 100.5035374  50.6996720  49.9725740  99.6188938
  55.7478904  41.6521604 107.0553718  55.4162229  42.5217015 106.8314933
  55.1524518  41.3357888 107.7347749  49.4835091  45.3917171  94.7883801
  49.6509493  46.2597407  95.1554272  49.2932260  45.5544453  93.8645090
  52.2410424  53.8534150 106.4549631  51.9411147  54.7559189 106.3465438
  51.8961483  53.5866333 107.3070784  45.6922905  50.3047947 102.4886336
  44.7673402  50.1724161 102.6964027  45.9407319  51.0842166 102.9856278
  55.6407568  46.3716690 104.1347068  54.7324445  46.3032098 103.8405829
  55.5895164  46.8488635 104.9628894  49.4624312  47.8474828  95.7730468
  49.3423937  48.2931879  96.6115948  48.7676900  48.1960146  95.2144006
  43.0531716  49.9481220 103.3230125  43.1824098  50.2015699 104.2369536
  42.3729168  50.5408928 103.0034780  47.2231204  60.6178470  99.4220599
  47.1455233  61.5686295  99.5009079  46.6192847  60.2724343 100.0795525
  57.5069214  44.5733128 105.9124942  56.8643594  44.8665662 105.2664737
  57.0024143  44.4586049 106.7178139  55.1609378  48.3196302  96.6010802
  56.0727234  48.5523688  96.4258499  54.6519025  48.9033346  96.0385880
  49.7981215  47.6793536 107.6105651  50.6442411  48.1032950 107.7540300
  49.7379853  47.0227160 108.3044214  53.7678960  53.3022120 103.9924383
  53.1387823  53.4667834 103.2900451  53.3804622  53.7163730 104.7635347
  57.6468192  54.2376558 101.3468747  56.9619230  54.6175459 100.7965780
  57.7312041  54.8471885 102.0800695  54.9019124  51.8836517 107.9464090
  55.1136019  52.5268277 107.2698471  54.8548872  51.0498833 107.4786020
  52.5045353  44.4954338 104.8500662  51.6429832  44.7935591 105.1417400
  52.5307787  44.7124736 103.9181695  49.3206922  53.0396528 101.2574468
  49.7845267  53.3184231 100.4679091  49.0563720  52.1379973 101.0747559
  46.2131003  52.5868010 104.1954231  46.7832360  53.0155278 103.5571716
  46.8039115  52.3050594 104.8938417  48.2575808  49.1619680  98.0664033
  48.9599851  49.6140724  98.5337960  47.9256437  48.5203499  98.6943926
  42.0001142  47.4203233 103.3681167  41.2100196  47.6760762 102.8921277
  42.4912389  48.2351571 103.4733207  43.9515887  47.7847812 100.3264644
  43.1547051  47.8966507 100.8448139  43.7241480  48.1234465  99.4605534
  64.1070945  51.1047221 102.4671419  63.3534653  50.5354619 102.3115424
  64.2418486  51.0709885 103.4142054  49.4969573  55.9760623  98.1426139
  49.3615247  56.8212159  98.5710986  50.0379385  56.1779901  97.3792072
  42.9498970  53.4936061  98.7154064  43.4623491  54.2879311  98.8659628
  43.6021683  52.7962352  98.6487665  44.7593855  56.6101817 100.7976817
  44.9360483  57.5319782 100.6097801  45.5550688  56.2960237 101.2271197
  45.8825170  58.1279991 106.7987159  46.4332595  57.9997055 106.0264153
  45.0436646  58.4274880 106.4482052  40.9147887  51.8224715  99.4913634
  41.7523109  52.2321724  99.2747342  41.0926155  50.8824158  99.4613828
  52.8112319  49.4899796  95.1797467  52.2958942  50.2604401  95.4185855
  52.5389627  48.8164932  95.8030529  50.3959430  44.3349497 100.2382705
  49.5401026  43.9456347 100.0588344  50.8086382  44.4141458  99.3782491
  51.9258577  41.8695840 104.6374265  51.4223372  41.8325975 103.8242071
  52.2189183  42.7788583 104.6970922  48.1701462  41.9534570 103.6440447
  49.0354459  41.7577379 103.2846336  48.2378971  41.7244922 104.5709804
  57.7846593  52.2432151  97.1150641  57.0076036  51.9043310  96.6705803
  58.4638074  52.2484774  96.4405606  52.5998622  47.3626888  97.0057248
  52.2948758  47.6773037  97.8567391  53.5529064  47.4408308  97.0484581
  51.0445054  53.5217112  98.6550202  50.5166416  52.7869871  98.3423440
  50.5432557  54.2991788  98.4090171  56.0237900  51.7166132 103.7717249
  55.3661574  52.4065393 103.8597377  56.8278299  52.1062564 104.1151235
  45.7763782  44.1836778 101.0156814  46.3507533  43.9611959 100.2830007
  46.3634764  44.2525472 101.7685415  54.8343359  50.0710505 101.8221190
  55.3475241  50.7040497 102.3242900  55.4844583  49.4711700 101.4564550
  46.1033369  46.2141239  95.0352699  45.2670681  46.5515925  95.3561974
  45.9638138  46.0790219  94.0979836  48.0786449  41.0578027  99.7431883
  47.4250862  40.7427044  99.1188498  48.0366923  40.4353767 100.4691706
  49.1897654  51.3397322  91.6585175  48.2824716  51.1086575  91.8576324
  49.6868686  50.5434941  91.8459157  52.0965733  60.0494829  94.5781861
  51.4227432  60.3526526  95.1866819  52.4831555  60.8523909  94.2287319
  51.3124190  47.5459960 104.0679531  50.3946751  47.7674907 103.9101219
  51.7284333  47.6206271 103.2091238  52.0959237  48.9451376  99.1982211
  52.8431056  49.4572773  98.8889333  52.3650827  48.6235429 100.0586605
  50.3685888  51.4409917  96.1809165  49.4597107  51.1568949  96.2781635
  50.3980971  51.8608995  95.3212472  55.6005155  55.0516506  99.9500333
  55.1467482  54.2107416 100.0065523  54.9699122  55.6877905 100.2875113
  54.5438075  45.9808492 101.1801000  53.8060831  45.4685878 101.5111243
  54.7964848  45.5408874 100.3684277  54.0438094  56.8893003 100.8850151
  54.3361069  57.4498060 100.1662517  54.5536715  57.1821564 101.6403310
  54.6449702  38.7584744 101.7742770  54.9508579  37.8982108 101.4868685
  55.3702307  39.3502364 101.5741764  40.9374058  49.1615431 100.1624368
  40.7398458  48.5684791  99.4375434  40.3820722  48.8567641 100.8800306
  48.9170782  49.0538537 102.2818961  48.9719391  48.1012374 102.2061437
  48.1061984  49.2097976 102.7660259  50.0661975  52.9818660  93.5197244
  49.6281405  52.2654519  93.0602881  50.8072416  53.2094775  92.9582335
  46.8563142  47.6715597 100.0409340  46.0431007  47.9709768 100.4474532
  47.3522136  47.2771286 100.7583822  49.0071719  57.6673354 101.9743604
  48.9647898  57.8934200 101.0452136  49.9234418  57.4336729 102.1229405
  52.4537353  48.1357421 108.8724233  52.8086741  48.3628895 109.7318699
  53.1009484  48.4675798 108.2501489  58.1835090  51.2575857  99.5773563
  58.0452989  51.4477453  98.6494752  57.8271309  52.0195240 100.0341614
  46.3477216  45.2433953 105.6570575  46.9876596  45.1022712 104.9593538
  45.5154747  44.9568466 105.2809177  58.2104470  53.3252384 104.5884834
  58.6440976  53.2327673 105.4367888  58.9236050  53.3009885 103.9504850
  47.1237520  54.5436383 101.7705567  47.9178119  54.0486703 101.5688142
  46.4129213  54.0154246 101.4073273  43.4320284  48.6879465  97.8465320
  42.5017872  48.6263920  98.0635282  43.5277756  48.1655417  97.0501961
  43.3505833  45.2134278 100.4343561  43.6112650  46.1279611 100.3252722
  44.1723005  44.7458720 100.5840174  50.9020464  51.0914741 107.6804866
  51.8312524  51.2425900 107.5073834  50.4811494  51.1798761 106.8253513
  49.7008796  55.1165405 105.4503404  49.5619882  54.7484189 106.3229342
  48.9123392  55.6313044 105.2787362  50.2956948  60.2174501  96.7928941
  50.4708704  59.7462545  97.6074563  49.6089736  60.8440268  97.0210201
  51.2514011  54.4947008 102.8392242  50.9163844  54.4547778 103.7349892
  50.7517957  53.8291724 102.3662652  54.1873203  51.8403042  93.1129302
  53.5702374  51.1149870  93.0162354  53.7189691  52.6012402  92.7696376
  47.8540556  49.6134597 107.8528503  48.5640174  48.9727789 107.8115121
  47.8109864  49.8647492 108.7754683  44.8618033  63.3663864 103.5668801
  45.1014632  63.9982388 104.2447819  44.0187230  63.0151904 103.8534160
  45.9771749  46.0588466  92.2350606  45.1001215  45.9377267  91.8712852
  46.4529502  45.2674545  91.9829494  37.4973889  50.8465626 102.3292113
  38.1844929  50.5327356 101.7413128  37.3422018  51.7506991 102.0559364
  49.1635675  58.4114757  99.4813126  48.3803197  58.9536437  99.5751351
  49.8628420  58.9288736  99.8807368  52.4732325  44.2209386 102.1247332
  52.9701025  43.4679348 101.8048402  51.7019307  44.2573703 101.5590541
  60.3262082  49.9249752 103.7665623  60.3151959  50.8074467 103.3959556
  59.4579462  49.5721302 103.5720160  53.5562106  52.9781073  99.6985755
  52.6218384  53.0982536  99.5290459  53.7338774  52.0753540  99.4345765
  49.0567294  46.3626769 101.8519016  48.6865081  45.8097809 102.5399922
  49.5526386  45.7584903 101.2994016  56.9434657  48.8198393 100.2335789
  57.4095109  49.6526384 100.1596092  57.3942158  48.3543374 100.9381048
  55.0110888  55.1642214  97.2321941  55.2870732  55.0498808  98.1415815
  54.1415387  54.7659699  97.1934114  54.9151320  41.1878980 104.2726691
  54.0014400  41.4183206 104.4408898  55.3444421  41.2717424 105.1240723
  54.6857778  49.3768872 106.7726585  54.0329229  49.6244779 106.1179037
  55.0638158  48.5633010 106.4389062  51.6464952  59.4128565 100.8754755
  51.8287347  58.5950221 101.3382507  52.4697938  59.6296257 100.4379645
  51.9807118  58.3396750  98.1369803  52.5094884  57.8289204  97.5239966
  52.2435337  58.0239280  99.0015336  42.4824210  56.3560619 105.8805137
  43.0677647  55.6104307 106.0133041  42.2849049  56.6664576 106.7641801
  45.3362866  59.3911867 100.8967579  44.6673241  59.8757994 100.4131619
  45.1975735  59.6381087 101.8110958  40.7050443  47.6530322  97.6763511
  41.0003884  46.7441000  97.6230565  39.8038478  47.6318061  97.3544514
  52.6136521  59.3737586 104.4813920  52.4887661  58.5727325 103.9724865
  53.2715613  59.8683779 103.9927890  44.2344690  45.7286318 103.6591060
  43.5131275  46.3422286 103.5198533  45.0237945  46.2644083 103.5807706
  42.4338284  45.3344419  97.8002837  42.1050990  44.4541798  97.6177943
  42.7877655  45.2792088  98.6879226  51.6817863  56.9699322 102.3097822
  51.5342826  56.0416029 102.4905392  52.5071357  56.9919413 101.8254897
  45.5480107  45.6217389  98.1678314  45.8876180  46.1503310  97.4456923
  45.9952228  45.9597795  98.9436881  55.2851985  57.7927881 103.3962695
  56.2098532  57.5870742 103.2587146  55.1167288  57.5444282 104.3052036
  47.5348255  44.1192011  96.3671607  48.2556617  44.4973263  95.8635324
  46.9113559  44.8380887  96.4706585  51.6779377  44.8237160  97.3029939
  51.8942992  45.7061797  97.0018768  51.1973445  44.4323373  96.5735581
  46.4178599  47.7822873 103.8800684  46.2723180  48.0963176 104.7724966
  45.9403803  48.4007773 103.3271583  48.2774982  44.7725421 103.9281574
  48.2636551  43.8766514 103.5913872  48.9947410  44.7796084 104.5619860
  55.0747301  58.3113548  98.7524786  55.2484179  57.7459971  97.9998639
  55.5676192  59.1114443  98.5704276  40.8924261  50.3228217 106.8188345
  40.3477729  51.0988025 106.9508620  41.7703611  50.6699022 106.6607467
  47.6811878  43.6539801  99.1969144  47.8027789  42.7256447  99.3960031
  47.3913920  43.6678487  98.2847459  50.5503068  41.3394711 102.3335864
  50.5724765  41.4034045 101.3787843  50.9671127  40.4999220 102.5276370
  60.9286692  51.0749971 100.3715086  61.3717838  50.3257296  99.9734209
  60.0513203  51.0660107  99.9888818  56.0622474  57.6280312  95.8521685
  56.7573378  58.2487005  96.0708999  56.4045624  56.7775664  96.1274063
  57.9613897  55.0780018  97.3809015  58.4865221  55.4167291  96.6558335
  57.8736249  54.1427033  97.1972150  49.6454558  61.1452001 101.7404269
  49.2059548  60.6528380 102.4337125  50.3962675  60.6024969 101.4996344
  42.1246897  57.3363542 101.7428897  42.9504916  57.0367314 101.3627540
  41.7740949  56.5671165 102.1918685  47.0928430  56.6890010 103.8126570
  46.4708439  56.0260715 103.5128798  47.7633297  56.7151142 103.1300218
  40.3255502  55.2549869 102.7017830  39.4887410  54.8272043 102.5201832
  40.2979147  55.4482312 103.6388621  46.6541937  55.2393934  97.2885031
  46.8030057  55.9229398  96.6351704  47.4608380  55.2199024  97.8034487
  60.4719557  52.5455209 102.7637534  61.3066448  52.9845013 102.9275094
  60.6078686  52.0693863 101.9445779  44.4094570  51.2659111  98.2946100
  44.1640612  50.3621441  98.4926310  44.5790484  51.2676262  97.3525578
  43.6790217  46.9987469  95.7932261  42.9859462  47.0731824  95.1372297
  43.4341969  46.2347813  96.3153778  52.3503874  38.5583070 103.1971752
  52.6305627  37.8906259 103.8232178  53.1354481  38.7512166 102.6846416
  50.1537342  57.7342064  94.7596778  49.5811309  58.3532251  94.3067250
  50.7270136  58.2841426  95.2936700  56.2212732  46.9800704 106.9443327
  57.1730155  47.0798802 106.9655551  56.0516182  46.1878973 107.4541411
  54.2427111  44.0656287 107.1302728  53.6477044  44.3461300 106.4349217
  53.9576808  44.5550188 107.9019469  53.3734602  58.0179214  95.8905361
  54.3065275  57.9524776  96.0938236  53.2857815  58.8535481  95.4319893
  56.0022619  57.3345085  92.8509308  55.9236250  57.0004948  93.7445066
  56.8232285  57.8266853  92.8500780  58.7000810  50.2006824 106.0585627
  58.6677130  49.2622825 106.2445311  59.3101433  50.2790861 105.3251452
  50.5384141  49.0702877  92.1012831  51.4843245  48.9409085  92.1701249
  50.1598386  48.3317539  92.5782259  58.8495298  46.9917867 106.1043910
  58.3334347  46.2076324 105.9173839  59.7335247  46.6636584 106.2690429
  56.5106025  40.7358883 102.0639723  56.3130846  40.4273971 102.9483055
  57.1205731  41.4620522 102.1937652  62.5992657  49.4030693 105.7966115
  61.8725820  49.2686658 105.1882606  62.1839944  49.7107522 106.6022833
  48.7227058  46.9952853  92.0367716  47.8158513  46.6985966  92.1130430
  49.0003039  46.6982671  91.1702002  39.6404998  48.3159217 102.4866762
  39.3207783  47.4624525 102.1941136  39.0938426  48.5307795 103.2424730
  43.4184906  51.0321658 106.2036269  43.6370916  51.9638766 106.2224303
  43.8310680  50.6729632 106.9891073  50.3389124  41.5389743  98.1911957
  49.5289852  41.1936828  98.5667203  51.0273540  41.2297287  98.7799569
  52.2679672  40.6167790  99.8136254  52.8210710  41.0363243 100.4726277
  52.5049758  39.6903538  99.8559210  47.4925842  43.8539789  92.1779695
  48.3545006  44.1794687  92.4375513  47.6776187  43.0671284  91.6652761
  39.5093258  51.9362128 104.4559884  38.8156730  51.5216081 103.9429838
  40.2566249  51.9782665 103.8593303  55.6458479  42.7268315  99.3214918
  55.0657148  43.3853119  98.9392971  55.3794412  41.9045660  98.9102336
  54.0962045  42.1273373 101.5236238  54.5961824  42.2389907 100.7150557
  54.7397653  41.8234426 102.1637047  41.4230001  51.8680382 102.3325899
  41.4000689  51.9668069 101.3807782  41.7330637  52.7145533 102.6543065
  44.0817379  53.9256537 106.4472513  45.0360632  53.8940479 106.3802445
  43.8829902  53.4647161 107.2622739  44.6716761  52.4957653 109.0143311
  45.4909650  52.9901732 109.0378148  44.9453568  51.5789621 108.9860878
  54.4283357  44.8868405  98.3771266  53.5409212  45.1718056  98.1591461
  54.8437346  44.7262169  97.5298543  57.7797893  44.9114926 102.0925606
  58.5558283  45.4011379 102.3650222  57.0546027  45.3372981 102.5497475
  60.2170452  45.6242546 103.1499546  60.8114943  45.3838282 102.4392855
  60.2897035  44.9049676 103.7773083  42.4367607  59.4676156 103.4642711
  42.3022075  58.7076557 102.8980709  42.0199670  60.1917056 102.9971500
  53.5726570  54.6513080  92.4719286  54.2762421  54.8563083  93.0876942
  52.8489219  55.2189842  92.7368370  54.4024381  50.4022941  98.5921557
  54.3459582  50.8591493  97.7529189  54.9552723  49.6413626  98.4144399
  58.2129187  46.1912673  99.4171676  57.9566121  45.7909309 100.2479884
  57.5882055  46.9056467  99.2921815  62.5241524  48.9308746 101.9242967
  61.9641082  49.0001936 102.6974530  61.9185028  48.7549731 101.2042464
  45.5936733  60.3645474 103.6761154  45.4769117  61.3090906 103.5739844
  44.7729180  60.0619035 104.0646953  55.4813268  55.0895609  94.5217746
  56.3158872  54.6576808  94.3395221  55.3197611  54.9177623  95.4494641
  55.1359160  51.5927723  95.8874086  55.0807964  51.4271994  94.9462530
  54.5105215  52.3003755  96.0436275  48.4455285  41.0935832  95.4659404
  48.4333955  42.0377671  95.6227675  49.3378707  40.9105977  95.1718865
  48.3744849  59.7704722 103.5527161  47.4240480  59.7706584 103.4391533
  48.6777336  59.0237457 103.0363195  52.2607405  37.6878608  99.7205341
  51.4939801  37.1337095  99.8662023  52.6718110  37.7600477 100.5819493
  56.2829251  68.1688270  96.2532938  57.0560127  67.6217257  96.1145814
  56.6354650  69.0332519  96.4647399  58.6195529  64.3280936  93.8851388
  58.8721049  63.8062457  93.1234851  57.6820088  64.1647081  93.9878072
  58.3391817  66.2309042  96.0875763  58.2228075  65.5553945  96.7556847
  58.4494077  65.7441416  95.2707916  60.3228845  60.7209089  94.7883801
  60.4903248  61.5889325  95.1554272  60.1326014  60.8836370  93.8645090
  60.3018066  63.1766746  95.7730468  60.1817691  63.6223797  96.6115948
  59.6070654  63.5252064  95.2144006  66.0003132  63.6488219  96.6010802
  66.9120988  63.8815606  96.4258499  65.4912779  64.2325263  96.0385880
  59.0969563  64.4911598  98.0664033  59.7993606  64.9432642  98.5337960
  58.7650191  63.8495417  98.6943926  54.7909642  63.1139730 100.3264644
  53.9940805  63.2258424 100.8448139  54.5635234  63.4526382  99.4605534
  51.7541641  67.1516633  99.4913634  52.5916863  67.5613641  99.2747342
  51.9319909  66.2116075  99.4613828  63.6506073  64.8191714  95.1797467
  63.1352697  65.5896318  95.4185855  63.3783382  64.1456850  95.8030529
  61.2353184  59.6641415 100.2382705  60.3794781  59.2748265 100.0588344
  61.6480136  59.7433375  99.3782491  63.4392377  62.6918806  97.0057248
  63.1342512  63.0064955  97.8567391  64.3922819  62.7700226  97.0484581
  56.6157536  59.5128695 101.0156814  57.1901288  59.2903877 100.2830007
  57.2028518  59.5817390 101.7685415  56.9427123  61.5433157  95.0352699
  56.1064435  61.8807843  95.3561974  56.8031893  61.4082136  94.0979836
  58.9180204  56.3869944  99.7431883  58.2644616  56.0718962  99.1188498
  58.8760678  55.7645685 100.4691706  60.0291409  66.6689239  91.6585175
  59.1218470  66.4378493  91.8576324  60.5262441  65.8726859  91.8459157
  61.2079642  66.7701834  96.1809165  60.2990861  66.4860867  96.2781635
  61.2374726  67.1900913  95.3212472  65.4843456  54.0876662 101.7742770
  65.7902333  53.2274025 101.4868685  66.2096061  54.6794282 101.5741764
  51.7767812  64.4907348 100.1624368  51.5792212  63.8976709  99.4375434
  51.2214476  64.1859559 100.8800306  60.9055730  68.3110578  93.5197244
  60.4675160  67.5946437  93.0602881  61.6466171  68.5386693  92.9582335
  57.6956896  63.0007515 100.0409340  56.8824762  63.3001685 100.4474532
  58.1915890  62.6063203 100.7583822  54.2714038  64.0171382  97.8465320
  53.3411626  63.9555838  98.0635282  54.3671510  63.4947335  97.0501961
  54.1899587  60.5426195 100.4343561  54.4506404  61.4571528 100.3252722
  55.0116760  60.0750638 100.5840174  65.0266957  67.1694960  93.1129302
  64.4096128  66.4441788  93.0162354  64.5583446  67.9304320  92.7696376
  56.8165503  61.3880384  92.2350606  55.9394970  61.2669185  91.8712852
  57.2923256  60.5966462  91.9829494  48.3367644  66.1757544 102.3292113
  49.0238683  65.8619274 101.7413128  48.1815772  67.0798908 102.0559364
  51.5444197  62.9822239  97.6763511  51.8397638  62.0732918  97.6230565
  50.6432233  62.9609979  97.3544514  53.2732039  60.6636337  97.8002837
  52.9444745  59.7833716  97.6177943  53.6271409  60.6084006  98.6879226
  56.3873862  60.9509307  98.1678314  56.7269934  61.4795228  97.4456923
  56.8345982  61.2889713  98.9436881  58.3742009  59.4483928  96.3671607
  59.0950372  59.8265181  95.8635324  57.7507313  60.1672805  96.4706585
  62.5173132  60.1529077  97.3029939  62.7336746  61.0353715  97.0018768
  62.0367199  59.7615291  96.5735581  58.5205632  58.9831719  99.1969144
  58.6421543  58.0548365  99.3960031  58.2307675  58.9970405  98.2847459
  61.3896823  56.6686629 102.3335864  61.4118519  56.7325962 101.3787843
  61.8064882  55.8291138 102.5276370  55.2488324  66.5951029  98.2946100
  55.0034366  65.6913359  98.4926310  55.4184239  66.5968179  97.3525578
  54.5183972  62.3279387  95.7932261  53.8253217  62.4023742  95.1372297
  54.2735724  61.5639730  96.3153778  63.1897628  53.8874988 103.1971752
  63.4699382  53.2198177 103.8232178  63.9748235  54.0804084 102.6846416
  61.3777895  64.3994795  92.1012831  62.3237000  64.2701003  92.1701249
  60.9992140  63.6609456  92.5782259  59.5620812  62.3244771  92.0367716
  58.6552268  62.0277884  92.1130430  59.8396793  62.0274589  91.1702002
  50.4798753  63.6451134 102.4866762  50.1601537  62.7916443 102.1941136
  49.9332181  63.8599713 103.2424730  61.1782878  56.8681661  98.1911957
  60.3683606  56.5228746  98.5667203  61.8667295  56.5589204  98.7799569
  63.1073426  55.9459707  99.8136254  63.6604465  56.3655161 100.4726277
  63.3443513  55.0195456  99.8559210  58.3319597  59.1831706  92.1779695
  59.1938761  59.5086605  92.4375513  58.5169941  58.3963202  91.6652761
  66.4852233  58.0560233  99.3214918  65.9050902  58.7145037  98.9392971
  66.2188166  57.2337577  98.9102336  65.2677111  60.2160323  98.3771266
  64.3802966  60.5009974  98.1591461  65.6831101  60.0554086  97.5298543
  64.4120325  69.9804998  92.4719286  65.1156175  70.1855000  93.0876942
  63.6882974  70.5481760  92.7368370  59.2849040  56.4227749  95.4659404
  59.2727710  57.3669589  95.6227675  60.1772462  56.2397895  95.1718865
  63.1001159  53.0170526  99.7205341  62.3333555  52.4629013  99.8662023
  63.5111864  53.0892395 100.5819493  40.6786116  17.4277420  82.5791110
  40.0274096  18.0131500  82.1925124  41.4730479  17.9583615  82.6386148
  34.6041743  14.5166557  82.9778245  35.3772619  13.9695544  82.8391121
  34.9567142  15.3810806  83.1892706  36.9408021  10.6759223  80.6096695
  37.1933542  10.1540744  79.8480158  36.0032580  10.5125369  80.7123378
  42.1561381  15.1167852  83.1160095  41.5207214  15.1902478  83.8280999
  41.8258787  15.7061451  82.4379174  36.3837450  22.2948675  86.1465905
  36.3061480  23.2456500  86.2254386  35.7799094  21.9494548  86.8040832
  44.3215625   9.9966507  83.3256108  45.2333481  10.2293893  83.1503806
  43.8125272  10.5803551  82.7631187  46.8074439  15.9146763  88.0714053
  46.1225477  16.2945664  87.5211087  46.8918288  16.5242089  88.8046001
  53.2677191  12.7817426  89.1916726  52.5140900  12.2124824  89.0360730
  53.4024733  12.7480090  90.1387360  38.6575819  17.6530828  84.8671445
  38.5221494  18.4982364  85.2956293  39.1985632  17.8550106  84.1037379
  41.9718566  11.1670001  81.9042774  41.4565189  11.9374606  82.1431161
  41.6995874  10.4935137  82.5275835  46.9452840  13.9202356  83.8395947
  46.1682283  13.5813515  83.3951109  47.6244321  13.9254979  83.1650912
  38.3503901  13.0167527  78.3830482  37.4430963  12.7856780  78.5821631
  38.8474933  12.2205146  78.5704463  41.2571980  21.7265034  81.3027168
  40.5833679  22.0296731  81.9112126  41.6437802  22.5294114  80.9532625
  39.5292134  13.1180122  82.9054472  38.6203354  12.8339154  83.0026942
  39.5587218  13.5379200  82.0457779  44.7611402  16.7286711  86.6745640
  44.3073729  15.8877621  86.7310830  44.1305368  17.3648109  87.0120420
  43.2044341  18.5663208  87.6095458  43.4967315  19.1268265  86.8907823
  43.7142962  18.8591769  88.3648617  39.2268222  14.6588865  80.2442551
  38.7887652  13.9424724  79.7848188  39.9678663  14.8864980  79.6827642
  47.3441337  12.9346062  86.3018869  47.2059236  13.1247658  85.3740058
  46.9877556  13.6965445  86.7586920  39.4563195  21.8944706  83.5174247
  39.6314951  21.4232750  84.3319870  38.7695983  22.5210473  83.7455508
  43.3479450  13.5173247  79.8374608  42.7308620  12.7920075  79.7407661
  42.8795938  14.2782607  79.4941682  35.1377996   7.7358671  78.9595912
  34.2607462   7.6147472  78.5958159  35.6135749   6.9444749  78.7074801
  38.3241922  20.0884962  86.2058433  37.5409444  20.6306642  86.2996657
  39.0234667  20.6058941  86.6052674  42.7168352  14.6551278  86.4231062
  41.7824631  14.7752741  86.2535766  42.8945021  13.7523745  86.1591072
  44.1717135  16.8412419  83.9567248  44.4476979  16.7269013  84.8661122
  43.3021634  16.4429904  83.9179421  40.8071199  21.0898770  87.6000062
  40.9893594  20.2720426  88.0627814  41.6304185  21.3066462  87.1624952
  41.1413364  20.0166955  84.8615110  41.6701131  19.5059409  84.2485272
  41.4041584  19.7009485  85.7260643  44.2353548  19.9883753  85.4770093
  44.4090426  19.4230175  84.7243945  44.7282439  20.7884648  85.2949583
  50.0892939  12.7520176  87.0960393  50.5324085  12.0027501  86.6979516
  49.2119449  12.7430312  86.7134125  45.2228720  19.3050517  82.5766991
  45.9179625  19.9257210  82.7954306  45.5651871  18.4545869  82.8519369
  47.1220144  16.7550223  84.1054322  47.6471468  17.0937496  83.3803642
  47.0342496  15.8197238  83.9217457  38.8060804  22.8222206  88.4649575
  38.3665795  22.3298585  89.1582432  39.5568921  22.2795174  88.2241650
  35.8148183  16.9164139  84.0130337  35.9636304  17.5999603  83.3597010
  36.6214627  16.8969229  84.5279793  49.6325804  14.2225414  89.4882840
  50.4672695  14.6615218  89.6520401  49.7684933  13.7464067  88.6691086
  39.3143589  19.4112269  81.4842085  38.7417556  20.0302456  81.0312557
  39.8876383  19.9611631  82.0182007  42.5340849  19.6949419  82.6150667
  43.4671522  19.6294981  82.8183543  42.4464062  20.5305686  82.1565200
  45.1628865  19.0115290  79.5754615  45.0842497  18.6775153  80.4690373
  45.9838532  19.5037057  79.5746087  39.6990387  10.7473082  78.8258137
  40.6449492  10.6179290  78.8946555  39.3204632  10.0087744  79.3027566
  37.8833305   8.6723058  78.7613023  36.9764760   8.3756171  78.8375736
  38.1609286   8.3752876  77.8947309  36.6532089   5.5309993  78.9025002
  37.5151253   5.8564892  79.1620819  36.8382433   4.7441489  78.3898068
  42.7332817  16.3283285  79.1964593  43.4368667  16.5333287  79.8122249
  42.0095466  16.8960047  79.4613677  43.5630627  12.0793146  85.3166863
  43.5065829  12.5361698  84.4774496  44.1158970  11.3183831  85.1389706
  44.6419515  16.7665814  81.2463053  45.4765119  16.3347013  81.0640528
  44.4803858  16.5947828  82.1739948  44.2965407  13.2697927  82.6119392
  44.2414211  13.1042199  81.6707837  43.6711462  13.9773960  82.7681582
  53.2703790  27.2835465  91.3418230  53.9082200  27.1642213  90.6381570
  53.1524633  28.2316309  91.4006182  50.0793496  27.2362893  91.2779755
  49.7412007  27.1203958  90.3900289  50.9483264  26.8354058  91.2580761
  45.9380312  29.0898370  87.2676645  45.3745177  28.9988307  86.4992933
  45.8232707  28.2698274  87.7479138  50.5613279  28.3897745  97.2365960
  50.5501920  27.9950543  96.3646464  50.7233918  27.6563818  97.8299732
  43.4844744  30.5849561  90.1060866  44.2766036  30.2440386  89.6907165
  43.7241394  30.6944536  91.0263019  51.5179870  32.7569337  82.5791110
  50.8667850  33.3423418  82.1925124  52.3124233  33.2875532  82.6386148
  45.4435498  29.8458475  82.9778245  46.2166374  29.2987462  82.8391121
  45.7960896  30.7102724  83.1892706  47.2820540  31.1734857  96.1845144
  46.9910406  32.0780488  96.0691810  47.9177524  31.2151385  96.8989214
  48.2076747  28.5511705  92.7746504  48.8040319  28.3267728  92.0603467
  48.2651718  27.8096451  93.3771952  47.7801775  26.0051141  80.6096695
  48.0327296  25.4832662  79.8480158  46.8426334  25.8417286  80.7123378
  52.8245058  25.0086919  88.4171438  53.6108147  24.5906342  88.0661855
  53.0883762  25.9133011  88.5853086  52.9955136  30.4459769  83.1160095
  52.3600969  30.5194396  83.8280999  52.6652542  31.0353368  82.4379174
  58.2253485  24.9462152  89.3204416  58.9578657  24.3761369  89.5542246
  57.4692841  24.5583753  89.7610922  47.4998064  27.9079247  82.8121070
  47.3834322  27.2324150  83.4802154  47.6100324  27.4211621  81.9953223
  49.8429605  27.3689394  86.5167759  49.4787812  26.8420015  87.2280680
  50.6996721  26.9787863  86.3434244  55.7478906  18.6583726  93.7799025
  55.4162230  19.5279137  93.5560240  55.1524519  18.3420010  94.4593055
  49.4835092  22.3979293  81.5129107  49.6509494  23.2659530  81.8799578
  49.2932261  22.5606575  80.5890397  52.2410425  30.8596272  93.1794938
  51.9411148  31.7621311  93.0710745  51.8961485  30.5928456  94.0316091
  45.6922907  27.3110069  89.2131642  44.7673403  27.1786283  89.4209334
  45.9407320  28.0904288  89.7101585  55.6407569  23.3778813  90.8592375
  54.7324446  23.3094221  90.5651136  55.5895165  23.8550758  91.6874201
  49.4624313  24.8536951  82.4975774  49.3423938  25.2994002  83.3361254
  48.7676901  25.2022269  81.9389312  43.0531718  26.9543343  90.0475431
  43.1824099  27.2077822  90.9614843  42.3729169  27.5471051  89.7280086
  47.2231205  37.6240593  86.1465905  47.1455235  38.5748418  86.2254386
  46.6192849  37.2786465  86.8040832  57.5069215  21.5795251  92.6370249
  56.8643596  21.8727784  91.9910044  57.0024144  21.4648171  93.4423446
  55.1609379  25.3258424  83.3256108  56.0727235  25.5585811  83.1503806
  54.6519026  25.9095468  82.7631187  53.4450147  29.7483052  96.9617401
  53.8533503  29.3065463  96.2172033  52.7227408  29.1735680  97.2151594
  49.7981217  24.6855659  94.3350958  50.6442412  25.1095072  94.4785607
  49.7379854  24.0289283  95.0289521  53.7678961  30.3084243  90.7169690
  53.1387824  30.4729957  90.0145758  53.3804623  30.7225852  91.4880654
  57.6468193  31.2438680  88.0714053  56.9619231  31.6237582  87.5211087
  57.7312043  31.8534007  88.8046001  54.9019125  28.8898640  94.6709397
  55.1136020  29.5330399  93.9943778  54.8548873  28.0560956  94.2031327
  52.5045354  21.5016460  91.5745969  51.6429833  21.7997714  91.8662707
  52.5307788  21.7186859  90.6427002  49.3206923  30.0458651  87.9819775
  49.7845269  30.3246354  87.1924397  49.0563721  29.1442095  87.7992865
  46.2131004  29.5930132  90.9199538  46.7832361  30.0217401  90.2817023
  46.8039116  29.3112717  91.6183724  48.2575809  26.1681803  84.7909340
  48.9599853  26.6202847  85.2583266  47.9256438  25.5265622  85.4189233
  42.0001143  24.4265356  90.0926474  41.2100197  24.6822884  89.6166584
  42.4912391  25.2413694  90.1978514  56.0164953  31.7670595  92.8431754
  56.8382397  31.3650782  92.5614436  56.0127356  31.6638829  93.7947870
  43.9515889  24.7909935  87.0509950  43.1547052  24.9028629  87.5693446
  43.7241481  25.1296587  86.1850841  49.7821556  31.3154638  94.9992465
  49.8465989  31.7775045  95.8350637  49.0732480  30.6852003  95.1274775
  64.1070946  28.1109343  89.1916726  63.3534654  27.5416741  89.0360730
  64.2418487  28.0772008  90.1387360  49.4969574  32.9822746  84.8671445
  49.3615249  33.8274281  85.2956293  50.0379386  33.1842023  84.1037379
  42.9498971  30.4998184  85.4399370  43.4623492  31.2941434  85.5904935
  43.6021684  29.8024474  85.3732972  44.7593856  33.6163940  87.5222123
  44.9360484  34.5381905  87.3343107  45.5550690  33.3022359  87.9516503
  51.1238050  33.6046312  98.9971787  50.6801904  32.8182691  98.6792692
  51.7855264  33.7925463  98.3315678  45.8825171  35.1342114  93.5232466
  46.4332597  35.0059177  92.7509460  45.0436647  35.4337003  93.1727359
  53.2219288  33.8849112  97.0253189  53.2037764  34.7057993  96.5333458
  54.1439208  33.7603187  97.2503330  49.6792343  31.3993242  97.8676697
  50.2120679  30.6381530  97.6376005  49.1506424  31.1066893  98.6100851
  40.9147888  28.8286838  86.2158941  41.7523110  29.2383846  85.9992648
  41.0926156  27.8886280  86.1859135  52.8112320  26.4961919  81.9042774
  52.2958944  27.2666523  82.1431161  52.5389629  25.8227055  82.5275835
  50.3959431  21.3411619  86.9628012  49.5401028  20.9518470  86.7833651
  50.8086383  21.4203580  86.1027798  51.9258578  18.8757963  91.3619572
  51.4223373  18.8388098  90.5487377  52.2189185  19.7850705  91.4216229
  48.1701464  18.9596692  90.3685754  49.0354461  18.7639501  90.0091643
  48.2378973  18.7307044  91.2955110  57.7846594  29.2494273  83.8395947
  57.0076037  28.9105433  83.3951109  58.4638075  29.2546897  83.1650912
  52.5998623  24.3689011  83.7302555  52.2948759  24.6835160  84.5812698
  53.5529065  24.4470431  83.7729888  51.0445055  30.5279234  85.3795509
  50.5166417  29.7931994  85.0668746  50.5432558  31.3053910  85.1335477
  56.0237901  28.7228255  90.4962555  55.3661576  29.4127516  90.5842684
  56.8278300  29.1124687  90.8396542  45.7763783  21.1898900  87.7402120
  46.3507535  20.9674082  87.0075313  46.3634765  21.2587595  88.4930722
  54.8343360  27.0772627  88.5466497  55.3475242  27.7102619  89.0488207
  55.4844584  26.4773823  88.1809857  46.1033370  23.2203361  81.7598006
  45.2670682  23.5578048  82.0807280  45.9638140  23.0852341  80.8225143
  48.0786451  18.0640149  86.4677190  47.4250863  17.7489166  85.8433805
  48.0366925  17.4415890  87.1937013  49.1897655  28.3459444  78.3830482
  48.2824717  28.1148698  78.5821631  49.6868687  27.5497064  78.5704463
  52.0965734  37.0556952  81.3027168  51.4227433  37.3588648  81.9112126
  52.4831556  37.8586032  80.9532625  51.3124191  24.5522083  90.7924837
  50.3946752  24.7737030  90.6346526  51.7284335  24.6268393  89.9336545
  52.0959239  25.9513499  85.9227518  52.8431058  26.4634896  85.6134640
  52.3650828  25.6297551  86.7831911  50.3685889  28.4472039  82.9054472
  49.4597108  28.1631072  83.0026942  50.3980973  28.8671118  82.0457779
  55.6005156  32.0578629  86.6745640  55.1467483  31.2169539  86.7310830
  54.9699123  32.6940027  87.0120420  54.5438076  22.9870615  87.9046307
  53.8060833  22.4748001  88.2356550  54.7964849  22.5470996  87.0929584
  54.0438095  33.8955125  87.6095458  54.3361070  34.4560183  86.8907823
  54.5536716  34.1883686  88.3648617  54.6449703  15.7646867  88.4988076
  54.9508580  14.9044230  88.2113991  55.3702308  16.3564487  88.2987070
  40.9374059  26.1677553  86.8869674  40.7398459  25.5746914  86.1620741
  40.3820723  25.8629764  87.6045613  48.9170783  26.0600660  89.0064267
  48.9719393  25.1074496  88.9306744  48.1061985  26.2160099  89.4905566
  50.0661977  29.9880783  80.2442551  49.6281407  29.2716642  79.7848188
  50.8072417  30.2156898  79.6827642  46.8563143  24.6777720  86.7654646
  46.0431008  24.9771890  87.1719838  47.3522137  24.2833408  87.4829128
  49.0071721  34.6735477  88.6988911  48.9647899  34.8996323  87.7697443
  49.9234420  34.4398851  88.8474712  52.4537354  25.1419544  95.5969540
  52.8086742  25.3691017  96.4564006  53.1009486  25.4737921  94.9746795
  58.1835091  28.2637980  86.3018869  58.0452990  28.4539576  85.3740058
  57.8271310  29.0257363  86.7586920  46.3477218  22.2496075  92.3815881
  46.9876597  22.1084834  91.6838845  45.5154748  21.9630589  92.0054483
  58.2104471  30.3314507  91.3130141  58.6440978  30.2389796  92.1613195
  58.9236052  30.3072007  90.6750157  47.1237521  31.5498506  88.4950874
  47.9178120  31.0548826  88.2933449  46.4129214  31.0216369  88.1318579
  51.9432366  33.9316601  92.8463241  51.9969388  34.5007537  93.6140957
  51.0747147  34.1018486  92.4817278  43.4320285  25.6941587  84.5710626
  42.5017873  25.6326043  84.7880588  43.5277757  25.1717540  83.7747268
  43.3505834  22.2196400  87.1588868  43.6112651  23.1341733  87.0498028
  44.1723006  21.7520843  87.3085481  59.0720021  30.3738208  93.8463026
  59.2655911  31.2784018  94.0922301  58.9720639  29.9145627  94.6801611
  54.1335129  30.5244950  99.4203907  53.9820636  30.2955502  98.5033990
  54.1239809  31.4815552  99.4335252  50.9020466  28.0976863  94.4050173
  51.8312526  28.2488023  94.2319140  50.4811496  28.1860884  93.5498820
  49.7008797  32.1227528  92.1748711  49.5619883  31.7546312  93.0474649
  48.9123394  32.6375167  92.0032669  50.2956949  37.2236624  83.5174247
  50.4708705  36.7524667  84.3319870  49.6089737  37.8502390  83.7455508
  51.2514013  31.5009130  89.5637549  50.9163845  31.4609900  90.4595198
  50.7517958  30.8353846  89.0907959  54.1873204  28.8465165  79.8374608
  53.5702375  28.1211993  79.7407661  53.7189693  29.6074525  79.4941682
  47.8540557  26.6196720  94.5773809  48.5640176  25.9789912  94.5360428
  47.8109865  26.8709614  95.4999990  55.8427336  33.5564073  97.4980389
  55.7839882  32.8723293  96.8310972  56.2446854  34.2983063  97.0461015
  44.8618035  40.3725987  90.2914107  45.1014633  41.0044511  90.9693126
  44.0187231  40.0214027  90.5779467  45.9771750  23.0650589  78.9595912
  45.1001216  22.9439390  78.5958159  46.4529503  22.2736667  78.7074801
  55.8444743  31.5203657  95.7294368  54.9571522  31.1829579  95.8520767
  56.4143294  30.7886688  95.9663134  37.4973890  27.8527749  89.0537420
  38.1844930  27.5389479  88.4658435  37.3422019  28.7569113  88.7804671
  49.3745897  36.1805109  92.6955611  49.3016068  36.9860081  93.2074916
  48.9323290  36.3797075  91.8703633  49.1635676  35.4176879  86.2058433
  48.3803198  35.9598559  86.2996657  49.8628421  35.9350859  86.6052674
  52.4732326  21.2271509  88.8492638  52.9701026  20.4741471  88.5293709
  51.7019308  21.2635825  88.2835848  60.3262084  26.9311874  90.4910930
  60.3151960  27.8136590  90.1204863  59.4579463  26.5783425  90.2965467
  51.8344580  36.0791943  94.8513770  52.5472552  36.7139408  94.7789672
  51.3434609  36.1755809  94.0353772  53.5562107  29.9843196  86.4231062
  52.6218386  30.1044658  86.2535766  53.7338775  29.0815663  86.1591072
  49.0567295  23.3688892  88.5764323  48.6865083  22.8159932  89.2645229
  49.5526388  22.7647025  88.0239323  56.9434658  25.8260515  86.9581096
  57.4095111  26.6588507  86.8841399  57.3942159  25.3605497  87.6626354
  46.8856494  33.8286387  95.6719341  47.5865953  34.4622870  95.8248735
  46.4151609  34.1701118  94.9114980  55.0110889  32.1704336  83.9567248
  55.2870733  32.0560931  84.8661122  54.1415388  31.7721821  83.9179421
  54.9151321  18.1941102  90.9971997  54.0014401  18.4245329  91.1654204
  55.3444423  18.2779546  91.8486030  54.6857780  26.3830994  93.4971891
  54.0329230  26.6306902  92.8424344  55.0638159  25.5695132  93.1634369
  51.6464953  36.4190687  87.6000062  51.8287348  35.6012343  88.0627814
  52.4697939  36.6358380  87.1624952  51.9807119  35.3458872  84.8615110
  52.5094885  34.8351327  84.2485272  52.2435339  35.0301403  85.7260643
  42.4824212  33.3622742  92.6050444  43.0677648  32.6166430  92.7378348
  42.2849050  33.6726698  93.4887107  45.3362867  36.3973989  87.6212886
  44.6673242  36.8820117  87.1376926  45.1975737  36.6443210  88.5356265
  49.4768135  38.4317733  94.2195544  50.0286444  38.5949354  94.9844630
  49.8174329  39.0222170  93.5475569  54.3279010  33.2578990 100.0744199
  54.8718914  33.8708948  99.5799154  53.7465855  33.8158569 100.5911212
  40.7050444  24.6592444  84.4008818  41.0003885  23.7503123  84.3475872
  39.8038480  24.6380184  84.0789820  52.6136523  36.3799708  91.2059227
  52.4887662  35.5789448  90.6970172  53.2715614  36.8745902  90.7173196
  44.2344691  22.7348441  90.3836367  43.5131277  23.3484408  90.2443840
  45.0237947  23.2706206  90.3053013  54.6771431  34.1808728  92.8338777
  53.7301767  34.0614079  92.7617103  55.0254204  33.2931226  92.9165038
  42.4338286  22.3406542  84.5248143  42.1050992  21.4603921  84.3423249
  42.7877656  22.2854210  85.4124533  51.6817864  33.9761444  89.0343129
  51.5342827  33.0478152  89.2150699  52.5071358  33.9981535  88.5500204
  45.5480109  22.6279512  84.8923621  45.8876181  23.1565433  84.1702229
  45.9952229  22.9659918  85.6682188  55.2851986  34.7990003  90.1208002
  56.2098534  34.5932865  89.9832453  55.1167290  34.5506404  91.0297343
  47.5348256  21.1254133  83.0916914  48.2556618  21.5035386  82.5880631
  46.9113560  21.8443010  83.1951892  51.6779379  21.8299282  84.0275246
  51.8942993  22.7123920  83.7264074  51.1973446  21.4385496  83.2980888
  46.4178600  24.7884995  90.6045991  46.2723181  25.1025298  91.4970272
  45.9403804  25.4069896  90.0516889  48.2774983  21.7787543  90.6526880
  48.2636552  20.8828637  90.3159178  48.9947411  21.7858207  91.2865166
  50.1301114  22.2124884  92.6980008  49.8718892  23.1341954  92.6964338
  49.5986154  21.8155318  93.3880472  55.0747303  35.3175671  85.4770093
  55.2484180  34.7522093  84.7243945  55.5676194  36.1176566  85.2949583
  40.8924262  27.3290340  93.5433652  40.3477730  28.1050148  93.6753926
  41.7703612  27.6761144  93.3852773  47.6811879  20.6601924  85.9214450
  47.8027790  19.7318570  86.1205338  47.3913921  20.6740610  85.0092766
  50.5503069  18.3456834  89.0581170  50.5724766  18.4096167  88.1033150
  50.9671128  17.5061343  89.2521676  60.9286694  28.0812094  87.0960393
  61.3717840  27.3319419  86.6979516  60.0513204  28.0722230  86.7134125
  56.0622475  34.6342435  82.5766991  56.7573380  35.2549128  82.7954306
  56.4045625  33.7837786  82.8519369  57.9613898  32.0842141  84.1054322
  58.4865222  32.4229413  83.3803642  57.8736251  31.1489156  83.9217457
  49.6233947  35.9976214  96.2344199  49.9321073  35.7525361  97.1066898
  50.4209429  36.2022853  95.7463069  49.6454559  38.1514124  88.4649575
  49.2059549  37.6590503  89.1582432  50.3962676  37.6087092  88.2241650
  42.1246898  34.3425665  88.4674203  42.9504918  34.0429437  88.0872847
  41.7740950  33.5733287  88.9163992  47.0928431  33.6952133  90.5371877
  46.4708440  33.0322838  90.2374105  47.7633298  33.7213265  89.8545525
  40.3255503  32.2611991  89.4263137  39.4887411  31.8334166  89.2447138
  40.2979148  32.4544435  90.3633928  57.6507804  32.7175044  99.4105520
  56.8603348  32.6999183  98.8710019  57.4141159  33.2563338 100.1654557
  57.7705679  29.5667511  96.7238249  57.8203684  29.4017518  97.6653771
  57.6619603  28.6994770  96.3336129  46.6541938  32.2456056  84.0130337
  46.8030058  32.9291521  83.3597010  47.4608381  32.2261146  84.5279793
  59.2723876  31.9864452  96.9680270  58.9808684  32.3494433  97.8043731
  58.6596007  31.2731460  96.7893602  60.4719558  29.5517332  89.4882840
  61.3066450  29.9907136  89.6520401  60.6078687  29.0755985  88.6691086
  57.5211064  27.1097067  95.4360328  57.9965186  27.3024713  94.6279179
  56.5976630  27.1656253  95.1903712  44.4094571  28.2721234  85.0191406
  44.1640613  27.3683564  85.2171617  44.5790485  28.2738384  84.0770884
  43.6790218  24.0049592  82.5177568  42.9859463  24.0793946  81.8617604
  43.4341970  23.2409935  83.0399085  52.3503875  15.5645193  89.9217059
  52.6305629  14.8968382  90.5477485  53.1354482  15.7574288  89.4091722
  50.1537343  34.7404187  81.4842085  49.5811311  35.3594374  81.0312557
  50.7270137  35.2903548  82.0182007  56.2212733  23.9862827  93.6688634
  57.1730156  24.0860925  93.6900858  56.0516184  23.1941095  94.1786718
  54.2427113  21.0718410  93.8548035  53.6477045  21.3523423  93.1594523
  53.9576809  21.5612311  94.6264776  53.3734603  35.0241337  82.6150667
  54.3065276  34.9586899  82.8183543  53.2857816  35.8597604  82.1565200
  56.0022620  34.3407207  79.5754615  55.9236251  34.0067071  80.4690373
  56.8232287  34.8328975  79.5746087  58.7000811  27.2068947  92.7830933
  58.6677131  26.2684947  92.9690617  59.3101435  27.2852983  92.0496758
  50.5384142  26.0765000  78.8258137  51.4843247  25.9471208  78.8946555
  50.1598387  25.3379661  79.3027566  58.8495300  23.9979990  92.8289217
  58.3334348  23.2138447  92.6419145  59.7335248  23.6698707  92.9935736
  56.5106026  17.7421006  88.7885029  56.3130848  17.4336094  89.6728361
  57.1205732  18.4682644  88.9182959  64.5177361  28.2684953  91.9236970
  65.2480749  28.0070241  92.4844673  63.9084306  27.5313675  91.9639038
  62.5992658  26.4092816  92.5211421  61.8725822  26.2748781  91.9127913
  62.1839945  26.7169645  93.3268139  48.7227059  24.0014976  78.7613023
  47.8158514  23.7048089  78.8375736  49.0003040  23.7044794  77.8947309
  39.6404999  25.3221339  89.2112069  39.3207784  24.4686647  88.9186443
  39.0938428  25.5369917  89.9670036  43.4184907  28.0383780  92.9281576
  43.6370917  28.9700888  92.9469609  43.8310681  27.6791755  93.7136379
  50.3389125  18.5451866  84.9157264  49.5289853  18.1998951  85.2912510
  51.0273542  18.2359409  85.5044875  52.2679673  17.6229912  86.5381561
  52.8210712  18.0425366  87.1971584  52.5049759  16.6965661  86.5804517
  47.4925844  20.8601911  78.9025002  48.3545008  21.1856809  79.1620819
  47.6776188  20.0733407  78.3898068  39.5093259  28.9424251  91.1805191
  38.8156731  28.5278204  90.6675145  40.2566250  28.9844787  90.5838609
  55.6458480  19.7330438  86.0460225  55.0657149  20.3915242  85.6638277
  55.3794413  18.9107782  85.6347642  54.0962047  19.1335495  88.2481545
  54.5961825  19.2452030  87.4395864  54.7397654  18.8296548  88.8882354
  41.4230002  28.8742505  89.0571205  41.4000690  28.9730192  88.1053089
  41.7330638  29.7207655  89.3788372  44.0817380  30.9318660  93.1717820
  45.0360633  30.9002602  93.1047751  43.8829903  30.4709283  93.9868046
  44.6716762  29.5019776  95.7388618  45.4909651  29.9963854  95.7623455
  44.9453570  28.5851744  95.7106185  54.4283358  21.8930528  85.1016573
  53.5409213  22.1780179  84.8836768  54.8437347  21.7324291  84.2543850
  57.7797894  21.9177049  88.8170912  58.5558284  22.4073501  89.0895529
  57.0546029  22.3435103  89.2742782  60.2170453  22.6304668  89.8744853
  60.8114944  22.3900404  89.1638161  60.2897037  21.9111799  90.5018389
  42.4367609  36.4738279  90.1888018  42.3022077  35.7138680  89.6226016
  42.0199671  37.1979179  89.7216807  53.5726572  31.6575203  79.1964593
  54.2762422  31.8625205  79.8122249  52.8489220  32.2251965  79.4613677
  54.4024382  27.4085064  85.3166863  54.3459583  27.8653615  84.4774496
  54.9552724  26.6475748  85.1389706  58.2129188  23.1974796  86.1416983
  57.9566122  22.7971431  86.9725190  57.5882056  23.9118590  86.0167122
  62.5241526  25.9370869  88.6488274  61.9641084  26.0064058  89.4219836
  61.9185029  25.7611854  87.9287770  45.5936735  37.3707596  90.4006460
  45.4769119  38.3153029  90.2985151  44.7729181  37.0681158  90.7892260
  55.4813269  32.0957732  81.2463053  56.3158873  31.6638930  81.0640528
  55.3197612  31.9239746  82.1739948  55.1359161  28.5989845  82.6119392
  55.0807965  28.4334117  81.6707837  54.5105217  29.3065878  82.7681582
  48.4455287  18.0997954  82.1904711  48.4333957  19.0439794  82.3472982
  49.3378709  17.9168100  81.8964172  46.6191249  38.0235858  93.6162389
  47.5218495  38.0559468  93.9328884  46.3928619  37.0936309  93.6308725
  48.3744851  36.7766845  90.2772467  47.4240482  36.7768706  90.1636840
  48.6777337  36.0299579  89.7608502  52.2607406  14.6940731  86.4450648
  51.4939802  14.1399217  86.5907330  52.6718111  14.7662600  87.3064799
  64.1097544  42.6127383  91.3418230  64.7475954  42.4934130  90.6381570
  63.9918387  43.5608227  91.4006182  60.9187250  42.5654811  91.2779755
  60.5805762  42.4495876  90.3900289  61.7877019  42.1645976  91.2580761
  56.7774066  44.4190287  87.2676645  56.2138931  44.3280224  86.4992933
  56.6626461  43.5990192  87.7479138  61.4007033  43.7189663  97.2365960
  61.3895674  43.3242461  96.3646464  61.5627673  42.9855735  97.8299732
  54.3238498  45.9141479  90.1060866  55.1159790  45.5732304  89.6907165
  54.5635148  46.0236454  91.0263019  62.3573625  48.0861255  82.5791110
  61.7061605  48.6715336  82.1925124  63.1517988  48.6167450  82.6386148
  56.2829252  45.1750392  82.9778245  57.0560128  44.6279379  82.8391121
  56.6354651  46.0394642  83.1892706  58.1214295  46.5026775  96.1845144
  57.8304161  47.4072405  96.0691810  58.7571279  46.5443302  96.8989214
  59.0470501  43.8803623  92.7746504  59.6434074  43.6559645  92.0603467
  59.1045473  43.1388369  93.3771952  58.6195530  41.3343058  80.6096695
  58.8721051  40.8124580  79.8480158  57.6820089  41.1709204  80.7123378
  63.6638813  40.3378837  88.4171438  64.4501902  39.9198260  88.0661855
  63.9277517  41.2424929  88.5853086  63.8348890  45.7751687  83.1160095
  63.1994723  45.8486314  83.8280999  63.5046296  46.3645286  82.4379174
  69.0647240  40.2754070  89.3204416  69.7972412  39.7053287  89.5542246
  68.3086595  39.8875670  89.7610922  58.3391819  43.2371164  82.8121070
  58.2228077  42.5616068  83.4802154  58.4494078  42.7503538  81.9953223
  60.6823360  42.6981311  86.5167759  60.3181567  42.1711932  87.2280680
  61.5390475  42.3079781  86.3434244  66.5872660  33.9875644  93.7799025
  66.2555985  34.8571055  93.5560240  65.9918274  33.6711928  94.4593055
  60.3228846  37.7271211  81.5129107  60.4903249  38.5951448  81.8799578
  60.1326016  37.8898493  80.5890397  63.0804180  46.1888190  93.1794938
  62.7804903  47.0913229  93.0710745  62.7355239  45.9220373  94.0316091
  56.5316661  42.6401987  89.2131642  55.6067158  42.5078201  89.4209334
  56.7801074  43.4196206  89.7101585  66.4801323  38.7070730  90.8592375
  65.5718201  38.6386139  90.5651136  66.4288919  39.1842675  91.6874201
  60.3018067  40.1828869  82.4975774  60.1817693  40.6285919  83.3361254
  59.6070656  40.5314186  81.9389312  53.8925472  42.2835260  90.0475431
  54.0217853  42.5369739  90.9614843  53.2122923  42.8762968  89.7280086
  58.0624959  52.9532510  86.1465905  57.9848989  53.9040336  86.2254386
  57.4586603  52.6078383  86.8040832  60.5542189  40.1260376  98.8027272
  59.7775523  40.6854296  98.7930137  61.1932752  40.6117159  99.3242142
  68.3462970  36.9087169  92.6370249  67.7037350  37.2019702  91.9910044
  67.8417898  36.7940089  93.4423446  66.0003134  40.6550342  83.3256108
  66.9120990  40.8877729  83.1503806  65.4912781  41.2387386  82.7631187
  58.8088562  42.9345829  98.3645239  59.5503246  43.4730873  98.0880063
  58.1025547  43.5612118  98.5216791  64.2843901  45.0774970  96.9617401
  64.6927257  44.6357380  96.2172033  63.5621163  44.5027597  97.2151594
  60.6374971  40.0147576  94.3350958  61.4836166  40.4386990  94.4785607
  60.5773609  39.3581201  95.0289521  64.6072716  45.6376160  90.7169690
  63.9781578  45.8021874  90.0145758  64.2198378  46.0517770  91.4880654
  68.4861948  46.5730598  88.0714053  67.8012986  46.9529500  87.5211087
  68.5705797  47.1825925  88.8046001  63.7874417  37.6751945  95.9932131
  63.5435348  38.4294005  95.4566407  64.0634347  38.0537292  96.8279378
  65.7412879  44.2190557  94.6709397  65.9529775  44.8622317  93.9943778
  65.6942628  43.3852874  94.2031327  63.3439108  36.8308378  91.5745969
  62.4823587  37.1289631  91.8662707  63.3701543  37.0478777  90.6427002
  60.1600678  45.3750568  87.9819775  60.6239023  45.6538271  87.1924397
  59.8957476  44.4734013  87.7992865  57.0524759  44.9222050  90.9199538
  57.6226116  45.3509318  90.2817023  57.6432871  44.6404635  91.6183724
  59.0969564  41.4973721  84.7909340  59.7993607  41.9494764  85.2583266
  58.7650192  40.8557540  85.4189233  57.5449925  40.0885477  99.1660549
  56.9148586  40.7701758  99.3995946  57.4386013  39.9768559  98.2213688
  52.8394898  39.7557273  90.0926474  52.0493952  40.0114802  89.6166584
  53.3306145  40.5705611  90.1978514  66.8558707  47.0962513  92.8431754
  67.6776151  46.6942700  92.5614436  66.8521110  46.9930747  93.7947870
  54.7909643  40.1201853  87.0509950  53.9940806  40.2320547  87.5693446
  54.5635235  40.4588505  86.1850841  60.6215311  46.6446556  94.9992465
  60.6859743  47.1066963  95.8350637  59.9126235  46.0143921  95.1274775
  51.1232601  40.0087764  92.5241464  51.3740639  40.8934774  92.7899040
  51.6592149  39.8292365  91.7516556  74.9464700  43.4401261  89.1916726
  74.1928409  42.8708659  89.0360730  75.0812242  43.4063926  90.1387360
  60.3363328  48.3114663  84.8671445  60.2009003  49.1566199  85.2956293
  60.8773141  48.5133941  84.1037379  56.8230668  34.3906243 101.5285800
  56.4297614  33.8372442 102.2033445  57.6396808  34.7016822 101.9192318
  53.7892726  45.8290101  85.4399370  54.3017246  46.6233352  85.5904935
  54.4415439  45.1316392  85.3732972  55.5987610  48.9455858  87.5222123
  55.7754239  49.8673822  87.3343107  56.3944444  48.6314277  87.9516503
  59.7398629  35.8064122  99.1206057  60.4808342  36.4071275  99.0410519
  59.9716552  35.0641760  98.5624100  54.8839967  40.9920490  97.3984287
  54.7693482  40.0905747  97.6991386  54.0284485  41.2384186  97.0469103
  61.9631805  48.9338230  98.9971787  61.5195659  48.1474608  98.6792692
  62.6249018  49.1217380  98.3315678  56.7218926  50.4634031  93.5232466
  57.2726351  50.3351095  92.7509460  55.8830402  50.7628921  93.1727359
  64.0613043  49.2141030  97.0253189  64.0431518  50.0349911  96.5333458
  64.9832963  49.0895105  97.2503330  60.5186097  46.7285159  97.8676697
  61.0514434  45.9673447  97.6376005  59.9900178  46.4358811  98.6100851
  63.6855792  31.8345225  93.3970339  63.3420061  32.7246867  93.3209449
  64.0534755  31.6446883  92.5339924  51.7541643  44.1578756  86.2158941
  52.5916865  44.5675764  85.9992648  51.9319910  43.2178198  86.1859135
  63.6506075  41.8253836  81.9042774  63.1352698  42.5958441  82.1431161
  63.3783383  41.1518973  82.5275835  61.2353186  36.6703537  86.9628012
  60.3794782  36.2810388  86.7833651  61.6480137  36.7495498  86.1027798
  62.7652332  34.2049880  91.3619572  62.2617128  34.1680016  90.5487377
  63.0582939  35.1142623  91.4216229  59.0095218  34.2888610  90.3685754
  59.8748215  34.0931419  90.0091643  59.0772727  34.0598962  91.2955110
  68.6240349  44.5786191  83.8395947  67.8469792  44.2397351  83.3951109
  69.3031830  44.5838814  83.1650912  63.4392378  39.6980928  83.7302555
  63.1342513  40.0127078  84.5812698  64.3922820  39.7762348  83.7729888
  61.8838810  45.8571152  85.3795509  61.3560171  45.1223911  85.0668746
  61.3826312  46.6345828  85.1335477  66.8631656  44.0520172  90.4962555
  66.2055330  44.7419434  90.5842684  67.6672055  44.4416604  90.8396542
  56.6157537  36.5190818  87.7402120  57.1901289  36.2966000  87.0075313
  57.2028520  36.5879513  88.4930722  65.6737115  42.4064545  88.5466497
  66.1868996  43.0394537  89.0488207  66.3238338  41.8065740  88.1809857
  56.9427124  38.5495279  81.7598006  56.1064437  38.8869966  82.0807280
  56.8031894  38.4144259  80.8225143  58.9180205  33.3932067  86.4677190
  58.2644617  33.0781084  85.8433805  58.8760679  32.7707807  87.1937013
  60.0291410  43.6751362  78.3830482  59.1218472  43.4440616  78.5821631
  60.5262442  42.8788981  78.5704463  62.9359489  52.3848869  81.3027168
  62.2621188  52.6880566  81.9112126  63.3225311  53.1877950  80.9532625
  62.1517945  39.8814001  90.7924837  61.2340507  40.1028948  90.6346526
  62.5678089  39.9560311  89.9336545  62.9352993  41.2805416  85.9227518
  63.6824812  41.7926813  85.6134640  63.2044583  40.9589469  86.7831911
  61.2079643  43.7763957  82.9054472  60.2990863  43.4922990  83.0026942
  61.2374727  44.1963035  82.0457779  66.4398911  47.3870546  86.6745640
  65.9861238  46.5461456  86.7310830  65.8092877  48.0231945  87.0120420
  65.3831830  38.3162532  87.9046307  64.6454587  37.8039919  88.2356550
  65.6358604  37.8762914  87.0929584  64.8831850  49.2247043  87.6095458
  65.1754824  49.7852100  86.8907823  65.3930471  49.5175604  88.3648617
  65.4843458  31.0938784  88.4988076  65.7902334  30.2336148  88.2113991
  66.2096062  31.6856405  88.2987070  51.7767814  41.4969471  86.8869674
  51.5792214  40.9038832  86.1620741  51.2214478  41.1921681  87.6045613
  59.7564537  41.3892578  89.0064267  59.8113147  40.4366414  88.9306744
  58.9455739  41.5452017  89.4905566  60.9055731  45.3172701  80.2442551
  60.4675161  44.6008560  79.7848188  61.6466172  45.5448815  79.6827642
  57.6956897  40.0069637  86.7654646  56.8824763  40.3063808  87.1719838
  58.1915891  39.6125326  87.4829128  59.8465475  50.0027394  88.6988911
  59.8041654  50.2288241  87.7697443  60.7628174  49.7690769  88.8474712
  63.2931109  40.4711462  95.5969540  63.6480497  40.6982935  96.4564006
  63.9403240  40.8029839  94.9746795  69.0228846  43.5929898  86.3018869
  68.8846744  43.7831494  85.3740058  68.6665065  44.3549280  86.7586920
  57.1870972  37.5787993  92.3815881  57.8270351  37.4376752  91.6838845
  56.3548503  37.2922506  92.0054483  69.0498226  45.6606425  91.3130141
  69.4834732  45.5681714  92.1613195  69.7629806  45.6363925  90.6750157
  57.9631276  46.8790423  88.4950874  58.7571874  46.3840743  88.2933449
  57.2522968  46.3508286  88.1318579  62.7826120  49.2608519  92.8463241
  62.8363143  49.8299455  93.6140957  61.9140902  49.4310404  92.4817278
  54.2714039  41.0233505  84.5710626  53.3411627  40.9617960  84.7880588
  54.3671511  40.5009458  83.7747268  54.1899588  37.5488318  87.1588868
  54.4506406  38.4633651  87.0498028  55.0116761  37.0812760  87.3085481
  55.6624514  38.9626075  94.3287693  56.3347567  38.7543437  93.6800341
  54.8354300  38.7648161  93.8892925  69.9113775  45.7030125  93.8463026
  70.1049665  46.6075936  94.0922301  69.8114393  45.2437544  94.6801611
  61.5650086  35.5888016  96.3453353  60.9178001  36.2877966  96.2517830
  62.3351101  36.0224160  96.7129602  64.9728884  45.8536868  99.4203907
  64.8214390  45.6247420  98.5033990  64.9633563  46.8107469  99.4335252
  61.7414220  43.4268781  94.4050173  62.6706280  43.5779940  94.2319140
  61.3205250  43.5152802  93.5498820  60.5402552  47.4519445  92.1748711
  60.4013638  47.0838230  93.0474649  59.7517148  47.9667085  92.0032669
  61.1350704  52.5528542  83.5174247  61.3102460  52.0816585  84.3319870
  60.4483492  53.1794308  83.7455508  62.0907767  46.8301048  89.5637549
  61.7557600  46.7901818  90.4595198  61.5911713  46.1645764  89.0907959
  56.0652011  42.2368678  95.0890130  55.9271809  41.5048917  95.6901669
  56.9756935  42.1477578  94.8074317  65.0266959  44.1757082  79.8374608
  64.4096129  43.4503910  79.7407661  64.5583447  44.9366443  79.4941682
  58.6934312  41.9488637  94.5773809  59.4033930  41.3081829  94.5360428
  58.6503620  42.2001532  95.4999990  66.6821090  48.8855991  97.4980389
  66.6233637  48.2015211  96.8310972  67.0840609  49.6274981  97.0461015
  57.4063246  38.9353855  96.3969449  56.8700603  38.4844594  97.0491045
  56.8179954  39.0699764  95.6539913  55.7011789  55.7017904  90.2914107
  55.9408387  56.3336429  90.9693126  54.8580986  55.3505944  90.5779467
  56.8165505  38.3942507  78.9595912  55.9394971  38.2731307  78.5958159
  57.2923258  37.6028585  78.7074801  66.6838498  46.8495575  95.7294368
  65.7965276  46.5121496  95.8520767  67.2537049  46.1178606  95.9663134
  48.3367645  43.1819666  89.0537420  49.0238685  42.8681396  88.4658435
  48.1815773  44.0861031  88.7804671  53.1402367  38.0709863  93.4822443
  53.0560556  37.4635532  92.7472853  52.3185073  38.5618881  93.4831940
  60.2139651  51.5097027  92.6955611  60.1409823  52.3151998  93.2074916
  59.7717044  51.7088993  91.8703633  60.0029431  50.7468797  86.2058433
  59.2196953  51.2890477  86.2996657  60.7022176  51.2642777  86.6052674
  63.3126081  36.5563426  88.8492638  63.8094780  35.8033389  88.5293709
  62.5413062  36.5927743  88.2835848  71.1655838  42.2603792  90.4910930
  71.1545714  43.1428507  90.1204863  70.2973218  41.9075343  90.2965467
  62.6738335  51.4083861  94.8513770  63.3866307  52.0431326  94.7789672
  62.1828363  51.5047727  94.0353772  64.3955861  45.3135114  86.4231062
  63.4612140  45.4336576  86.2535766  64.5732530  44.4107580  86.1591072
  59.8961050  38.6980809  88.5764323  59.5258837  38.1451850  89.2645229
  60.3920142  38.0938943  88.0239323  67.7828413  41.1552433  86.9581096
  68.2488865  41.9880424  86.8841399  68.2335913  40.6897414  87.6626354
  57.7250248  49.1578304  95.6719341  58.4259708  49.7914787  95.8248735
  57.2545363  49.4993036  94.9114980  65.8504644  47.4996254  83.9567248
  66.1264488  47.3852849  84.8661122  64.9809143  47.1013739  83.9179421
  65.7545076  33.5233020  90.9971997  64.8408155  33.7537247  91.1654204
  66.1838177  33.6071464  91.8486030  65.5251534  41.7122912  93.4971891
  64.8722984  41.9598819  92.8424344  65.9031914  40.8987050  93.1634369
  62.4858708  51.7482605  87.6000062  62.6681102  50.9304261  88.0627814
  63.3091694  51.9650297  87.1624952  62.8200873  50.6750790  84.8615110
  63.3488640  50.1643245  84.2485272  63.0829093  50.3593320  85.7260643
  61.5739107  42.4542723  99.9837928  60.8979744  42.3536852 100.6540304
  62.3966741  42.2981937 100.4473926  53.3217966  48.6914659  92.6050444
  53.9071403  47.9458347  92.7378348  53.1242805  49.0018616  93.4887107
  56.1756621  51.7265907  87.6212886  55.5066997  52.2112034  87.1376926
  56.0369491  51.9735127  88.5356265  47.9135621  41.2620260  91.3254887
  47.9519720  40.7283850  92.1192005  47.4075914  40.7355465  90.7065864
  60.3161890  53.7609650  94.2195544  60.8680198  53.9241272  94.9844630
  60.6568083  54.3514088  93.5475569  55.2926383  36.1084800  94.8217429
  55.3567710  36.9699631  94.4094827  55.2293503  35.4958802  94.0889788
  54.7678656  38.1807933  98.4690463  55.3950695  37.7985010  99.0827988
  53.9106575  37.9622135  98.8346156  65.1672764  48.5870908 100.0744199
  65.7112668  49.2000866  99.5799154  64.5859609  49.1450486 100.5911212
  51.5444198  39.9884362  84.4008818  51.8397640  39.0795040  84.3475872
  50.6432234  39.9672101  84.0789820  63.4530277  51.7091626  91.2059227
  63.3281417  50.9081366  90.6970172  64.1109368  52.2037819  90.7173196
  55.0738445  38.0640358  90.3836367  54.3525031  38.6776326  90.2443840
  55.8631701  38.5998123  90.3053013  65.5165186  49.5100646  92.8338777
  64.5695521  49.3905997  92.7617103  65.8647959  48.6223144  92.9165038
  57.8764759  35.3994785  96.6577018  58.3999161  35.6457081  97.4203328
  57.6577092  36.2314820  96.2380156  53.2732040  37.6698459  84.5248143
  52.9444746  36.7895838  84.3423249  53.6271411  37.6146128  85.4124533
  62.5211619  49.3053362  89.0343129  62.3736581  48.3770070  89.2150699
  63.3465112  49.3273453  88.5500204  56.3873863  37.9571429  84.8923621
  56.7269936  38.4857350  84.1702229  56.8345984  38.2951835  85.6682188
  66.1245741  50.1281921  90.1208002  67.0492288  49.9224782  89.9832453
  65.9561044  49.8798322  91.0297343  59.0817304  36.3408480  94.3426689
  58.7414124  35.5416293  94.7447369  58.3756310  36.6410191  93.7703522
  59.7333776  33.4257792  92.7954012  60.5559845  32.9518271  92.6732902
  59.9771839  34.2048276  93.2952698  58.3742010  36.4546051  83.0916914
  59.0950373  36.8327304  82.5880631  57.7507314  37.1734928  83.1951892
  62.5173133  37.1591200  84.0275246  62.7336748  38.0415838  83.7264074
  62.0367200  36.7677413  83.2980888  57.2572355  40.1176913  90.6045991
  57.1116935  40.4317216  91.4970272  56.7797558  40.7361813  90.0516889
  59.1168738  37.1079461  90.6526880  59.1030306  36.2120554  90.3159178
  59.8341166  37.1150125  91.2865166  60.9694868  37.5416801  92.6980008
  60.7112646  38.4633872  92.6964338  60.4379909  37.1447236  93.3880472
  65.9141057  50.6467588  85.4770093  66.0877935  50.0814011  84.7243945
  66.4069948  51.4468483  85.2949583  51.7318017  42.6582257  93.5433652
  51.1871485  43.4342065  93.6753926  52.6097367  43.0053062  93.3852773
  58.5205633  35.9893841  85.9214450  58.6421545  35.0610487  86.1205338
  58.2307676  36.0032527  85.0092766  61.3896824  33.6748752  89.0581170
  61.4118521  33.7388085  88.1033150  61.8064883  32.8353260  89.2521676
  71.7680448  43.4104011  87.0960393  72.2111594  42.6611336  86.6979516
  70.8906958  43.4014148  86.7134125  66.9016229  49.9634353  82.5766991
  67.5967134  50.5841045  82.7954306  67.2439380  49.1129704  82.8519369
  52.5184039  41.7852154  96.4363809  51.7765775  41.9334789  97.0228439
  52.1976783  42.0460419  95.5730558  68.8007653  47.4134058  84.1054322
  69.3258977  47.7521331  83.3803642  68.7130005  46.4781074  83.9217457
  60.4627701  51.3268132  96.2344199  60.7714828  51.0817279  97.1066898
  61.2603183  51.5314770  95.7463069  60.4848313  53.4806042  88.4649575
  60.0453304  52.9882420  89.1582432  61.2356430  52.9379009  88.2241650
  52.9640652  49.6717582  88.4674203  53.7898672  49.3721354  88.0872847
  52.6134704  48.9025205  88.9163992  57.9322185  49.0244051  90.5371877
  57.3102195  48.3614756  90.2374105  58.6027052  49.0505183  89.8545525
  51.1649257  47.5903909  89.4263137  50.3281166  47.1626083  89.2447138
  51.1372903  47.7836352  90.3633928  58.0046713  37.5025839 100.1304383
  58.0534868  38.3787961  99.7482153  58.5469227  36.9603232  99.5576026
  68.4901559  48.0466962  99.4105520  67.6997102  48.0291101  98.8710019
  68.2534913  48.5855256 100.1654557  68.6099434  44.8959428  96.7238249
  68.6597439  44.7309436  97.6653771  68.5013357  44.0286687  96.3336129
  57.4935692  47.5747974  84.0130337  57.6423813  48.2583438  83.3597010
  58.3002136  47.5553064  84.5279793  65.9003196  40.8790356  98.0397555
  66.8013059  40.7396821  97.7481553  65.9751171  41.0444811  98.9795733
  60.2346001  38.2557211  96.8850742  59.3649311  38.5490777  96.6133330
  60.4705482  38.8397656  97.6058005  70.1117631  47.3156370  96.9680270
  69.8202439  47.6786350  97.8043731  69.4989762  46.6023378  96.7893602
  71.3113313  44.8809250  89.4882840  72.1460204  45.3199054  89.6520401
  71.4472442  44.4047903  88.6691086  68.3604819  42.4388984  95.4360328
  68.8358940  42.6316631  94.6279179  67.4370384  42.4948170  95.1903712
  55.2488325  43.6013152  85.0191406  55.0034367  42.6975482  85.2171617
  55.4184240  43.6030302  84.0770884  62.9385035  34.4736828  94.4016162
  63.4566979  35.2097855  94.0762651  62.5840168  34.7800821  95.2362921
  54.5183973  39.3341509  82.5177568  53.8253218  39.4085864  81.8617604
  54.2735725  38.5701853  83.0399085  63.1897629  30.8937111  89.9217059
  63.4699383  30.2260300  90.5477485  63.9748236  31.0866206  89.4091722
  60.9931098  50.0696104  81.4842085  60.4205065  50.6886292  81.0312557
  61.5663892  50.6195466  82.0182007  67.0606488  39.3154745  93.6688634
  68.0123911  39.4152842  93.6900858  66.8909938  38.5233013  94.1786718
  65.0820867  36.4010328  93.8548035  64.4870799  36.6815340  93.1594523
  64.7970564  36.8904229  94.6264776  64.2128358  50.3533255  82.6150667
  65.1459031  50.2878816  82.8183543  64.1251571  51.1889521  82.1565200
  66.8416374  49.6699125  79.5754615  66.7630006  49.3358989  80.4690373
  67.6626041  50.1620893  79.5746087  69.5394566  42.5360864  92.7830933
  69.5070886  41.5976865  92.9690617  70.1495189  42.6144901  92.0496758
  61.3777896  41.4056917  78.8258137  62.3237001  41.2763125  78.8946555
  60.9992141  40.6671579  79.3027566  69.6889054  39.3271908  92.8289217
  69.1728103  38.5430364  92.6419145  70.5729003  38.9990624  92.9935736
  67.3499781  33.0712923  88.7885029  67.1524602  32.7628011  89.6728361
  67.9599487  33.7974562  88.9182959  75.3571115  43.5976871  91.9236970
  76.0874504  43.3362159  92.4844673  74.7478061  42.8605593  91.9639038
  73.4386413  41.7384734  92.5211421  72.7119576  41.6040699  91.9127913
  73.0233699  42.0461562  93.3268139  61.2616589  45.4574663 100.2858794
  62.1819598  45.6353262 100.4798841  61.2266172  44.5130709 100.1338494
  59.5620814  39.3306894  78.7613023  58.6552269  39.0340006  78.8375736
  59.8396795  39.0336712  77.8947309  50.4798754  40.6513257  89.2112069
  50.1601538  39.7978565  88.9186443  49.9332182  40.8661835  89.9670036
  54.2578662  43.3675698  92.9281576  54.4764671  44.2992806  92.9469609
  54.6704435  43.0083672  93.7136379  61.1782879  33.8743783  84.9157264
  60.3683608  33.5290868  85.2912510  61.8667296  33.5651327  85.5044875
  63.1073428  32.9521830  86.5381561  63.6604466  33.3717284  87.1971584
  63.3443514  32.0257578  86.5804517  59.1306527  38.9408904 102.3184324
  59.0303254  39.8903261 102.2496416  58.9128069  38.6127143 101.4460395
  58.3319598  36.1893829  78.9025002  59.1938762  36.5148727  79.1620819
  58.5169942  35.4025325  78.3898068  50.3487014  44.2716168  91.1805191
  49.6550485  43.8570121  90.6675145  51.0960005  44.3136705  90.5838609
  66.4852235  35.0622355  86.0460225  65.9050904  35.7207159  85.6638277
  66.2188167  34.2399700  85.6347642  64.9355801  34.4627413  88.2481545
  65.4355579  34.5743947  87.4395864  65.5791409  34.1588466  88.8882354
  58.9937797  42.3706043 101.1349386  58.5104879  43.1706403 101.3413275
  59.0798736  42.3813987 100.1816830  52.2623756  44.2034422  89.0571205
  52.2394445  44.3022110  88.1053089  52.5724393  45.0499573  89.3788372
  54.9211134  46.2610577  93.1717820  55.8754388  46.2294520  93.1047751
  54.7223658  45.8001201  93.9868046  55.5110516  44.8311693  95.7388618
  56.3303405  45.3255772  95.7623455  55.7847324  43.9143661  95.7106185
  65.2677113  37.2222446  85.1016573  64.3802968  37.5072096  84.8836768
  65.6831102  37.0616209  84.2543850  68.6191649  37.2468967  88.8170912
  69.3952039  37.7365419  89.0895529  67.8939783  37.6727021  89.2742782
  71.0564207  37.9596586  89.8744853  71.6508698  37.7192322  89.1638161
  71.1290791  37.2403716  90.5018389  53.2761363  51.8030197  90.1888018
  53.1415831  51.0430598  89.6226016  52.8593425  52.5271097  89.7216807
  64.4120326  46.9867120  79.1964593  65.1156176  47.1917123  79.8122249
  63.6882975  47.5543882  79.4613677  65.2418136  42.7376982  85.3166863
  65.1853338  43.1945533  84.4774496  65.7946479  41.9767666  85.1389706
  69.0522942  38.5266713  86.1416983  68.7959877  38.1263349  86.9725190
  68.4275810  39.2410507  86.0167122  73.3635280  41.2662787  88.6488274
  72.8034838  41.3355976  89.4219836  72.7578784  41.0903771  87.9287770
  56.4330489  52.6999514  90.4006460  56.3162873  53.6444946  90.2985151
  55.6122935  52.3973075  90.7892260  66.3207024  47.4249649  81.2463053
  67.1552628  46.9930848  81.0640528  66.1591366  47.2531663  82.1739948
  65.9752916  43.9281763  82.6119392  65.9201720  43.7626034  81.6707837
  65.3498971  44.6357796  82.7681582  50.7645431  39.1649827  96.4380815
  51.4104294  38.6548781  96.9268040  50.5562582  39.9018509  97.0124240
  63.2898823  46.2330675 101.9372955  64.1589983  46.4071327 101.5759590
  62.8105574  47.0525091 101.8148685  59.2849041  33.4289872  82.1904711
  59.2727711  34.3731712  82.3472982  60.1772463  33.2460017  81.8964172
  57.4585003  53.3527776  93.6162389  58.3612250  53.3851386  93.9328884
  57.2322373  52.4228227  93.6308725  59.2138605  52.1058762  90.2772467
  58.2634236  52.1060624  90.1636840  59.5171091  51.3591497  89.7608502
  63.1001161  30.0232648  86.4450648  62.3333556  29.4691135  86.5907330
  63.5111866  30.0954517  87.3064799  55.1042922  36.3117444 100.5355829
  55.9674383  35.9554249 100.7459153  54.5308332  35.9731339 101.2231233
  74.9491299  57.9419301  91.3418230  75.5869709  57.8226048  90.6381570
  74.8312142  58.8900145  91.4006182  71.7581005  57.8946729  91.2779755
  71.4199516  57.7787793  90.3900289  72.6270773  57.4937894  91.2580761
  67.6167821  59.7482205  87.2676645  67.0532686  59.6572142  86.4992933
  67.5020216  58.9282110  87.7479138  65.1632253  61.2433397  90.1060866
  65.9553544  60.9024221  89.6907165  65.4028903  61.3528372  91.0263019
  73.1967379  63.4153173  82.5791110  72.5455359  64.0007253  82.1925124
  73.9911742  63.9459368  82.6386148  67.1223007  60.5042310  82.9778245
  67.8953883  59.9571297  82.8391121  67.4748405  61.3686559  83.1892706
  69.8864256  59.2095541  92.7746504  70.4827828  58.9851563  92.0603467
  69.9439227  58.4680286  93.3771952  69.4589284  56.6634976  80.6096695
  69.7114805  56.1416497  79.8480158  68.5213843  56.5001122  80.7123378
  74.5032567  55.6670754  88.4171438  75.2895656  55.2490178  88.0661855
  74.7671271  56.5716847  88.5853086  74.6742644  61.1043605  83.1160095
  74.0388477  61.1778231  83.8280999  74.3440051  61.6937204  82.4379174
  79.9040994  55.6045988  89.3204416  80.6366166  55.0345204  89.5542246
  79.1480350  55.2167588  89.7610922  69.1785573  58.5663082  82.8121070
  69.0621831  57.8907985  83.4802154  69.2887833  58.0795456  81.9953223
  71.5217114  58.0273229  86.5167759  71.1575321  57.5003850  87.2280680
  72.3784230  57.6371698  86.3434244  77.4266415  49.3167562  93.7799025
  77.0949739  50.1862973  93.5560240  76.8312028  49.0003846  94.4593055
  71.1622601  53.0563129  81.5129107  71.3297003  53.9243365  81.8799578
  70.9719770  53.2190411  80.5890397  73.9197934  61.5180108  93.1794938
  73.6198657  62.4205147  93.0710745  73.5748994  61.2512291  94.0316091
  67.3710416  57.9693905  89.2131642  66.4460912  57.8370119  89.4209334
  67.6194829  58.7488124  89.7101585  77.3195078  54.0362648  90.8592375
  76.4111955  53.9678056  90.5651136  77.2682674  54.5134593  91.6874201
  71.1411822  55.5120786  82.4975774  71.0211447  55.9577837  83.3361254
  70.4464410  55.8606104  81.9389312  64.7319227  57.6127178  90.0475431
  64.8611608  57.8661657  90.9614843  64.0516678  58.2054886  89.7280086
  68.9018714  68.2824428  86.1465905  68.8242744  69.2332253  86.2254386
  68.2980358  67.9370301  86.8040832  79.1856724  52.2379086  92.6370249
  78.5431105  52.5311620  91.9910044  78.6811653  52.1232007  93.4423446
  76.8396888  55.9842260  83.3256108  77.7514744  56.2169646  83.1503806
  76.3306535  56.5679304  82.7631187  69.6482316  58.2637747  98.3645239
  70.3897000  58.8022791  98.0880063  68.9419302  58.8904036  98.5216791
  71.4768726  55.3439494  94.3350958  72.3229921  55.7678908  94.4785607
  71.4167363  54.6873118  95.0289521  75.4466470  60.9668078  90.7169690
  74.8175333  61.1313792  90.0145758  75.0592132  61.3809688  91.4880654
  79.3255702  61.9022516  88.0714053  78.6406740  62.2821417  87.5211087
  79.4099552  62.5117842  88.8046001  74.6268171  53.0043862  95.9932131
  74.3829103  53.7585923  95.4566407  74.9028102  53.3829210  96.8279378
  76.5806634  59.5482475  94.6709397  76.7923529  60.1914235  93.9943778
  76.5336382  58.7144791  94.2031327  74.1832863  52.1600296  91.5745969
  73.3217342  52.4581549  91.8662707  74.2095297  52.3770694  90.6427002
  70.9994432  60.7042486  87.9819775  71.4632778  60.9830189  87.1924397
  70.7351230  59.8025931  87.7992865  67.8918513  60.2513968  90.9199538
  68.4619870  60.6801236  90.2817023  68.4826625  59.9696552  91.6183724
  69.9363318  56.8265638  84.7909340  70.6387362  57.2786682  85.2583266
  69.6043947  56.1849457  85.4189233  68.3843680  55.4177395  99.1660549
  67.7542340  56.0993676  99.3995946  68.2779768  55.3060477  98.2213688
  63.6788652  55.0849191  90.0926474  62.8887706  55.3406720  89.6166584
  64.1699900  55.8997529  90.1978514  65.6303398  55.4493770  87.0509950
  64.8334561  55.5612465  87.5693446  65.4028990  55.7880423  86.1850841
  61.9626355  55.3379682  92.5241464  62.2134394  56.2226691  92.7899040
  62.4985904  55.1584283  91.7516556  85.7858455  58.7693179  89.1916726
  85.0322163  58.2000577  89.0360730  85.9205996  58.7355843  90.1387360
  71.1757083  63.6406581  84.8671445  71.0402758  64.4858117  85.2956293
  71.7166895  63.8425859  84.1037379  67.6624423  49.7198161 101.5285800
  67.2691368  49.1664359 102.2033445  68.4790563  50.0308739 101.9192318
  64.6286480  61.1582019  85.4399370  65.1411001  61.9525269  85.5904935
  65.2809193  60.4608310  85.3732972  66.4381365  64.2747775  87.5222123
  66.6147993  65.1965740  87.3343107  67.2338198  63.9606195  87.9516503
  70.5792384  51.1356040  99.1206057  71.3202097  51.7363193  99.0410519
  70.8110306  50.3933678  98.5624100  65.7233722  56.3212407  97.3984287
  65.6087237  55.4197665  97.6991386  64.8678239  56.5676104  97.0469103
  67.5612680  65.7925949  93.5232466  68.1120106  65.6643013  92.7509460
  66.7224156  66.0920838  93.1727359  74.5249546  47.1637143  93.3970339
  74.1813816  48.0538785  93.3209449  74.8928509  46.9738801  92.5339924
  62.5935397  59.4870673  86.2158941  63.4310619  59.8967682  85.9992648
  62.7713665  58.5470116  86.1859135  74.4899829  57.1545754  81.9042774
  73.9746453  57.9250359  82.1431161  74.2177138  56.4810890  82.5275835
  72.0746940  51.9995455  86.9628012  71.2188537  51.6102305  86.7833651
  72.4873892  52.0787416  86.1027798  73.6046087  49.5341798  91.3619572
  73.1010882  49.4971933  90.5487377  73.8976694  50.4434541  91.4216229
  69.8488973  49.6180528  90.3685754  70.7141969  49.4223337  90.0091643
  69.9166482  49.3890880  91.2955110  79.4634103  59.9078109  83.8395947
  78.6863546  59.5689268  83.3951109  80.1425584  59.9130732  83.1650912
  74.2786132  55.0272846  83.7302555  73.9736268  55.3418995  84.5812698
  75.2316574  55.1054266  83.7729888  72.7232564  61.1863069  85.3795509
  72.1953926  60.4515829  85.0668746  72.2220067  61.9637746  85.1335477
  77.7025410  59.3812090  90.4962555  77.0449085  60.0711351  90.5842684
  78.5065809  59.7708522  90.8396542  67.4551292  51.8482736  87.7402120
  68.0295044  51.6257917  87.0075313  68.0422274  51.9171430  88.4930722
  76.5130869  57.7356463  88.5466497  77.0262751  58.3686454  89.0488207
  77.1632093  57.1357658  88.1809857  67.7820879  53.8787197  81.7598006
  66.9458191  54.2161883  82.0807280  67.6425649  53.7436177  80.8225143
  69.7573960  48.7223985  86.4677190  69.1038372  48.4073002  85.8433805
  69.7154434  48.0999725  87.1937013  70.8685164  59.0043280  78.3830482
  69.9612226  58.7732533  78.5821631  71.3656196  58.2080899  78.5704463
  73.7753243  67.7140787  81.3027168  73.1014942  68.0172484  81.9112126
  74.1619065  68.5169867  80.9532625  72.9911700  55.2105918  90.7924837
  72.0734261  55.4320865  90.6346526  73.4071843  55.2852229  89.9336545
  73.7746748  56.6097334  85.9227518  74.5218567  57.1218731  85.6134640
  74.0438337  56.2881387  86.7831911  72.0473398  59.1055875  82.9054472
  71.1384617  58.8214907  83.0026942  72.0768482  59.5254953  82.0457779
  77.2792665  62.7162464  86.6745640  76.8254992  61.8753374  86.7310830
  76.6486632  63.3523862  87.0120420  76.2225585  53.6454450  87.9046307
  75.4848342  53.1331836  88.2356550  76.4752358  53.2054832  87.0929584
  75.7225604  64.5538961  87.6095458  76.0148579  65.1144018  86.8907823
  76.2324225  64.8467522  88.3648617  76.3237212  46.4230702  88.4988076
  76.6296089  45.5628066  88.2113991  77.0489817  47.0148322  88.2987070
  62.6161568  56.8261389  86.8869674  62.4185968  56.2330749  86.1620741
  62.0608232  56.5213599  87.6045613  70.5958292  56.7184495  89.0064267
  70.6506902  55.7658332  88.9306744  69.7849494  56.8743934  89.4905566
  71.7449486  60.6464618  80.2442551  71.3068916  59.9300477  79.7848188
  72.4859926  60.8740733  79.6827642  68.5350652  55.3361555  86.7654646
  67.7218517  55.6355725  87.1719838  69.0309646  54.9417244  87.4829128
  70.6859230  65.3319312  88.6988911  70.6435408  65.5580158  87.7697443
  71.6021929  65.0982686  88.8474712  74.1324863  55.8003379  95.5969540
  74.4874251  56.0274853  96.4564006  74.7796995  56.1321756  94.9746795
  79.8622600  58.9221815  86.3018869  79.7240499  59.1123411  85.3740058
  79.5058819  59.6841198  86.7586920  68.0264727  52.9079910  92.3815881
  68.6664106  52.7668670  91.6838845  67.1942257  52.6214424  92.0054483
  79.8891980  60.9898342  91.3130141  80.3228487  60.8973631  92.1613195
  80.6023561  60.9655843  90.6750157  68.8025030  62.2082341  88.4950874
  69.5965629  61.7132661  88.2933449  68.0916723  61.6800204  88.1318579
  65.1107794  56.3525423  84.5710626  64.1805382  56.2909878  84.7880588
  65.2065266  55.8301375  83.7747268  65.0293343  52.8780235  87.1588868
  65.2900160  53.7925569  87.0498028  65.8510515  52.4104678  87.3085481
  66.5018268  54.2917993  94.3287693  67.1741322  54.0835355  93.6800341
  65.6748055  54.0940079  93.8892925  72.4043840  50.9179934  96.3453353
  71.7571755  51.6169883  96.2517830  73.1744856  51.3516077  96.7129602
  72.5807975  58.7560698  94.4050173  73.5100035  58.9071858  94.2319140
  72.1599005  58.8444719  93.5498820  71.3796306  62.7811363  92.1748711
  71.2407392  62.4130147  93.0474649  70.5910903  63.2959002  92.0032669
  71.9744458  67.8820459  83.5174247  72.1496214  67.4108503  84.3319870
  71.2877246  68.5086226  83.7455508  72.9301522  62.1592966  89.5637549
  72.5951354  62.1193736  90.4595198  72.4305467  61.4937681  89.0907959
  66.9045766  57.5660596  95.0890130  66.7665563  56.8340834  95.6901669
  67.8150689  57.4769496  94.8074317  75.8660713  59.5049000  79.8374608
  75.2489884  58.7795828  79.7407661  75.3977202  60.2658360  79.4941682
  69.5328066  57.2780555  94.5773809  70.2427685  56.6373747  94.5360428
  69.4897374  57.5293450  95.4999990  68.2457000  54.2645773  96.3969449
  67.7094357  53.8136511  97.0491045  67.6573709  54.3991682  95.6539913
  66.5405544  71.0309822  90.2914107  66.7802142  71.6628346  90.9693126
  65.6974740  70.6797862  90.5779467  67.6559259  53.7234424  78.9595912
  66.7788725  53.6023225  78.5958159  68.1317012  52.9320503  78.7074801
  59.1761399  58.5111584  89.0537420  59.8632439  58.1973314  88.4658435
  59.0209528  59.4152949  88.7804671  63.9796121  53.4001781  93.4822443
  63.8954310  52.7927450  92.7472853  63.1578828  53.8910799  93.4831940
  70.8423185  66.0760715  86.2058433  70.0590707  66.6182395  86.2996657
  71.5415930  66.5934694  86.6052674  74.1519835  51.8855344  88.8492638
  74.6488535  51.1325306  88.5293709  73.3806817  51.9219661  88.2835848
  82.0049593  57.5895710  90.4910930  81.9939469  58.4720425  90.1204863
  81.1366972  57.2367260  90.2965467  75.2349616  60.6427031  86.4231062
  74.3005895  60.7628494  86.2535766  75.4126284  59.7399498  86.1591072
  70.7354804  54.0272727  88.5764323  70.3652592  53.4743767  89.2645229
  71.2313896  53.4230861  88.0239323  78.6222167  56.4844351  86.9581096
  79.0882620  57.3172342  86.8841399  79.0729668  56.0189332  87.6626354
  76.6898398  62.8288172  83.9567248  76.9658242  62.7144766  84.8661122
  75.8202897  62.4305657  83.9179421  76.5938830  48.8524938  90.9971997
  75.6801910  49.0829164  91.1654204  77.0231932  48.9363382  91.8486030
  76.3645289  57.0414829  93.4971891  75.7116739  57.2890737  92.8424344
  76.7425668  56.2278968  93.1634369  73.3252462  67.0774523  87.6000062
  73.5074857  66.2596179  88.0627814  74.1485448  67.2942215  87.1624952
  73.6594628  66.0042708  84.8615110  74.1882394  65.4935162  84.2485272
  73.9222848  65.6885238  85.7260643  64.1611721  64.0206577  92.6050444
  64.7465157  63.2750265  92.7378348  63.9636559  64.3310534  93.4887107
  67.0150376  67.0557824  87.6212886  66.3460751  67.5403952  87.1376926
  66.8763246  67.3027045  88.5356265  58.7529375  56.5912177  91.3254887
  58.7913475  56.0575768  92.1192005  58.2469668  56.0647383  90.7065864
  66.1320138  51.4376718  94.8217429  66.1961464  52.2991549  94.4094827
  66.0687258  50.8250719  94.0889788  65.6072410  53.5099850  98.4690463
  66.2344449  53.1276928  99.0827988  64.7500329  53.2914052  98.8346156
  62.3837953  55.3176279  84.4008818  62.6791394  54.4086958  84.3475872
  61.4825989  55.2964019  84.0789820  74.2924032  67.0383544  91.2059227
  74.1675171  66.2373283  90.6970172  74.9503123  67.5329737  90.7173196
  65.9132200  53.3932276  90.3836367  65.1918786  54.0068244  90.2443840
  66.7025456  53.9290041  90.3053013  68.7158513  50.7286703  96.6577018
  69.2392915  50.9748999  97.4203328  68.4970847  51.5606737  96.2380156
  64.1125795  52.9990377  84.5248143  63.7838501  52.1187756  84.3423249
  64.4665165  52.9438046  85.4124533  73.3605373  64.6345280  89.0343129
  73.2130336  63.7061987  89.2150699  74.1858867  64.6565371  88.5500204
  67.2267618  53.2863347  84.8923621  67.5663690  53.8149268  84.1702229
  67.6739738  53.6243753  85.6682188  76.9639495  65.4573839  90.1208002
  77.8886043  65.2516700  89.9832453  76.7954799  65.2090240  91.0297343
  69.9211059  51.6700398  94.3426689  69.5807879  50.8708211  94.7447369
  69.2150065  51.9702108  93.7703522  70.5727530  48.7549710  92.7954012
  71.3953600  48.2810188  92.6732902  70.8165594  49.5340194  93.2952698
  69.2135765  51.7837969  83.0916914  69.9344127  52.1619221  82.5880631
  68.5901069  52.5026845  83.1951892  73.3566888  52.4883117  84.0275246
  73.5730502  53.3707755  83.7264074  72.8760955  52.0969331  83.2980888
  68.0966109  55.4468831  90.6045991  67.9510690  55.7609134  91.4970272
  67.6191313  56.0653731  90.0516889  69.9562492  52.4371379  90.6526880
  69.9424061  51.5412472  90.3159178  70.6734920  52.4442042  91.2865166
  71.8088623  52.8708719  92.6980008  71.5506401  53.7925790  92.6964338
  71.2773663  52.4739153  93.3880472  76.7534811  65.9759506  85.4770093
  76.9271689  65.4105928  84.7243945  77.2463703  66.7760401  85.2949583
  62.5711771  57.9874175  93.5433652  62.0265239  58.7633983  93.6753926
  63.4491121  58.3344980  93.3852773  69.3599388  51.3185759  85.9214450
  69.4815299  50.3902405  86.1205338  69.0701430  51.3324445  85.0092766
  72.2290578  49.0040669  89.0581170  72.2512275  49.0680002  88.1033150
  72.6458637  48.1645178  89.2521676  82.6074203  58.7395929  87.0960393
  83.0505349  57.9903254  86.6979516  81.7300713  58.7306065  86.7134125
  77.7409984  65.2926270  82.5766991  78.4360889  65.9132963  82.7954306
  78.0833134  64.4421622  82.8519369  63.3577793  57.1144071  96.4363809
  62.6159529  57.2626707  97.0228439  63.0370537  57.3752337  95.5730558
  79.6401407  62.7425976  84.1054322  80.1652731  63.0813249  83.3803642
  79.5523760  61.8072991  83.9217457  71.3242068  68.8097959  88.4649575
  70.8847058  68.3174338  89.1582432  72.0750185  68.2670927  88.2241650
  63.8034407  65.0009500  88.4674203  64.6292427  64.7013272  88.0872847
  63.4528459  64.2317123  88.9163992  68.7715940  64.3535968  90.5371877
  68.1495949  63.6906673  90.2374105  69.4420807  64.3797100  89.8545525
  62.0043012  62.9195827  89.4263137  61.1674920  62.4918001  89.2447138
  61.9766657  63.1128270  90.3633928  68.8440467  52.8317756 100.1304383
  68.8928623  53.7079879  99.7482153  69.3862982  52.2895149  99.5576026
  68.3329447  62.9039892  84.0130337  68.4817567  63.5875356  83.3597010
  69.1395890  62.8844982  84.5279793  71.0739756  53.5849129  96.8850742
  70.2043065  53.8782695  96.6133330  71.3099236  54.1689574  97.6058005
  82.1507067  60.2101167  89.4882840  82.9853959  60.6490971  89.6520401
  82.2866196  59.7339820  88.6691086  66.0882080  58.9305069  85.0191406
  65.8428122  58.0267399  85.2171617  66.2577994  58.9322220  84.0770884
  73.7778790  49.8028746  94.4016162  74.2960734  50.5389773  94.0762651
  73.4233923  50.1092739  95.2362921  65.3577727  54.6633427  82.5177568
  64.6646972  54.7377782  81.8617604  65.1129479  53.8993770  83.0399085
  74.0291384  46.2229028  89.9217059  74.3093138  45.5552217  90.5477485
  74.8141991  46.4158124  89.4091722  71.8324852  65.3988022  81.4842085
  71.2598820  66.0178209  81.0312557  72.4057646  65.9487384  82.0182007
  77.9000242  54.6446662  93.6688634  78.8517665  54.7444760  93.6900858
  77.7303693  53.8524931  94.1786718  75.9214622  51.7302245  93.8548035
  75.3264554  52.0107258  93.1594523  75.6364318  52.2196146  94.6264776
  75.0522112  65.6825172  82.6150667  75.9852785  65.6170734  82.8183543
  74.9645325  66.5181439  82.1565200  77.6810129  64.9991043  79.5754615
  77.6023760  64.6650906  80.4690373  78.5019796  65.4912810  79.5746087
  80.3788320  57.8652782  92.7830933  80.3464640  56.9268783  92.9690617
  80.9888944  57.9436819  92.0496758  72.2171651  56.7348835  78.8258137
  73.1630756  56.6055043  78.8946555  71.8385896  55.9963497  79.3027566
  80.5282809  54.6563825  92.8289217  80.0121857  53.8722282  92.6419145
  81.4122757  54.3282542  92.9935736  78.1893535  48.4004841  88.7885029
  77.9918357  48.0919929  89.6728361  78.7993241  49.1266480  88.9182959
  84.2780167  57.0676651  92.5211421  83.5513331  56.9332616  91.9127913
  83.8627454  57.3753480  93.3268139  70.4014568  54.6598811  78.7613023
  69.4946023  54.3631924  78.8375736  70.6790549  54.3628629  77.8947309
  61.3192508  55.9805175  89.2112069  60.9995293  55.1270483  88.9186443
  60.7725937  56.1953753  89.9670036  65.0972416  58.6967616  92.9281576
  65.3158426  59.6284723  92.9469609  65.5098190  58.3375590  93.7136379
  72.0176634  49.2035701  84.9157264  71.2077362  48.8582786  85.2912510
  72.7061051  48.8943245  85.5044875  73.9467182  48.2813748  86.5381561
  74.4998221  48.7009201  87.1971584  74.1837268  47.3549496  86.5804517
  69.1713353  51.5185746  78.9025002  70.0332517  51.8440645  79.1620819
  69.3563697  50.7317242  78.3898068  61.1880768  59.6008086  91.1805191
  60.4944240  59.1862039  90.6675145  61.9353759  59.6428623  90.5838609
  77.3245989  50.3914273  86.0460225  76.7444658  51.0499077  85.6638277
  77.0581922  49.5691618  85.6347642  75.7749556  49.7919331  88.2481545
  76.2749334  49.9035865  87.4395864  76.4185163  49.4880383  88.8882354
  63.1017511  59.5326340  89.0571205  63.0788199  59.6314027  88.1053089
  63.4118147  60.3791491  89.3788372  65.7604889  61.5902495  93.1717820
  66.7148142  61.5586437  93.1047751  65.5617412  61.1293119  93.9868046
  66.3504271  60.1603611  95.7388618  67.1697160  60.6547690  95.7623455
  66.6241079  59.2435579  95.7106185  76.1070867  52.5514363  85.1016573
  75.2196722  52.8364014  84.8836768  76.5224856  52.3908127  84.2543850
  79.4585403  52.5760884  88.8170912  80.2345793  53.0657337  89.0895529
  78.7333537  53.0018938  89.2742782  81.8957962  53.2888504  89.8744853
  82.4902453  53.0484239  89.1638161  81.9684546  52.5695634  90.5018389
  64.1155118  67.1322114  90.1888018  63.9809586  66.3722515  89.6226016
  63.6987180  67.8563014  89.7216807  75.2514081  62.3159038  79.1964593
  75.9549931  62.5209040  79.8122249  74.5276729  62.8835800  79.4613677
  76.0811891  58.0668899  85.3166863  76.0247092  58.5237451  84.4774496
  76.6340233  57.3059584  85.1389706  79.8916697  53.8558631  86.1416983
  79.6353631  53.4555267  86.9725190  79.2669565  54.5702425  86.0167122
  84.2029035  56.5954704  88.6488274  83.6428593  56.6647894  89.4219836
  83.5972538  56.4195689  87.9287770  67.2724244  68.0291431  90.4006460
  67.1556628  68.9736864  90.2985151  66.4516690  67.7264993  90.7892260
  77.1600778  62.7541567  81.2463053  77.9946382  62.3222766  81.0640528
  76.9985121  62.5823581  82.1739948  76.8146670  59.2573680  82.6119392
  76.7595474  59.0917952  81.6707837  76.1892726  59.9649713  82.7681582
  61.6039185  54.4941745  96.4380815  62.2498049  53.9840699  96.9268040
  61.3956336  55.2310427  97.0124240  70.1242796  48.7581789  82.1904711
  70.1121466  49.7023629  82.3472982  71.0166218  48.5751935  81.8964172
  70.0532360  67.4350680  90.2772467  69.1027991  67.4352542  90.1636840
  70.3564846  66.6883414  89.7608502  73.9394915  45.3524566  86.4450648
  73.1727311  44.7983053  86.5907330  74.3505620  45.4246435  87.3064799
  65.9436676  51.6409362 100.5355829  66.8068138  51.2846167 100.7459153
  65.3702087  51.3023257 101.2231233  77.9616761  75.8334228  82.9778245
  78.7347637  75.2863215  82.8391121  78.3142160  76.6978477  83.1892706
  80.2983039  71.9926894  80.6096695  80.5508560  71.4708415  79.8480158
  79.3607598  71.8293039  80.7123378  80.0179328  73.8955000  82.8121070
  79.9015586  73.2199903  83.4802154  80.1281587  73.4087374  81.9953223
  82.0016355  68.3855047  81.5129107  82.1690758  69.2535283  81.8799578
  81.8113525  68.5482328  80.5890397  81.9805576  70.8412704  82.4975774
  81.8605202  71.2869755  83.3361254  81.2858165  71.1898022  81.9389312
  87.6790643  71.3134177  83.3256108  88.5908499  71.5461564  83.1503806
  87.1700290  71.8971221  82.7631187  80.7757073  72.1557556  84.7909340
  81.4781116  72.6078600  85.2583266  80.4437701  71.5141375  85.4189233
  76.4697152  70.7785688  87.0509950  75.6728315  70.8904382  87.5693446
  76.2422744  71.1172340  86.1850841  73.4329152  74.8162591  86.2158941
  74.2704374  75.2259599  85.9992648  73.6107419  73.8762033  86.1859135
  85.3293584  72.4837672  81.9042774  84.8140207  73.2542276  82.1431161
  85.0570892  71.8102808  82.5275835  82.9140695  67.3287373  86.9628012
  82.0582291  66.9394223  86.7833651  83.3267646  67.4079333  86.1027798
  85.1179887  70.3564764  83.7302555  84.8130022  70.6710913  84.5812698
  86.0710329  70.4346184  83.7729888  78.2945046  67.1774653  87.7402120
  78.8688798  66.9549835  87.0075313  78.8816029  67.2463348  88.4930722
  78.6214633  69.2079114  81.7598006  77.7851946  69.5453801  82.0807280
  78.4819403  69.0728094  80.8225143  80.5967714  64.0515902  86.4677190
  79.9432126  63.7364919  85.8433805  80.5548188  63.4291643  87.1937013
  81.7078919  74.3335197  78.3830482  80.8005981  74.1024451  78.5821631
  82.2049951  73.5372817  78.5704463  82.8867152  74.4347792  82.9054472
  81.9778372  74.1506825  83.0026942  82.9162236  74.8546871  82.0457779
  87.1630967  61.7522620  88.4988076  87.4689843  60.8919983  88.2113991
  87.8883571  62.3440240  88.2987070  73.4555323  72.1553306  86.8869674
  73.2579722  71.5622667  86.1620741  72.9001987  71.8505517  87.6045613
  82.5843240  75.9756536  80.2442551  82.1462670  75.2592395  79.7848188
  83.3253681  76.2032651  79.6827642  79.3744406  70.6653473  86.7654646
  78.5612272  70.9647643  87.1719838  79.8703400  70.2709161  87.4829128
  75.9501548  71.6817340  84.5710626  75.0199136  71.6201796  84.7880588
  76.0459020  71.1593293  83.7747268  75.8687097  68.2072153  87.1588868
  76.1293915  69.1217486  87.0498028  76.6904270  67.7396596  87.3085481
  86.7054468  74.8340918  79.8374608  86.0883638  74.1087746  79.7407661
  86.2370956  75.5950278  79.4941682  78.4953014  69.0526342  78.9595912
  77.6182480  68.9315143  78.5958159  78.9710767  68.2612420  78.7074801
  70.0155154  73.8403502  89.0537420  70.7026194  73.5265232  88.4658435
  69.8603282  74.7444866  88.7804671  73.2231707  70.6468197  84.4008818
  73.5185149  69.7378876  84.3475872  72.3219743  70.6255937  84.0789820
  74.9519549  68.3282295  84.5248143  74.6232255  67.4479674  84.3423249
  75.3058920  68.2729963  85.4124533  78.0661372  68.6155265  84.8923621
  78.4057445  69.1441186  84.1702229  78.5133493  68.9535671  85.6682188
  80.0529519  67.1129886  83.0916914  80.7737882  67.4911139  82.5880631
  79.4294823  67.8318763  83.1951892  84.1960642  67.8175035  84.0275246
  84.4124257  68.6999673  83.7264074  83.7154709  67.4261249  83.2980888
  80.1993142  66.6477677  85.9214450  80.3209054  65.7194323  86.1205338
  79.9095185  66.6616363  85.0092766  83.0684333  64.3332587  89.0581170
  83.0906030  64.3971920  88.1033150  83.4852392  63.4937096  89.2521676
  76.9275834  74.2596987  85.0191406  76.6821876  73.3559317  85.2171617
  77.0971749  74.2614137  84.0770884  76.1971482  69.9925345  82.5177568
  75.5040727  70.0669700  81.8617604  75.9523234  69.2285688  83.0399085
  84.8685138  61.5520946  89.9217059  85.1486892  60.8844135  90.5477485
  85.6535745  61.7450041  89.4091722  83.0565405  72.0640753  78.8258137
  84.0024510  71.9346961  78.8946555  82.6779650  71.3255414  79.3027566
  81.2408323  69.9890729  78.7613023  80.3339778  69.6923842  78.8375736
  81.5184304  69.6920547  77.8947309  72.1586263  71.3097092  89.2112069
  71.8389047  70.4562401  88.9186443  71.6119691  71.5245670  89.9670036
  82.8570388  64.5327619  84.9157264  82.0471117  64.1874704  85.2912510
  83.5454805  64.2235162  85.5044875  84.7860937  63.6105665  86.5381561
  85.3391975  64.0301119  87.1971584  85.0231023  62.6841414  86.5804517
  80.0107107  66.8477664  78.9025002  80.8726271  67.1732562  79.1620819
  80.1957451  66.0609160  78.3898068  88.1639744  65.7206191  86.0460225
  87.5838413  66.3790995  85.6638277  87.8975676  64.8983535  85.6347642
  86.9464622  67.8806281  85.1016573  86.0590477  68.1655932  84.8836768
  87.3618611  67.7200044  84.2543850  86.0907835  77.6450956  79.1964593
  86.7943685  77.8500958  79.8122249  85.3670484  78.2127718  79.4613677
  80.9636550  64.0873707  82.1904711  80.9515220  65.0315547  82.3472982
  81.8559972  63.9043853  81.8964172  84.7788670  60.6816484  86.4450648
  84.0121065  60.1274971  86.5907330  85.1899375  60.7538353  87.3064799
  40.6786117  -5.5660458  69.3036417  40.0274097  -4.9806377  68.9170431
  41.4730480  -5.0354263  69.3631455  36.3837452  -0.6989202  72.8711212
  36.3061481   0.2518623  72.9499693  35.7799095  -1.0443330  73.5286138
  38.6575821  -5.3407049  71.5916752  38.5221495  -4.4955514  72.0201600
  39.1985633  -5.1387772  70.8282686  41.2571981  -1.2672844  68.0272475
  40.5833680  -0.9641147  68.6357433  41.6437803  -0.4643763  67.6777932
  43.2044342  -4.4274670  74.3340764  43.4967317  -3.8669613  73.6153130
  43.7142963  -4.1346109  75.0893923  39.4563196  -1.0993171  70.2419554
  39.6314952  -1.5705128  71.0565177  38.7695984  -0.4727405  70.4700815
  38.3241923  -2.9052916  72.9303740  37.5409445  -2.3631236  73.0241964
  39.0234668  -2.3878936  73.3297981  40.8071200  -1.9039108  74.3245368
  40.9893595  -2.7217452  74.7873121  41.6304186  -1.6871416  73.8870258
  41.1413366  -2.9770923  71.5860417  41.6701132  -3.4878468  70.9730579
  41.4041585  -3.2928392  72.4505950  44.2353549  -3.0054124  72.2015400
  44.4090427  -3.5707702  71.4489252  44.7282440  -2.2053230  72.0194890
  38.8060806  -0.1715671  75.1894882  38.3665796  -0.6639293  75.8827739
  39.5568923  -0.7142704  74.9486957  35.8148185  -6.0773739  70.7375644
  35.9636305  -5.3938274  70.0842317  36.6214628  -6.0968649  71.2525100
  39.3143590  -3.5825608  68.2087392  38.7417557  -2.9635421  67.7557863
  39.8876384  -3.0326247  68.7427313  42.5340850  -3.2988458  69.3395974
  43.4671523  -3.3642897  69.5428849  42.4464063  -2.4632191  68.8810506
  53.2703791   4.2897588  78.0663536  53.9082201   4.1704335  77.3626877
  53.1524634   5.2378432  78.1251489  50.0793497   4.2425016  78.0025061
  49.7412009   4.1266081  77.1145596  50.9483265   3.8416181  77.9826067
  45.9380313   6.0960492  73.9921952  45.3745178   6.0050429  73.2238240
  45.8232708   5.2760397  74.4724445  50.5613280   5.3959868  83.9611267
  50.5501921   5.0012666  83.0891770  50.7233920   4.6625940  84.5545038
  43.4844745   7.5911684  76.8306173  44.2766037   7.2502509  76.4152472
  43.7241395   7.7006659  77.7508326  51.5179872   9.7631460  69.3036417
  50.8667851  10.3485540  68.9170431  52.3124234  10.2937655  69.3631455
  45.4435499   6.8520597  69.7023551  46.2166375   6.3049584  69.5636427
  45.7960898   7.7164847  69.9138013  47.2820541   8.1796979  82.9090451
  46.9910407   9.0842610  82.7937117  47.9177526   8.2213507  83.6234520
  48.2076748   5.5573828  79.4991810  48.8040320   5.3329850  78.7848773
  48.2651720   4.8158573  80.1017258  47.7801777   3.0113263  67.3342001
  48.0327297   2.4894785  66.5725464  46.8426336   2.8479409  67.4368685
  52.8245059   2.0149042  75.1416745  53.6108149   1.5968465  74.7907162
  53.0883764   2.9195134  75.3098393  52.9955137   7.4521892  69.8405401
  52.3600970   7.5256519  70.5526306  52.6652543   8.0415491  69.1624481
  58.2253487   1.9524275  76.0449723  58.9578658   1.3823492  76.2787553
  57.4692842   1.5645875  76.4856229  47.4998065   4.9141369  69.5366376
  47.3834323   4.2386273  70.2047461  47.6100325   4.4273743  68.7198529
  49.8429606   4.3751516  73.2413065  49.4787814   3.8482137  73.9525987
  50.6996722   3.9849985  73.0679551  49.4835093  -0.5958584  68.2374414
  49.6509496   0.2721653  68.6044885  49.2932262  -0.4331302  67.3135703
  52.2410426   7.8658395  79.9040244  51.9411150   8.7683434  79.7956052
  51.8961486   7.5990578  80.7561397  45.6922908   4.3172192  75.9376949
  44.7673404   4.1848406  76.1454641  45.9407321   5.0966411  76.4346891
  55.6407570   0.3840935  77.5837682  54.7324448   0.3156344  77.2896443
  55.5895166   0.8612880  78.4119507  49.4624314   1.8599074  69.2221081
  49.3423939   2.3056124  70.0606561  48.7676903   2.2084391  68.6634619
  43.0531719   3.9605465  76.7720738  43.1824100   4.2139944  77.6860150
  42.3729170   4.5533173  76.4525393  47.2231206  14.6302715  72.8711212
  47.1455236  15.5810540  72.9499693  46.6192850  14.2848588  73.5286138
  55.1609380   2.3320547  70.0501415  56.0727236   2.5647934  69.8749112
  54.6519027   2.9157591  69.4876493  53.4450148   6.7545175  83.6862707
  53.8533504   6.3127585  82.9417340  52.7227409   6.1797802  83.9396900
  49.7981218   1.6917781  81.0596264  50.6442413   2.1157195  81.2030913
  49.7379856   1.0351406  81.7534828  53.7678963   7.3146365  77.4414996
  53.1387825   7.4792079  76.7391064  53.3804625   7.7287975  78.2125960
  57.6468194   8.2500803  74.7959360  56.9619233   8.6299704  74.2456393
  57.7312044   8.8596130  75.5291308  54.9019126   5.8960762  81.3954704
  55.1136021   6.5392522  80.7189085  54.8548874   5.0623079  80.9276634
  52.5045355  -1.4921417  78.2991276  51.6429834  -1.1940164  78.5908013
  52.5307790  -1.2751018  77.3672308  49.3206924   7.0520773  74.7065081
  49.7845270   7.3308476  73.9169704  49.0563723   6.1504218  74.5238172
  46.2131006   6.5992255  77.6444845  46.7832363   7.0279523  77.0062329
  46.8039117   6.3174840  78.3429030  48.2575811   3.1743926  71.5154647
  48.9599854   3.6264969  71.9828573  47.9256439   2.5327745  72.1434540
  42.0001144   1.4327478  76.8171780  41.2100198   1.6885007  76.3411891
  42.4912392   2.2475816  76.9223821  56.0164954   8.7732718  79.5677061
  56.8382398   8.3712905  79.2859743  56.0127357   8.6700952  80.5193177
  43.9515890   1.7972058  73.7755257  43.1547053   1.9090752  74.2938753
  43.7241482   2.1358710  72.9096147  49.7821557   8.3216761  81.7237771
  49.8465990   8.7837168  82.5595943  49.0732481   7.6914126  81.8520081
  64.1070947   5.1171466  75.9162032  63.3534655   4.5478864  75.7606037
  64.2418488   5.0834131  76.8632667  49.4969575   9.9884868  71.5916752
  49.3615250  10.8336404  72.0201600  50.0379388  10.1904146  70.8282686
  42.9498973   7.5060306  72.1644677  43.4623493   8.3003557  72.3150242
  43.6021685   6.8086597  72.0978278  44.7593857  10.6226063  74.2467430
  44.9360486  11.5444027  74.0588414  45.5550691  10.3084482  74.6761810
  51.1238052  10.6108435  85.7217094  50.6801906   9.8244813  85.4037998
  51.7855265  10.7987585  85.0560985  45.8825173  12.1404236  80.2477772
  46.4332598  12.0121300  79.4754766  45.0436649  12.4399125  79.8972665
  53.2219290  10.8911235  83.7498495  53.2037765  11.7120116  83.2578764
  54.1439210  10.7665310  83.9748636  49.6792344   8.4055364  84.5922004
  50.2120681   7.6443652  84.3621311  49.1506425   8.1129016  85.3346158
  40.9147889   5.8348961  72.9404247  41.7523111   6.2445969  72.7237955
  41.0926157   4.8948403  72.9104441  52.8112321   3.5024041  68.6288080
  52.2958945   4.2728646  68.8676468  52.5389630   2.8289177  69.2521142
  50.3959432  -1.6526258  73.6873319  49.5401029  -2.0419408  73.5078957
  50.8086384  -1.5734297  72.8273104  57.7846596   6.2556396  70.5641254
  57.0076038   5.9167555  70.1196416  58.4638077   6.2609019  69.8896219
  52.5998625   1.3751133  70.4547862  52.2948760   1.6897283  71.3058005
  53.5529067   1.4532553  70.4975195  51.0445056   7.5341357  72.1040816
  50.5166418   6.7994116  71.7914053  50.5432559   8.3116033  71.8580784
  56.0237902   5.7290377  77.2207862  55.3661577   6.4189639  77.3087990
  56.8278302   6.1186809  77.5641848  45.7763784  -1.8038977  74.4647427
  46.3507536  -2.0263796  73.7320620  46.3634767  -1.7350283  75.2176028
  54.8343361   4.0834750  75.2711804  55.3475243   4.7164742  75.7733513
  55.4844585   3.4835945  74.9055164  46.1033371   0.2265484  68.4843312
  45.2670683   0.5640171  68.8052587  45.9638141   0.0914464  67.5470449
  49.1897657   5.3521567  65.1075789  48.2824718   5.1210820  65.3066938
  49.6868689   4.5559186  65.2949770  51.3124192   1.5584205  77.5170144
  50.3946754   1.7799152  77.3591832  51.7284336   1.6330516  76.6581851
  52.0959240   2.9575621  72.6472824  52.8431059   3.4697018  72.3379946
  52.3650829   2.6359674  73.5077218  55.6005157   9.0640751  73.3990946
  55.1467485   8.2231661  73.4556137  54.9699124   9.7002150  73.7365726
  54.5438077  -0.0067263  74.6291614  53.8060834  -0.5189876  74.9601856
  54.7964851  -0.4466881  73.8174891  54.0438097  10.9017248  74.3340764
  54.3361071  11.4622305  73.6153130  54.5536717  11.1945809  75.0893923
  40.9374060   3.1739676  73.6114981  40.7398460   2.5809037  72.8866047
  40.3820724   2.8691886  74.3290920  48.9170784   3.0662782  75.7309574
  48.9719394   2.1136619  75.6552051  48.1061986   3.2222222  76.2150872
  50.0661978   6.9942906  66.9687857  49.6281408   6.2778764  66.5093495
  50.8072419   7.2219020  66.4072949  46.8563144   1.6839842  73.4899953
  46.0431010   1.9834013  73.8965145  47.3522138   1.2895531  74.2074435
  49.0071722  11.6797599  75.4234218  48.9647901  11.9058445  74.4942750
  49.9234421  11.4460974  75.5720019  52.4537356   2.1481667  82.3214847
  52.8086743   2.3753140  83.1809313  53.1009487   2.4800043  81.6992102
  58.1835093   5.2700103  73.0264176  58.0452991   5.4601699  72.0985365
  57.8271311   6.0319485  73.4832227  46.3477219  -0.7441802  79.1061188
  46.9876598  -0.8853043  78.4084151  45.5154749  -1.0307289  78.7299790
  58.2104472   7.3376630  78.0375447  58.6440979   7.2451919  78.8858501
  58.9236053   7.3134130  77.3995463  47.1237523   8.5560628  75.2196180
  47.9178121   8.0610948  75.0178755  46.4129215   8.0278491  74.8563886
  51.9432367  10.9378724  79.5708548  51.9969389  11.5069660  80.3386264
  51.0747149  11.1080609  79.2062585  43.4320286   2.7003710  71.2955933
  42.5017874   2.6388165  71.5125895  43.5277758   2.1779663  70.4992574
  43.3505835  -0.7741477  73.8834175  43.6112653   0.1403856  73.7743335
  44.1723008  -1.2417035  74.0330787  59.0720022   7.3800330  80.5708333
  59.2655912   8.2846141  80.8167608  58.9720640   6.9207749  81.4046918
  50.9020467   5.1038986  81.1295480  51.8312527   5.2550145  80.9564447
  50.4811497   5.1923006  80.2744126  49.7008799   9.1289650  78.8994017
  49.5619884   8.7608435  79.7719955  48.9123395   9.6437290  78.7277975
  50.2956951  14.2298747  70.2419554  50.4708706  13.7586790  71.0565177
  49.6089739  14.8564513  70.4700815  51.2514014   8.5071253  76.2882855
  50.9163846   8.4672023  77.1840505  50.7517960   7.8415969  75.8153265
  54.1873205   5.8527287  66.5619915  53.5702376   5.1274115  66.4652968
  53.7189694   6.6136647  66.2186989  47.8540558   3.6258842  81.3019116
  48.5640177   2.9852034  81.2605734  47.8109867   3.8771737  82.2245297
  55.8427337  10.5626196  84.2225695  55.7839883   9.8785416  83.5556278
  56.2446856  11.3045186  83.7706321  44.8618036  17.3788109  77.0159414
  45.1014634  18.0106634  77.6938433  44.0187232  17.0276149  77.3024773
  45.9771751   0.0712711  65.6841219  45.1001218  -0.0498488  65.3203466
  46.4529504  -0.7201210  65.4320108  55.8444744   8.5265779  82.4539675
  54.9571523   8.1891701  82.5766074  56.4143295   7.7948811  82.6908440
  37.4973892   4.8589871  75.7782726  38.1844931   4.5451601  75.1903742
  37.3422020   5.7631236  75.5049978  49.3745898  13.1867232  79.4200918
  49.3016069  13.9922203  79.9320223  48.9323291  13.3859198  78.5948939
  49.1635677  12.4239002  72.9303740  48.3803199  12.9660682  73.0241964
  49.8628423  12.9412981  73.3297981  60.3262085   3.9373997  77.2156237
  60.3151961   4.8198712  76.8450170  59.4579464   3.5845548  77.0210774
  51.8344581  13.0854066  81.5759077  52.5472554  13.7201531  81.5034978
  51.3434610  13.1817932  80.7599079  53.5562108   6.9905319  73.1476368
  52.6218387   7.1106781  72.9781073  53.7338777   6.0877785  72.8836378
  49.0567296   0.3751014  75.3009630  48.6865084  -0.1777945  75.9890535
  49.5526389  -0.2290852  74.7484630  56.9434660   2.8322638  73.6826403
  57.4095112   3.6650629  73.6086705  57.3942160   2.3667619  74.3871661
  46.8856495  10.8348509  82.3964648  47.5865954  11.4684992  82.5494042
  46.4151610  11.1763241  81.6360287  55.0110891   9.1766459  70.6812555
  55.2870735   9.0623054  71.5906429  54.1415389   8.7783944  70.6424728
  54.6857781   3.3893117  80.2217198  54.0329231   3.6369024  79.5669651
  55.0638161   2.5757255  79.8879675  51.6464955  13.4252810  74.3245368
  51.8287349  12.6074466  74.7873121  52.4697941  13.6420502  73.8870258
  51.9807120  12.3520995  71.5860417  52.5094887  11.8413450  70.9730579
  52.2435340  12.0363525  72.4505950  42.4824213  10.3684864  79.3295750
  43.0677650   9.6228552  79.4623654  42.2849051  10.6788821  80.2132414
  45.3362868  13.4036112  74.3458193  44.6673243  13.8882239  73.8622233
  45.1975738  13.6505332  75.2601571  49.4768137  15.4379855  80.9440851
  50.0286445  15.6011477  81.7089936  49.8174330  16.0284293  80.2720876
  54.3279011  10.2641113  86.7989505  54.8718915  10.8771071  86.3044460
  53.7465856  10.8220691  87.3156518  40.7050445   1.6654567  71.1254125
  41.0003886   0.7565245  71.0721178  39.8038481   1.6442306  70.8035127
  52.6136524  13.3861831  77.9304533  52.4887663  12.5851571  77.4215479
  53.2715615  13.8808024  77.4418503  44.2344692  -0.2589437  77.1081673
  43.5131278   0.3546531  76.9689147  45.0237948   0.2768328  77.0298319
  54.6771432  11.1870851  79.5584083  53.7301768  11.0676202  79.4862410
  55.0254206  10.2993349  79.6410345  42.4338287  -0.6531336  71.2493450
  42.1050993  -1.5333957  71.0668556  42.7877658  -0.7083667  72.1369839
  51.6817866  10.9823567  75.7588435  51.5342828  10.0540274  75.9396005
  52.5071359  11.0043658  75.2745511  45.5480110  -0.3658366  71.6168928
  45.8876182   0.1627555  70.8947536  45.9952230  -0.0277960  72.3927494
  55.2851988  11.8052126  76.8453308  56.2098535  11.5994987  76.7077759
  55.1167291  11.5568527  77.7542650  47.5348257  -1.8683744  69.8162220
  48.2556620  -1.4902491  69.3125937  46.9113561  -1.1494867  69.9197198
  51.6779380  -1.1638595  70.7520553  51.8942994  -0.2813957  70.4509381
  51.1973447  -1.5552382  70.0226195  46.4178601   1.7947118  77.3291297
  46.2723182   2.1087421  78.2215579  45.9403805   2.4132018  76.7762196
  48.2774984  -1.2150334  77.3772187  48.2636553  -2.1109241  77.0404485
  48.9947412  -1.2079670  78.0110473  50.1301115  -0.7812994  79.4225314
  49.8718893   0.1404077  79.4209645  49.5986155  -1.1782559  80.1125778
  55.0747304  12.3237793  72.2015400  55.2484181  11.7584216  71.4489252
  55.5676195  13.1238688  72.0194890  40.8924264   4.3352462  80.2678958
  40.3477732   5.1112270  80.3999233  41.7703613   4.6823267  80.1098080
  47.6811880  -2.3335954  72.6459757  47.8027791  -3.2619308  72.8450644
  47.3913923  -2.3197268  71.7338072  60.9286695   5.0874216  73.8205699
  61.3717841   4.3381541  73.4224823  60.0513205   5.0784353  73.4379431
  56.0622476  11.6404558  69.3012298  56.7573381  12.2611250  69.5199613
  56.4045626  10.7899909  69.5764676  57.9613899   9.0904263  70.8299629
  58.4865223   9.4291536  70.1048949  57.8736252   8.1551279  70.6462763
  49.6233948  13.0038337  82.9589505  49.9321075  12.7587484  83.8312205
  50.4209430  13.2084975  82.4708376  49.6454560  15.1576246  75.1894882
  49.2059550  14.6652625  75.8827739  50.3962677  14.6149214  74.9486957
  42.1246899  11.3487787  75.1919510  42.9504919  11.0491559  74.8118153
  41.7740951  10.5795410  75.6409299  47.0928432  10.7014256  77.2617184
  46.4708442  10.0384961  76.9619411  47.7633299  10.7275387  76.5790831
  40.3255504   9.2674114  76.1508444  39.4887412   8.8396288  75.9692445
  40.2979150   9.4606557  77.0879235  57.6507805   9.7237167  86.1350827
  56.8603349   9.7061306  85.5955326  57.4141160  10.2625461  86.8899863
  57.7705680   6.5729633  83.4483555  57.8203685   6.4079641  84.3899078
  57.6619604   5.7056892  83.0581436  46.6541939   9.2518179  70.7375644
  46.8030060   9.9353643  70.0842317  47.4608383   9.2323269  71.2525100
  59.2723877   8.9926575  83.6925577  58.9808686   9.3556555  84.5289038
  58.6596009   8.2793583  83.5138909  60.4719560   6.5579455  76.2128147
  61.3066451   6.9969259  76.3765707  60.6078688   6.0818108  75.3936393
  57.5211066   4.1159189  82.1605635  57.9965187   4.3086836  81.3524486
  56.5976631   4.1718375  81.9149018  44.4094572   5.2783357  71.7436713
  44.1640614   4.3745687  71.9416923  44.5790487   5.2800507  70.8016191
  43.6790220   1.0111714  69.2422874  42.9859465   1.0856069  68.5862910
  43.4341972   0.2472058  69.7644391  50.1537345  11.7466309  68.2087392
  49.5811312  12.3656496  67.7557863  50.7270138  12.2965671  68.7427313
  56.2212735   0.9924949  80.3933940  57.1730157   1.0923047  80.4146164
  56.0516185   0.2003218  80.9032025  53.3734604  12.0303459  69.3395974
  54.3065278  11.9649021  69.5428849  53.2857817  12.8659726  68.8810506
  56.0022621  11.3469330  66.2999921  55.9236253  11.0129193  67.1935679
  56.8232288  11.8391098  66.2991394  58.7000812   4.2131069  79.5076240
  58.6677132   3.2747070  79.6935924  59.3101436   4.2915106  78.7742065
  50.5384143   3.0827122  65.5503444  51.4843248   2.9533330  65.6191862
  50.1598388   2.3441784  66.0272872  64.5177362   5.2747076  78.6482277
  65.2480751   5.0132364  79.2089980  63.9084308   4.5375798  78.6884345
  62.5992659   3.4154939  79.2456728  61.8725823   3.2810903  78.6373220
  62.1839946   3.7231767  80.0513446  48.7227060   1.0077098  65.4858329
  47.8158516   0.7110211  65.5621043  49.0003041   0.7106917  64.6192615
  39.6405001   2.3283462  75.9357376  39.3207785   1.4748770  75.6431750
  39.0938429   2.5432040  76.6915343  43.4184908   5.0445903  79.6526882
  43.6370918   5.9763011  79.6714916  43.8310682   4.6853877  80.4381686
  47.4925845  -2.1335966  65.6270308  48.3545009  -1.8081068  65.8866126
  47.6776189  -2.9204470  65.1143374  39.5093261   5.9486373  77.9050497
  38.8156732   5.5340326  77.3920452  40.2566252   5.9906910  77.3083916
  41.4230003   5.8804627  75.7816512  41.4000691   5.9792314  74.8298395
  41.7330640   6.7269778  76.1033678  44.0817381   7.9380782  79.8963127
  45.0360635   7.9064725  79.8293058  43.8829905   7.4771406  80.7113352
  44.6716763   6.5081898  82.4633924  45.4909652   7.0025977  82.4868761
  44.9453571   5.5913866  82.4351492  42.4367610  13.4800402  76.9133324
  42.3022078  12.7200803  76.3471322  42.0199672  14.2041302  76.4462113
  53.5726573   8.6637325  65.9209900  54.2762423   8.8687328  66.5367555
  52.8489222   9.2314087  66.1858983  54.4024383   4.4147186  72.0412170
  54.3459585   4.8715738  71.2019802  54.9552726   3.6537871  71.8635013
  62.5241527   2.9432992  75.3733581  61.9641085   3.0126181  76.1465143
  61.9185030   2.7673976  74.6533077  45.5936736  14.3769719  77.1251767
  45.4769120  15.3215151  77.0230457  44.7729182  14.0743280  77.5137566
  55.4813270   9.1019854  67.9708360  56.3158874   8.6701053  67.7885835
  55.3197613   8.9301868  68.8985254  55.1359163   5.6051968  69.3364699
  55.0807966   5.4396239  68.3953143  54.5105218   6.3128001  69.4926889
  46.6191250  15.0297981  80.3407695  47.5218497  15.0621591  80.6574190
  46.3928620  14.0998432  80.3554031  48.3744852  13.7828967  77.0017774
  47.4240483  13.7830829  76.8882146  48.6777338  13.0361702  76.4853809
  64.1097545  19.6189506  78.0663536  64.7475955  19.4996253  77.3626877
  63.9918388  20.5670349  78.1251489  60.9187252  19.5716934  78.0025061
  60.5805763  19.4557998  77.1145596  61.7877020  19.1708099  77.9826067
  56.7774067  21.4252410  73.9921952  56.2138933  21.3342347  73.2238240
  56.6626462  20.6052315  74.4724445  61.4007035  20.7251785  83.9611267
  61.3895675  20.3304584  83.0891770  61.5627674  19.9917858  84.5545038
  54.3238499  22.9203602  76.8306173  55.1159791  22.5794426  76.4152472
  54.5635150  23.0298577  77.7508326  58.1214296  23.5088897  82.9090451
  57.8304162  24.4134528  82.7937117  58.7571280  23.5505425  83.6234520
  59.0470503  20.8865746  79.4991810  59.6434075  20.6621768  78.7848773
  59.1045474  20.1450491  80.1017258  63.6638814  17.3440959  75.1416745
  64.4501903  16.9260383  74.7907162  63.9277518  18.2487052  75.3098393
  63.8348891  22.7813810  69.8405401  63.1994724  22.8548436  70.5526306
  63.5046298  23.3707409  69.1624481  69.0647241  17.2816193  76.0449723
  69.7972413  16.7115409  76.2787553  68.3086597  16.8937793  76.4856229
  60.6823361  19.7043434  73.2413065  60.3181568  19.1774055  73.9525987
  61.5390477  19.3141903  73.0679551  66.5872661  10.9937767  80.5044332
  66.2555986  11.8633178  80.2805547  65.9918275  10.6774051  81.1838362
  60.3228848  14.7333334  68.2374414  60.4903250  15.6013570  68.6044885
  60.1326017  14.8960615  67.3135703  63.0804181  23.1950313  79.9040244
  62.7804904  24.0975351  79.7956052  62.7355240  22.9282496  80.7561397
  56.5316662  19.6464110  75.9376949  55.6067159  19.5140324  76.1454641
  56.7801076  20.4258329  76.4346891  66.4801325  15.7132853  77.5837682
  65.5718202  15.6448261  77.2896443  66.4288921  16.1904798  78.4119507
  60.3018069  17.1890991  69.2221081  60.1817694  17.6348042  70.0606561
  59.6070657  17.5376309  68.6634619  53.8925473  19.2897383  76.7720738
  54.0217855  19.5431862  77.6860150  53.2122925  19.8825091  76.4525393
  58.0624961  29.9594633  72.8711212  57.9848990  30.9102458  72.9499693
  57.4586604  29.6140506  73.5286138  60.5542190  17.1322498  85.5272579
  59.7775525  17.6916419  85.5175444  61.1932754  17.6179281  86.0487449
  68.3462971  13.9149291  79.3615556  67.7037351  14.2081824  78.7155350
  67.8417900  13.8002212  80.1668752  66.0003135  17.6612464  70.0501415
  66.9120991  17.8939851  69.8749112  65.4912782  18.2449509  69.4876493
  58.8088563  19.9407952  85.0890546  59.5503247  20.4792996  84.8125370
  58.1025548  20.5674241  85.2462098  64.2843902  22.0837092  83.6862707
  64.6927258  21.6419503  82.9417340  63.5621164  21.5089720  83.9396900
  60.6374972  17.0209699  81.0596264  61.4836168  17.4449113  81.2030913
  60.5773610  16.3643323  81.7534828  64.6072717  22.6438283  77.4414996
  63.9781580  22.8083997  76.7391064  64.2198379  23.0579892  78.2125960
  68.4861949  23.5792721  74.7959360  67.8012987  23.9591622  74.2456393
  68.5705798  24.1888047  75.5291308  63.7874418  14.6814067  82.7177438
  63.5435350  15.4356128  82.1811714  64.0634348  15.0599415  83.5524685
  65.7412881  21.2252680  81.3954704  65.9529776  21.8684440  80.7189085
  65.6942629  20.3914996  80.9276634  63.3439110  13.8370500  78.2991276
  62.4823589  14.1351754  78.5908013  63.3701544  14.0540899  77.3672308
  60.1600679  22.3812691  74.7065081  60.6239024  22.6600394  73.9169704
  59.8957477  21.4796136  74.5238172  57.0524760  21.9284173  77.6444845
  57.6226117  22.3571441  77.0062329  57.6432872  21.6466757  78.3429030
  59.0969565  18.5035843  71.5154647  59.7993608  18.9556887  71.9828573
  58.7650194  17.8619662  72.1434540  57.5449927  17.0947600  85.8905856
  56.9148587  17.7763881  86.1241253  57.4386014  16.9830682  84.9458994
  52.8394899  16.7619396  76.8171780  52.0493953  17.0176925  76.3411891
  53.3306146  17.5767734  76.9223821  66.8558709  24.1024635  79.5677061
  67.6776152  23.7004822  79.2859743  66.8521111  23.9992869  80.5193177
  54.7909644  17.1263975  73.7755257  53.9940808  17.2382670  74.2938753
  54.5635237  17.4650627  72.9096147  60.6215312  23.6508678  81.7237771
  60.6859745  24.1129086  82.5595943  59.9126236  23.0206043  81.8520081
  51.1232602  17.0149886  79.2486771  51.3740640  17.8996896  79.5144347
  51.6592150  16.8354488  78.4761863  74.9464702  20.4463384  75.9162032
  74.1928410  19.8770782  75.7606037  75.0812243  20.4126048  76.8632667
  60.3363330  25.3176786  71.5916752  60.2009004  26.1628322  72.0201600
  60.8773142  25.5196064  70.8282686  56.8230669  11.3968366  88.2531107
  56.4297615  10.8434564  88.9278751  57.6396810  11.7078944  88.6437625
  59.7398630  12.8126245  85.8451364  60.4808344  13.4133398  85.7655826
  59.9716553  12.0703883  85.2869406  54.8839968  17.9982612  84.1229593
  54.7693483  17.0967869  84.4236692  54.0284486  18.2446309  83.7714410
  61.9631806  25.9400352  85.7217094  61.5195660  25.1536731  85.4037998
  62.6249020  26.1279503  85.0560985  56.7218927  27.4696154  80.2477772
  57.2726352  27.3413217  79.4754766  55.8830403  27.7691043  79.8972665
  64.0613044  26.2203152  83.7498495  64.0431519  27.0412033  83.2578764
  64.9832964  26.0957228  83.9748636  60.5186098  23.7347282  84.5922004
  61.0514435  22.9735570  84.3621311  59.9900179  23.4420934  85.3346158
  63.6855793   8.8407348  80.1215645  63.3420063   9.7308990  80.0454756
  64.0534756   8.6509006  79.2585230  63.6506076  18.8315959  68.6288080
  63.1352699  19.6020564  68.8676468  63.3783384  18.1581095  69.2521142
  61.2353187  13.6765660  73.6873319  60.3794783  13.2872510  73.5078957
  61.6480139  13.7557621  72.8273104  62.7652334  11.2112003  78.0864879
  62.2617129  11.1742138  77.2732684  63.0582940  12.1204746  78.1461535
  59.0095219  11.2950733  77.0931060  59.8748216  11.0993541  76.7336950
  59.0772728  11.0661085  78.0200417  68.6240350  21.5848314  70.5641254
  67.8469793  21.2459473  70.1196416  69.3031831  21.5900937  69.8896219
  63.4392379  16.7043051  70.4547862  63.1342515  17.0189200  71.3058005
  64.3922821  16.7824471  70.4975195  61.8838811  22.8633274  72.1040816
  61.3560173  22.1286034  71.7914053  61.3826314  23.6407951  71.8580784
  66.8631657  21.0582295  77.2207862  66.2055331  21.7481556  77.3087990
  67.6672056  21.4478727  77.5641848  56.6157539  13.5252941  74.4647427
  57.1901290  13.3028122  73.7320620  57.2028521  13.5941635  75.2176028
  65.6737116  19.4126668  75.2711804  66.1868998  20.0456659  75.7733513
  66.3238340  18.8127863  74.9055164  58.9180206  10.3994190  73.1922496
  58.2644619  10.0843207  72.5679111  58.8760680   9.7769930  73.9182319
  62.1517947  16.8876123  77.5170144  61.2340508  17.1091070  77.3591832
  62.5678090  16.9622434  76.6581851  62.9352994  18.2867539  72.6472824
  63.6824813  18.7988936  72.3379946  63.2044584  17.9651592  73.5077218
  61.2079645  20.7826080  69.6299779  60.2990864  20.4985112  69.7272248
  61.2374728  21.2025158  68.7703086  66.4398912  24.3932669  73.3990946
  65.9861239  23.5523579  73.4556137  65.8092879  25.0294067  73.7365726
  65.3831832  15.3224655  74.6291614  64.6454588  14.8102041  74.9601856
  65.6358605  14.8825037  73.8174891  64.8831851  26.2309166  74.3340764
  65.1754826  26.7914223  73.6153130  65.3930472  26.5237727  75.0893923
  65.4843459   8.1000907  75.2233383  65.7902336   7.2398270  74.9359298
  66.2096064   8.6918527  75.0232377  59.7564539  18.3954700  75.7309574
  59.8113148  17.4428537  75.6552051  58.9455741  18.5514139  76.2150872
  57.6956899  17.0131760  73.4899953  56.8824764  17.3125930  73.8965145
  58.1915893  16.6187449  74.2074435  59.8465476  27.0089517  75.4234218
  59.8041655  27.2350363  74.4942750  60.7628175  26.7752891  75.5720019
  63.2931110  17.4773584  82.3214847  63.6480498  17.7045057  83.1809313
  63.9403241  17.8091961  81.6992102  69.0228847  20.5992020  73.0264176
  68.8846746  20.7893616  72.0985365  68.6665066  21.3611403  73.4832227
  57.1870973  14.5850115  79.1061188  57.8270353  14.4438874  78.4084151
  56.3548504  14.2984629  78.7299790  69.0498227  22.6668547  78.0375447
  69.4834733  22.5743836  78.8858501  69.7629807  22.6426048  77.3995463
  57.9631277  23.8852546  75.2196180  58.7571876  23.3902866  75.0178755
  57.2522970  23.3570409  74.8563886  62.7826122  26.2670641  79.5708548
  62.8363144  26.8361578  80.3386264  61.9140903  26.4372526  79.2062585
  54.1899590  14.5550440  73.8834175  54.4506407  15.4695774  73.7743335
  55.0116762  14.0874883  74.0330787  55.6624515  15.9688198  81.0532999
  56.3347568  15.7605560  80.4045648  54.8354302  15.7710284  80.6138231
  69.9113776  22.7092248  80.5708333  70.1049666  23.6138058  80.8167608
  69.8114394  22.2499667  81.4046918  61.5650087  12.5950138  83.0698660
  60.9178002  13.2940088  82.9763136  62.3351102  13.0286282  83.4374908
  64.9728885  22.8598991  86.1449213  64.8214391  22.6309542  85.2279297
  64.9633564  23.8169592  86.1580558  61.7414221  20.4330903  81.1295480
  62.6706281  20.5842063  80.9564447  61.3205251  20.5214924  80.2744126
  60.5402553  24.4581568  78.8994017  60.4013639  24.0900352  79.7719955
  59.7517149  24.9729207  78.7277975  62.0907768  23.8363170  76.2882855
  61.7557601  23.7963940  77.1840505  61.5911714  23.1707886  75.8153265
  56.0652012  19.2430801  81.8135436  55.9271810  18.5111039  82.4146975
  56.9756936  19.1539701  81.5319624  65.0266960  21.1819205  66.5619915
  64.4096131  20.4566033  66.4652968  64.5583448  21.9428565  66.2186989
  58.6934313  18.9550760  81.3019116  59.4033931  18.3143952  81.2605734
  58.6503621  19.2063655  82.2245297  66.6821092  25.8918113  84.2225695
  66.6233638  25.2077333  83.5556278  67.0840610  26.6337103  83.7706321
  57.4063247  15.9415978  83.1214755  56.8700604  15.4906716  83.7736352
  56.8179955  16.0761887  82.3785220  55.7011790  32.7080027  77.0159414
  55.9408389  33.3398551  77.6938433  54.8580987  32.3568067  77.3024773
  66.6838499  23.8557697  82.4539675  65.7965278  23.5183619  82.5766074
  67.2537050  23.1240728  82.6908440  48.3367646  20.1881789  75.7782726
  49.0238686  19.8743519  75.1903742  48.1815775  21.0923154  75.5049978
  53.1402368  15.0771985  80.2067750  53.0560557  14.4697655  79.4718160
  52.3185075  15.5681004  80.2077246  60.2139652  28.5159149  79.4200918
  60.1409824  29.3214121  79.9320223  59.7717045  28.7151115  78.5948939
  60.0029432  27.7530919  72.9303740  59.2196954  28.2952600  73.0241964
  60.7022177  28.2704899  73.3297981  63.3126082  13.5625549  75.5737945
  63.8094782  12.8095511  75.2539015  62.5413064  13.5989866  75.0081154
  71.1655839  19.2665914  77.2156237  71.1545716  20.1490630  76.8450170
  70.2973219  18.9137465  77.0210774  62.6738336  28.4145983  81.5759077
  63.3866308  29.0493448  81.5034978  62.1828364  28.5109849  80.7599079
  64.3955863  22.3197236  73.1476368  63.4612141  22.4398699  72.9781073
  64.5732531  21.4169703  72.8836378  59.8961051  15.7042932  75.3009630
  59.5258838  15.1513972  75.9890535  60.3920143  15.1001065  74.7484630
  67.7828414  18.1614555  73.6826403  68.2488866  18.9942547  73.6086705
  68.2335915  17.6959537  74.3871661  57.7250249  26.1640427  82.3964648
  58.4259709  26.7976910  82.5494042  57.2545364  26.5055159  81.6360287
  65.8504645  24.5058377  70.6812555  66.1264489  24.3914971  71.5906429
  64.9809144  24.1075862  70.6424728  65.7545077  10.5295142  77.7217304
  64.8408157  10.7599369  77.8899511  66.1838178  10.6133587  78.5731336
  65.5251535  18.7185034  80.2217198  64.8722986  18.9660942  79.5669651
  65.9031915  17.9049173  79.8879675  62.4858709  28.7544728  74.3245368
  62.6681104  27.9366384  74.7873121  63.3091695  28.9712420  73.8870258
  61.5739108  19.4604845  86.7083235  60.8979745  19.3598975  87.3785610
  62.3966742  19.3044059  87.1719232  53.3217967  25.6976782  79.3295750
  53.9071404  24.9520470  79.4623654  53.1242806  26.0080739  80.2132414
  47.9135622  18.2682382  78.0500193  47.9519722  17.7345973  78.8437311
  47.4075915  17.7417588  77.4311171  60.3161891  30.7671773  80.9440851
  60.8680199  30.9303394  81.7089936  60.6568085  31.3576211  80.2720876
  55.2926384  13.1146923  81.5462736  55.3567711  13.9761754  81.1340133
  55.2293505  12.5020924  80.8135094  54.7678657  15.1870055  85.1935770
  55.3950696  14.8047133  85.8073294  53.9106576  14.9684257  85.5591462
  65.1672766  25.5933030  86.7989505  65.7112670  26.2062989  86.3044460
  64.5859610  26.1512609  87.3156518  51.5444200  16.9946484  71.1254125
  51.8397641  16.0857163  71.0721178  50.6432235  16.9734224  70.8035127
  63.4530279  28.7153748  77.9304533  63.3281418  27.9143488  77.4215479
  64.1109370  29.2099942  77.4418503  55.0738447  15.0702481  77.1081673
  54.3525032  15.6838449  76.9689147  55.8631703  15.6060246  77.0298319
  65.5165187  26.5162769  79.5584083  64.5695522  26.3968120  79.4862410
  65.8647960  25.6285267  79.6410345  57.8764760  12.4056907  83.3822325
  58.3999162  12.6519204  84.1448634  57.6577094  13.2376942  82.9625462
  53.2732041  14.6760582  71.2493450  52.9444747  13.7957961  71.0668556
  53.6271412  14.6208251  72.1369839  62.5211620  26.3115485  75.7588435
  62.3736583  25.3832192  75.9396005  63.3465114  26.3335575  75.2745511
  66.1245742  27.1344043  76.8453308  67.0492290  26.9286905  76.7077759
  65.9561045  26.8860445  77.7542650  59.0817305  13.3470603  81.0671996
  58.7414126  12.5478416  81.4692676  58.3756312  13.6472313  80.4948829
  59.7333777  10.4319915  79.5199319  60.5559846   9.9580393  79.3978209
  59.9771841  11.2110399  80.0198005  58.3742012  13.4608173  69.8162220
  59.0950374  13.8389426  69.3125937  57.7507316  14.1797050  69.9197198
  62.5173134  14.1653322  70.7520553  62.7336749  15.0477960  70.4509381
  62.0367202  13.7739536  70.0226195  57.2572356  17.1239036  77.3291297
  57.1116937  17.4379339  78.2215579  56.7797560  17.7423936  76.7762196
  59.1168739  14.1141584  77.3772187  59.1030308  13.2182677  77.0404485
  59.8341167  14.1212247  78.0110473  60.9694869  14.5478924  79.4225314
  60.7112647  15.4695994  79.4209645  60.4379910  14.1509358  80.1125778
  65.9141058  27.6529711  72.2015400  66.0877936  27.0876133  71.4489252
  66.4069949  28.4530606  72.0194890  51.7318018  19.6644380  80.2678958
  51.1871486  20.4404188  80.3999233  52.6097368  20.0115184  80.1098080
  58.5205635  12.9955964  72.6459757  58.6421546  12.0672610  72.8450644
  58.2307677  13.0094650  71.7338072  61.3896825  10.6810874  75.7826477
  61.4118522  10.7450207  74.8278456  61.8064884   9.8415383  75.9766983
  71.7680449  20.4166134  73.8205699  72.2111595  19.6673459  73.4224823
  70.8906960  20.4076270  73.4379431  52.5184040  18.7914276  83.1609115
  51.7765776  18.9396912  83.7473746  52.1976784  19.0522542  82.2975865
  68.8007654  24.4196181  70.8299629  69.3258978  24.7583454  70.1048949
  68.7130006  23.4843196  70.6462763  60.4627703  28.3330255  82.9589505
  60.7714829  28.0879401  83.8312205  61.2603185  28.5376893  82.4708376
  60.4848315  30.4868164  75.1894882  60.0453305  29.9944543  75.8827739
  61.2356432  29.9441132  74.9486957  57.9322187  26.0306173  77.2617184
  57.3102196  25.3676878  76.9619411  58.6027054  26.0567305  76.5790831
  51.1649259  24.5966031  76.1508444  50.3281167  24.1688206  75.9692445
  51.1372904  24.7898475  77.0879235  58.0046714  14.5087961  86.8549690
  58.0534870  15.3850084  86.4727459  58.5469228  13.9665354  86.2821333
  68.4901560  25.0529085  86.1350827  67.6997104  25.0353223  85.5955326
  68.2534914  25.5917378  86.8899863  68.6099435  21.9021551  83.4483555
  68.6597440  21.7371558  84.3899078  68.5013358  21.0348810  83.0581436
  65.9003197  17.8852479  84.7642862  66.8013060  17.7458944  84.4726860
  65.9751172  18.0506934  85.7041039  60.2346003  15.2619334  83.6096048
  59.3649312  15.5552900  83.3378637  60.4705483  15.8459779  84.3303312
  70.1117632  24.3218492  83.6925577  69.8202440  24.6848473  84.5289038
  69.4989763  23.6085501  83.5138909  71.3113314  21.8871372  76.2128147
  72.1460205  22.3261176  76.3765707  71.4472443  21.4110025  75.3936393
  68.3604820  19.4451107  82.1605635  68.8358942  19.6378753  81.3524486
  67.4370385  19.5010293  81.9149018  62.9385037  11.4798951  81.1261469
  63.4566980  12.2159978  80.8007957  62.5840169  11.7862944  81.9608228
  63.1897631   7.8999233  76.6462365  63.4699384   7.2322422  77.2722792
  63.9748238   8.0928329  76.1337029  67.0606489  16.3216867  80.3933940
  68.0123912  16.4214965  80.4146164  66.8909939  15.5295136  80.9032025
  65.0820869  13.4072450  80.5793341  64.4870801  13.6877463  79.8839830
  64.7970565  13.8966351  81.3510082  69.5394567  19.5422987  79.5076240
  69.5070887  18.6038988  79.6935924  70.1495190  19.6207024  78.7742065
  69.6889055  16.3334030  79.5534523  69.1728104  15.5492487  79.3664452
  70.5729004  16.0052747  79.7181043  67.3499782  10.0775046  75.5130336
  67.1524603   9.7690134  76.3973668  67.9599488  10.8036685  75.6428266
  75.3571117  20.6038994  78.6482277  76.0874505  20.3424282  79.2089980
  74.7478062  19.8667716  78.6884345  73.4386414  18.7446856  79.2456728
  72.7119577  18.6102821  78.6373220  73.0233701  19.0523685  80.0513446
  61.2616590  22.4636786  87.0104101  62.1819600  22.6415385  87.2044148
  61.2266173  21.5192831  86.8583800  50.4798755  17.6575380  75.9357376
  50.1601540  16.8040688  75.6431750  49.9332183  17.8723958  76.6915343
  54.2578663  20.3737821  79.6526882  54.4764673  21.3054928  79.6714916
  54.6704437  20.0145795  80.4381686  61.1782881  10.8805906  71.6402571
  60.3683609  10.5352991  72.0157817  61.8667297  10.5713450  72.2290182
  63.1073429   9.9583953  73.2626867  63.6604467  10.3779406  73.9216890
  63.3443515   9.0319701  73.3049823  59.1306528  15.9471026  89.0429631
  59.0303255  16.8965383  88.9741722  58.9128070  15.6189265  88.1705701
  58.3319599  13.1955951  65.6270308  59.1938763  13.5210850  65.8866126
  58.5169944  12.4087447  65.1143374  50.3487015  21.2778291  77.9050497
  49.6550487  20.8632244  77.3920452  51.0960006  21.3198828  77.3083916
  66.4852236  12.0684478  72.7705531  65.9050905  12.7269282  72.3883584
  66.2188169  11.2461822  72.3592949  64.9355802  11.4689536  74.9726852
  65.4355581  11.5806070  74.1641171  65.5791410  11.1650588  75.6127660
  58.9937798  19.3768165  87.8594693  58.5104880  20.1768525  88.0658582
  59.0798737  19.3876110  86.9062137  54.9211136  23.2672700  79.8963127
  55.8754389  23.2356642  79.8293058  54.7223659  22.8063324  80.7113352
  55.5110518  21.8373816  82.4633924  56.3303407  22.3317895  82.4868761
  55.7847325  20.9205784  82.4351492  65.2677114  14.2284568  71.8261880
  64.3802969  14.5134219  71.6082074  65.6831103  14.0678332  70.9789157
  68.6191650  14.2531089  75.5416219  69.3952040  14.7427542  75.8140836
  67.8939784  14.6789143  75.9988088  71.0564209  14.9658708  76.5990160
  71.6508700  14.7254444  75.8883468  71.1290792  14.2465839  77.2263696
  53.2761364  28.8092319  76.9133324  53.1415832  28.0492720  76.3471322
  52.8593427  29.5333219  76.4462113  65.2418138  19.7439104  72.0412170
  65.1853339  20.2007656  71.2019802  65.7946480  18.9829789  71.8635013
  69.0522944  15.5328836  72.8662289  68.7959878  15.1325472  73.6970497
  68.4275812  16.2472630  72.7412429  73.3635281  18.2724909  75.3733581
  72.8034839  18.3418099  76.1465143  72.7578785  18.0965894  74.6533077
  56.4330490  29.7061636  77.1251767  56.3162874  30.6507069  77.0230457
  55.6122937  29.4035198  77.5137566  65.9752917  20.9343885  69.3364699
  65.9201721  20.7688157  68.3953143  65.3498972  21.6419918  69.4926889
  50.7645432  16.1711950  83.1626121  51.4104296  15.6610904  83.6513346
  50.5562583  16.9080631  83.7369547  63.2898824  23.2392797  88.6618262
  64.1589984  23.4133450  88.3004897  62.8105576  24.0587214  88.5393991
  59.2849042  10.4351994  68.9150017  59.2727712  11.3793834  69.0718288
  60.1772464  10.2522140  68.6209479  57.4585004  30.3589898  80.3407695
  58.3612251  30.3913509  80.6574190  57.2322374  29.4290349  80.3554031
  59.2138606  29.1120885  77.0017774  58.2634237  29.1122746  76.8882146
  59.5171093  28.3653619  76.4853809  63.1001162   7.0294771  73.1695954
  62.3333558   6.4753258  73.3152637  63.5111867   7.1016640  74.0310106
  55.1042923  13.3179567  87.2601135  55.9674385  12.9616372  87.4704460
  54.5308334  12.9793462  87.9476540  74.9491300  34.9481423  78.0663536
  75.5869710  34.8288171  77.3626877  74.8312143  35.8962267  78.1251489
  71.7581006  34.9008851  78.0025061  71.4199518  34.7849916  77.1145596
  72.6270774  34.5000016  77.9826067  67.6167822  36.7544328  73.9921952
  67.0532687  36.6634265  73.2238240  67.5020217  35.9344232  74.4724445
  72.2400789  36.0543703  83.9611267  72.2289430  35.6596501  83.0891770
  72.4021429  35.3209776  84.5545038  65.1632254  38.2495519  76.8306173
  65.9553546  37.9086344  76.4152472  65.4028904  38.3590494  77.7508326
  73.1967381  40.4215295  69.3036417  72.5455360  41.0069376  68.9170431
  73.9911743  40.9521490  69.3631455  67.1223008  37.5104433  69.7023551
  67.8953884  36.9633420  69.5636427  67.4748407  38.3748682  69.9138013
  68.9608050  38.8380815  82.9090451  68.6697916  39.7426446  82.7937117
  69.5965035  38.8797342  83.6234520  69.8864257  36.2157663  79.4991810
  70.4827829  35.9913686  78.7848773  69.9439229  35.4742409  80.1017258
  69.4589286  33.6697099  67.3342001  69.7114806  33.1478620  66.5725464
  68.5213845  33.5063244  67.4368685  74.5032568  32.6732877  75.1416745
  75.2895658  32.2552300  74.7907162  74.7671273  33.5778969  75.3098393
  74.6742646  38.1105727  69.8405401  74.0388479  38.1840354  70.5526306
  74.3440052  38.6999326  69.1624481  79.9040996  32.6108110  76.0449723
  80.6366167  32.0407327  76.2787553  79.1480351  32.2229711  76.4856229
  69.1785574  35.5725205  69.5366376  69.0621832  34.8970108  70.2047461
  69.2887834  35.0857579  68.7198529  71.5217115  35.0335352  73.2413065
  71.1575322  34.5065973  73.9525987  72.3784231  34.6433821  73.0679551
  77.4266416  26.3229684  80.5044332  77.0949741  27.1925095  80.2805547
  76.8312029  26.0065968  81.1838362  71.1622602  30.0625251  68.2374414
  71.3297005  30.9305488  68.6044885  70.9719771  30.2252533  67.3135703
  73.9197935  38.5242230  79.9040244  73.6198659  39.4267269  79.7956052
  73.5748995  38.2574414  80.7561397  67.3710417  34.9756027  75.9376949
  66.4460913  34.8432241  76.1454641  67.6194830  35.7550246  76.4346891
  77.3195079  31.0424771  77.5837682  76.4111957  30.9740179  77.2896443
  77.2682675  31.5196715  78.4119507  71.1411823  32.5182909  69.2221081
  71.0211448  32.9639960  70.0606561  70.4464411  32.8668227  68.6634619
  64.7319228  34.6189301  76.7720738  64.8611609  34.8723780  77.6860150
  64.0516679  35.2117009  76.4525393  68.9018715  45.2886551  72.8711212
  68.8242745  46.2394376  72.9499693  68.2980359  44.9432423  73.5286138
  71.3935945  32.4614416  85.5272579  70.6169279  33.0208336  85.5175444
  72.0326508  32.9471199  86.0487449  79.1856726  29.2441209  79.3615556
  78.5431106  29.5373742  78.7155350  78.6811654  29.1294129  80.1668752
  76.8396889  32.9904382  70.0501415  77.7514745  33.2231769  69.8749112
  76.3306536  33.5741426  69.4876493  69.6482317  35.2699869  85.0890546
  70.3897002  35.8084913  84.8125370  68.9419303  35.8966158  85.2462098
  75.1237657  37.4129010  83.6862707  75.5321013  36.9711420  82.9417340
  74.4014918  36.8381637  83.9396900  71.4768727  32.3501617  81.0596264
  72.3229922  32.7741030  81.2030913  71.4167365  31.6935241  81.7534828
  75.4466472  37.9730201  77.4414996  74.8175334  38.1375915  76.7391064
  75.0592134  38.3871810  78.2125960  79.3255703  38.9084638  74.7959360
  78.6406742  39.2883540  74.2456393  79.4099553  39.5179965  75.5291308
  74.6268172  30.0105985  82.7177438  74.3829104  30.7648046  82.1811714
  74.9028103  30.3891333  83.5524685  76.5806635  36.5544597  81.3954704
  76.7923530  37.1976357  80.7189085  76.5336383  35.7206914  80.9276634
  74.1832864  29.1662418  78.2991276  73.3217343  29.4643672  78.5908013
  74.2095299  29.3832817  77.3672308  70.9994433  37.7104609  74.7065081
  71.4632779  37.9892312  73.9169704  70.7351232  36.8088053  74.5238172
  67.8918515  37.2576090  77.6444845  68.4619872  37.6863359  77.0062329
  68.4826626  36.9758675  78.3429030  69.9363320  33.8327761  71.5154647
  70.6387363  34.2848805  71.9828573  69.6043948  33.1911580  72.1434540
  68.3843681  32.4239518  85.8905856  67.7542342  33.1055799  86.1241253
  68.2779769  32.3122599  84.9458994  63.6788653  32.0911314  76.8171780
  62.8887707  32.3468842  76.3411891  64.1699901  32.9059652  76.9223821
  77.6952463  39.4316553  79.5677061  78.5169907  39.0296740  79.2859743
  77.6914866  39.3284787  80.5193177  65.6303399  32.4555893  73.7755257
  64.8334562  32.5674587  74.2938753  65.4028991  32.7942545  72.9096147
  71.4609066  38.9800596  81.7237771  71.5253499  39.4421003  82.5595943
  70.7519990  38.3497961  81.8520081  61.9626356  32.3441804  79.2486771
  62.2134395  33.2288814  79.5144347  62.4985905  32.1646406  78.4761863
  85.7858456  35.7755301  75.9162032  85.0322164  35.2062699  75.7606037
  85.9205997  35.7417966  76.8632667  71.1757084  40.6468704  71.5916752
  71.0402759  41.4920239  72.0201600  71.7166897  40.8487981  70.8282686
  67.6624424  26.7260284  88.2531107  67.2691369  26.1726482  88.9278751
  68.4790564  27.0370862  88.6437625  64.6286482  38.1644142  72.1644677
  65.1411002  38.9587392  72.3150242  65.2809194  37.4670432  72.0978278
  66.4381366  41.2809898  74.2467430  66.6147995  42.2027863  74.0588414
  67.2338200  40.9668317  74.6761810  70.5792385  28.1418163  85.8451364
  71.3202098  28.7425316  85.7655826  70.8110308  27.3995800  85.2869406
  65.7233723  33.3274530  84.1229593  65.6087238  32.4259787  84.4236692
  64.8678241  33.5738227  83.7714410  72.8025561  41.2692270  85.7217094
  72.3589415  40.4828649  85.4037998  73.4642774  41.4571421  85.0560985
  67.5612682  42.7988072  80.2477772  68.1120107  42.6705135  79.4754766
  66.7224158  43.0982961  79.8972665  74.9006799  41.5495070  83.7498495
  74.8825274  42.3703951  83.2578764  75.8226719  41.4249145  83.9748636
  71.3579853  39.0639200  84.5922004  71.8908190  38.3027488  84.3621311
  70.8293934  38.7712851  85.3346158  74.5249548  24.1699266  80.1215645
  74.1813817  25.0600907  80.0454756  74.8928510  23.9800923  79.2585230
  62.5935398  36.4932796  72.9404247  63.4310620  36.9029804  72.7237955
  62.7713666  35.5532238  72.9104441  74.4899830  34.1607877  68.6288080
  73.9746454  34.9312481  68.8676468  74.2177139  33.4873013  69.2521142
  72.0746941  29.0057577  73.6873319  71.2188538  28.6164428  73.5078957
  72.4873893  29.0849538  72.8273104  73.6046088  26.5403921  78.0864879
  73.1010884  26.5034056  77.2732684  73.8976695  27.4496663  78.1461535
  69.8488974  26.6242650  77.0931060  70.7141971  26.4285459  76.7336950
  69.9166483  26.3953002  78.0200417  79.4634105  36.9140231  70.5641254
  78.6863547  36.5751391  70.1196416  80.1425586  36.9192854  69.8896219
  74.2786134  32.0334969  70.4547862  73.9736269  32.3481118  71.3058005
  75.2316576  32.1116389  70.4975195  72.7232565  38.1925192  72.1040816
  72.1953927  37.4577952  71.7914053  72.2220068  38.9699868  71.8580784
  77.7025411  36.3874213  77.2207862  77.0449086  37.0773474  77.3087990
  78.5065811  36.7770644  77.5641848  67.4551293  28.8544858  74.4647427
  68.0295045  28.6320040  73.7320620  68.0422275  28.9233553  75.2176028
  76.5130870  34.7418585  75.2711804  77.0262752  35.3748577  75.7733513
  77.1632094  34.1419781  74.9055164  69.7573961  25.7286107  73.1922496
  69.1038373  25.4135124  72.5679111  69.7154435  25.1061848  73.9182319
  70.8685166  36.0105402  65.1075789  69.9612227  35.7794656  65.3066938
  71.3656198  35.2143022  65.2949770  73.7753245  44.7202910  68.0272475
  73.1014943  45.0234606  68.6357433  74.1619066  45.5231990  67.6777932
  72.9911701  32.2168041  77.5170144  72.0734262  32.4382988  77.3591832
  73.4071845  32.2914351  76.6581851  73.7746749  33.6159456  72.6472824
  74.5218568  34.1280854  72.3379946  74.0438338  33.2943509  73.5077218
  72.0473399  36.1117997  69.6299779  71.1384618  35.8277030  69.7272248
  72.0768483  36.5317076  68.7703086  77.2792666  39.7224587  73.3990946
  76.8254994  38.8815497  73.4556137  76.6486633  40.3585985  73.7365726
  76.2225586  30.6516573  74.6291614  75.4848343  30.1393959  74.9601856
  76.4752360  30.2116954  73.8174891  75.7225606  41.5601083  74.3340764
  76.0148580  42.1206140  73.6153130  76.2324226  41.8529644  75.0893923
  76.3237213  23.4292825  75.2233383  76.6296090  22.5690188  74.9359298
  77.0489818  24.0210445  75.0232377  62.6161569  33.8323511  73.6114981
  62.4185969  33.2392872  72.8866047  62.0608233  33.5275722  74.3290920
  70.5958293  33.7246618  75.7309574  70.6506903  32.7720454  75.6552051
  69.7849495  33.8806057  76.2150872  71.7449487  37.6526741  66.9687857
  71.3068917  36.9362600  66.5093495  72.4859928  37.8802856  66.4072949
  68.5350653  32.3423678  73.4899953  67.7218519  32.6417848  73.8965145
  69.0309647  31.9479366  74.2074435  70.6859231  42.3381434  75.4234218
  70.6435410  42.5642281  74.4942750  71.6021930  42.1044809  75.5720019
  74.1324865  32.8065502  82.3214847  74.4874252  33.0336975  83.1809313
  74.7796996  33.1383879  81.6992102  79.8622602  35.9283938  73.0264176
  79.7240500  36.1185534  72.0985365  79.5058820  36.6903321  73.4832227
  68.0264728  29.9142033  79.1061188  68.6664107  29.7730792  78.4084151
  67.1942258  29.6276546  78.7299790  79.8891981  37.9960465  78.0375447
  80.3228488  37.9035754  78.8858501  80.6023562  37.9717965  77.3995463
  68.8025032  39.2144463  75.2196180  69.5965630  38.7194784  75.0178755
  68.0916724  38.6862327  74.8563886  73.6219876  41.5962559  79.5708548
  73.6756898  42.1653495  80.3386264  72.7534658  41.7664444  79.2062585
  65.1107795  33.3587545  71.2955933  64.1805383  33.2972001  71.5125895
  65.2065267  32.8363498  70.4992574  65.0293344  29.8842358  73.8834175
  65.2900161  30.7987691  73.7743335  65.8510517  29.4166801  74.0330787
  66.5018270  31.2980115  81.0532999  67.1741323  31.0897477  80.4045648
  65.6748056  31.1002201  80.6138231  80.7507531  38.0384166  80.5708333
  80.9443421  38.9429976  80.8167608  80.6508149  37.5791585  81.4046918
  72.4043842  27.9242056  83.0698660  71.7571757  28.6232006  82.9763136
  73.1744857  28.3578200  83.4374908  75.8122639  38.1890908  86.1449213
  75.6608146  37.9601460  85.2279297  75.8027319  39.1461510  86.1580558
  72.5807976  35.7622821  81.1295480  73.5100036  35.9133981  80.9564447
  72.1599006  35.8506842  80.2744126  71.3796308  39.7873485  78.8994017
  71.2407393  39.4192270  79.7719955  70.5910904  40.3021125  78.7277975
  71.9744460  44.8882582  70.2419554  72.1496215  44.4170625  71.0565177
  71.2877248  45.5148348  70.4700815  72.9301523  39.1655088  76.2882855
  72.5951355  39.1255858  77.1840505  72.4305469  38.4999804  75.8153265
  66.9045767  34.5722718  81.8135436  66.7665565  33.8402957  82.4146975
  67.8150690  34.4831618  81.5319624  75.8660714  36.5111123  66.5619915
  75.2489885  35.7857951  66.4652968  75.3977203  37.2720483  66.2186989
  69.5328067  34.2842678  81.3019116  70.2427686  33.6435870  81.2605734
  69.4897376  34.5355572  82.2245297  77.5214846  41.2210031  84.2225695
  77.4627392  40.5369251  83.5556278  77.9234365  41.9629021  83.7706321
  68.2457001  31.2707895  83.1214755  67.7094358  30.8198634  83.7736352
  67.6573710  31.4053804  82.3785220  66.5405545  48.0371945  77.0159414
  66.7802143  48.6690469  77.6938433  65.6974741  47.6859985  77.3024773
  77.5232253  39.1849615  82.4539675  76.6359032  38.8475537  82.5766074
  78.0930804  38.4532646  82.6908440  63.9796123  30.4063903  80.2067750
  63.8954311  29.7989573  79.4718160  63.1578829  30.8972921  80.2077246
  71.0533407  43.8451067  79.4200918  70.9803578  44.6506039  79.9320223
  70.6110800  44.0443033  78.5948939  70.8423186  43.0822837  72.9303740
  70.0590708  43.6244517  73.0241964  71.5415932  43.5996817  73.3297981
  74.1519837  28.8917467  75.5737945  74.6488536  28.1387429  75.2539015
  73.3806818  28.9281783  75.0081154  82.0049594  34.5957832  77.2156237
  81.9939470  35.4782548  76.8450170  81.1366973  34.2429383  77.0210774
  73.5132090  43.7437901  81.5759077  74.2260063  44.3785366  81.5034978
  73.0222119  43.8401767  80.7599079  75.2349617  37.6489154  73.1476368
  74.3005896  37.7690616  72.9781073  75.4126286  36.7461621  72.8836378
  70.7354805  31.0334850  75.3009630  70.3652593  30.4805890  75.9890535
  71.2313898  30.4292983  74.7484630  78.6222169  33.4906473  73.6826403
  79.0882621  34.3234465  73.6086705  79.0729669  33.0251455  74.3871661
  68.5644004  41.4932345  82.3964648  69.2653463  42.1268828  82.5494042
  68.0939119  41.8347076  81.6360287  76.6898400  39.8350294  70.6812555
  76.9658244  39.7206889  71.5906429  75.8202898  39.4367779  70.6424728
  76.5938831  25.8587060  77.7217304  75.6801911  26.0891287  77.8899511
  77.0231933  25.9425504  78.5731336  76.3645290  34.0476952  80.2217198
  75.7116740  34.2952860  79.5669651  76.7425670  33.2341090  79.8879675
  73.3252464  44.0836645  74.3245368  73.5074858  43.2658301  74.7873121
  74.1485450  44.3004338  73.8870258  73.6594629  43.0104830  71.5860417
  74.1882396  42.4997285  70.9730579  73.9222849  42.6947361  72.4505950
  72.4132863  34.7896763  86.7083235  71.7373500  34.6890892  87.3785610
  73.2360497  34.6335977  87.1719232  64.1611722  41.0268700  79.3295750
  64.7465159  40.2812388  79.4623654  63.9636560  41.3372656  80.2132414
  67.0150377  44.0619947  74.3458193  66.3460752  44.5466075  73.8622233
  66.8763247  44.3089168  75.2601571  58.7529377  33.5974300  78.0500193
  58.7913476  33.0637891  78.8437311  58.2469669  33.0709505  77.4311171
  71.1555646  46.0963691  80.9440851  71.7073954  46.2595312  81.7089936
  71.4961839  46.6868128  80.2720876  66.1320139  28.4438840  81.5462736
  66.1961465  29.3053671  81.1340133  66.0687259  27.8312842  80.8135094
  65.6072411  30.5161973  85.1935770  66.2344450  30.1339050  85.8073294
  64.7500330  30.2976175  85.5591462  76.0066520  40.9224948  86.7989505
  76.5506424  41.5354906  86.3044460  75.4253365  41.4804527  87.3156518
  74.2924033  44.0445666  77.9304533  74.1675172  43.2435406  77.4215479
  74.9503124  44.5391859  77.4418503  65.9132201  30.3994399  77.1081673
  65.1918787  31.0130366  76.9689147  66.7025457  30.9352163  77.0298319
  76.3558941  41.8454686  79.5584083  75.4089277  41.7260037  79.4862410
  76.7041714  40.9577184  79.6410345  68.7158515  27.7348825  83.3822325
  69.2392917  27.9811122  84.1448634  68.4970848  28.5668860  82.9625462
  73.3605375  41.6407402  75.7588435  73.2130337  40.7124110  75.9396005
  74.1858868  41.6627493  75.2745511  67.2267619  30.2925470  71.6168928
  67.5663691  30.8211391  70.8947536  67.6739739  30.6305876  72.3927494
  76.9639497  42.4635961  76.8453308  77.8886044  42.2578822  76.7077759
  76.7954800  42.2152362  77.7542650  69.9211060  28.6762520  81.0671996
  69.5807880  27.8770333  81.4692676  69.2150066  28.9764231  80.4948829
  70.5727532  25.7611833  79.5199319  71.3953601  25.2872311  79.3978209
  70.8165595  26.5402316  80.0198005  69.2135766  28.7900091  69.8162220
  69.9344129  29.1681344  69.3125937  68.5901070  29.5088968  69.9197198
  73.3566889  29.4945240  70.7520553  73.5730503  30.3769878  70.4509381
  72.8760956  29.1031453  70.0226195  68.0966110  32.4530953  77.3291297
  67.9510691  32.7671256  78.2215579  67.6191314  33.0715854  76.7762196
  69.9562493  29.4433501  77.3772187  69.9424062  28.5474595  77.0404485
  70.6734921  29.4504165  78.0110473  71.8088624  29.8770841  79.4225314
  71.5506402  30.7987912  79.4209645  71.2773664  29.4801276  80.1125778
  76.7534813  42.9821629  72.2015400  76.9271690  42.4168051  71.4489252
  77.2463704  43.7822523  72.0194890  62.5711773  34.9936298  80.2678958
  62.0265241  35.7696106  80.3999233  63.4491122  35.3407102  80.1098080
  69.3599389  28.3247882  72.6459757  69.4815300  27.3964528  72.8450644
  69.0701432  28.3386568  71.7338072  72.2290580  26.0102792  75.7826477
  72.2512276  26.0742125  74.8278456  72.6458639  25.1707301  75.9766983
  82.6074204  35.7458052  73.8205699  83.0505350  34.9965377  73.4224823
  81.7300714  35.7368188  73.4379431  77.7409985  42.2988393  69.3012298
  78.4360890  42.9195086  69.5199613  78.0833135  41.4483744  69.5764676
  63.3577794  34.1206194  83.1609115  62.6159530  34.2688829  83.7473746
  63.0370539  34.3814460  82.2975865  79.6401408  39.7488099  70.8299629
  80.1652732  40.0875371  70.1048949  79.5523761  38.8135114  70.6462763
  71.3021457  43.6622172  82.9589505  71.6108583  43.4171319  83.8312205
  72.0996939  43.8668811  82.4708376  71.3242069  45.8160082  75.1894882
  70.8847059  45.3236461  75.8827739  72.0750186  45.2733049  74.9486957
  63.8034408  42.0071623  75.1919510  64.6292428  41.7075395  74.8118153
  63.4528460  41.2379245  75.6409299  68.7715941  41.3598091  77.2617184
  68.1495951  40.6968796  76.9619411  69.4420808  41.3859223  76.5790831
  62.0043013  39.9257949  76.1508444  61.1674921  39.4980123  75.9692445
  61.9766659  40.1190392  77.0879235  68.8440469  29.8379879  86.8549690
  68.8928624  30.7142002  86.4727459  69.3862983  29.2957272  86.2821333
  79.3295314  40.3821002  86.1350827  78.5390858  40.3645141  85.5955326
  79.0928669  40.9209296  86.8899863  79.4493189  37.2313469  83.4483555
  79.4991194  37.0663476  84.3899078  79.3407113  36.3640728  83.0581436
  68.3329448  39.9102014  70.7375644  68.4817569  40.5937479  70.0842317
  69.1395892  39.8907104  71.2525100  76.7396952  33.2144397  84.7642862
  77.6406815  33.0750861  84.4726860  76.8144926  33.3798851  85.7041039
  71.0739757  30.5911251  83.6096048  70.2043067  30.8844817  83.3378637
  71.3099238  31.1751696  84.3303312  80.9511386  39.6510410  83.6925577
  80.6596195  40.0140391  84.5289038  80.3383518  38.9377418  83.5138909
  82.1507069  37.2163290  76.2128147  82.9853960  37.6553094  76.3765707
  82.2866197  36.7401943  75.3936393  79.1998575  34.7743025  82.1605635
  79.6752696  34.9670671  81.3524486  78.2764140  34.8302211  81.9149018
  66.0882081  35.9367192  71.7436713  65.8428123  35.0329522  71.9416923
  66.2577996  35.9384342  70.8016191  73.7778791  26.8090868  81.1261469
  74.2960735  27.5451895  80.8007957  73.4233924  27.1154862  81.9608228
  74.0291385  23.2291151  76.6462365  74.3093139  22.5614340  77.2722792
  74.8141992  23.4220246  76.1337029  71.8324854  42.4050145  68.2087392
  71.2598821  43.0240332  67.7557863  72.4057647  42.9549506  68.7427313
  77.9000244  31.6508785  80.3933940  78.8517666  31.7506882  80.4146164
  77.7303694  30.8587053  80.9032025  75.9214623  28.7364368  80.5793341
  75.3264555  29.0169381  79.8839830  75.6364320  29.2258269  81.3510082
  75.0522113  42.6887295  69.3395974  75.9852787  42.6232857  69.5428849
  74.9645326  43.5243562  68.8810506  77.6810130  42.0053165  66.2999921
  77.6023762  41.6713029  67.1935679  78.5019797  42.4974933  66.2991394
  80.3788321  34.8714904  79.5076240  80.3464641  33.9330905  79.6935924
  80.9888945  34.9498941  78.7742065  72.2171652  33.7410957  65.5503444
  73.1630757  33.6117166  65.6191862  71.8385897  33.0025619  66.0272872
  80.5282810  31.6625948  79.5534523  80.0121858  30.8784405  79.3664452
  81.4122758  31.3344665  79.7181043  78.1893537  25.4066963  75.5130336
  77.9918358  25.0982052  76.3973668  78.7993242  26.1328602  75.6428266
  86.1964871  35.9330911  78.6482277  86.9268260  35.6716199  79.2089980
  85.5871817  35.1959633  78.6884345  84.2780168  34.0738774  79.2456728
  83.5513332  33.9394739  78.6373220  83.8627455  34.3815603  80.0513446
  72.1010345  37.7928704  87.0104101  73.0213354  37.9707303  87.2044148
  72.0659928  36.8484749  86.8583800  61.3192510  32.9867297  75.9357376
  60.9995294  32.1332605  75.6431750  60.7725938  33.2015875  76.6915343
  65.0972417  35.7029738  79.6526882  65.3158427  36.6346846  79.6714916
  65.5098191  35.3437713  80.4381686  72.0176635  26.2097824  71.6402571
  71.2077363  25.8644909  72.0157817  72.7061052  25.9005367  72.2290182
  73.9467183  25.2875870  73.2626867  74.4998222  25.7071324  73.9216890
  74.1837270  24.3611618  73.3049823  69.9700283  31.2762944  89.0429631
  69.8697009  32.2257301  88.9741722  69.7521825  30.9481183  88.1705701
  61.1880770  36.6070209  77.9050497  60.4944241  36.1924162  77.3920452
  61.9353761  36.6490745  77.3083916  77.3245990  27.3976396  72.7705531
  76.7444659  28.0561200  72.3883584  77.0581923  26.5753740  72.3592949
  75.7749557  26.7981453  74.9726852  76.2749335  26.9097988  74.1641171
  76.4185165  26.4942506  75.6127660  69.8331553  34.7060083  87.8594693
  69.3498634  35.5060443  88.0658582  69.9192492  34.7168028  86.9062137
  63.1017512  36.5388463  75.7816512  63.0788200  36.6376150  74.8298395
  63.4118149  37.3853613  76.1033678  65.7604890  38.5964618  79.8963127
  66.7148144  38.5648560  79.8293058  65.5617414  38.1355241  80.7113352
  66.3504272  37.1665734  82.4633924  67.1697161  37.6609812  82.4868761
  66.6241080  36.2497702  82.4351492  76.1070868  29.5576486  71.8261880
  75.2196723  29.8426137  71.6082074  76.5224858  29.3970249  70.9789157
  79.4585405  29.5823007  75.5416219  80.2345795  30.0719459  75.8140836
  78.7333539  30.0081061  75.9988088  81.8957963  30.2950626  76.5990160
  82.4902454  30.0546362  75.8883468  81.9684547  29.5757757  77.2263696
  64.1155119  44.1384237  76.9133324  63.9809587  43.3784638  76.3471322
  63.6987181  44.8625137  76.4462113  75.2514082  39.3221161  65.9209900
  75.9549932  39.5271163  66.5367555  74.5276731  39.8897922  66.1858983
  76.0811892  35.0731022  72.0412170  76.0247094  35.5299573  71.2019802
  76.6340235  34.3121706  71.8635013  79.8916698  30.8620754  72.8662289
  79.6353632  30.4617389  73.6970497  79.2669566  31.5764548  72.7412429
  84.2029036  33.6016827  75.3733581  83.6428594  33.6710016  76.1465143
  83.5972539  33.4257812  74.6533077  67.2724245  45.0353554  77.1251767
  67.1556629  45.9798987  77.0230457  66.4516691  44.7327116  77.5137566
  77.1600779  39.7603690  67.9708360  77.9946383  39.3284888  67.7885835
  76.9985122  39.5885703  68.8985254  76.8146672  36.2635803  69.3364699
  76.7595475  36.0980075  68.3953143  76.1892727  36.9711836  69.4926889
  61.6039186  31.5003867  83.1626121  62.2498050  30.9902821  83.6513346
  61.3956338  32.2372549  83.7369547  74.1292579  38.5684715  88.6618262
  74.9983738  38.7425367  88.3004897  73.6499330  39.3879132  88.5393991
  70.1242797  25.7643912  68.9150017  70.1121467  26.7085752  69.0718288
  71.0166219  25.5814057  68.6209479  68.2978759  45.6881816  80.3407695
  69.2006006  45.7205426  80.6574190  68.0716129  44.7582267  80.3554031
  70.0532361  44.4412802  77.0017774  69.1027992  44.4414664  76.8882146
  70.3564847  43.6945537  76.4853809  73.9394916  22.3586689  73.1695954
  73.1727312  21.8045175  73.3152637  74.3505621  22.4308557  74.0310106
  65.9436677  28.6471485  87.2601135  66.8068139  28.2908289  87.4704460
  65.3702088  28.3085379  87.9476540  85.7885054  50.2773341  78.0663536
  86.4263464  50.1580088  77.3626877  85.6705897  51.2254185  78.1251489
  82.5974761  50.2300769  78.0025061  82.2593272  50.1141834  77.1145596
  83.4664529  49.8291934  77.9826067  78.4561576  52.0836245  73.9921952
  77.8926442  51.9926182  73.2238240  78.3413971  51.2636150  74.4724445
  83.0794544  51.3835621  83.9611267  83.0683184  50.9888419  83.0891770
  83.2415183  50.6501693  84.5545038  76.0026008  53.5787437  76.8306173
  76.7947300  53.2378262  76.4152472  76.2422658  53.6882412  77.7508326
  84.0361135  55.7507213  69.3036417  83.3849115  56.3361294  68.9170431
  84.8305498  56.2813408  69.3631455  77.9616762  52.8396350  69.7023551
  78.7347638  52.2925337  69.5636427  78.3142161  53.7040600  69.9138013
  79.8001805  54.1672733  82.9090451  79.5091671  55.0718363  82.7937117
  80.4358789  54.2089260  83.6234520  80.7258012  51.5449581  79.4991810
  81.3221584  51.3205603  78.7848773  80.7832983  50.8034327  80.1017258
  80.2983040  48.9989016  67.3342001  80.5508561  48.4770538  66.5725464
  79.3607599  48.8355162  67.4368685  85.3426323  48.0024795  75.1416745
  86.1289412  47.5844218  74.7907162  85.6065027  48.9070887  75.3098393
  85.5136400  53.4397645  69.8405401  84.8782233  53.5132272  70.5526306
  85.1833807  54.0291244  69.1624481  90.7434750  47.9400028  76.0449723
  91.4759922  47.3699245  76.2787553  89.9874106  47.5521628  76.4856229
  80.0179329  50.9017122  69.5366376  79.9015587  50.2262026  70.2047461
  80.1281589  50.4149496  68.7198529  82.3610870  50.3627269  73.2413065
  81.9969077  49.8357890  73.9525987  83.2177986  49.9725738  73.0679551
  88.2660170  41.6521602  80.5044332  87.9343495  42.5217013  80.2805547
  87.6705784  41.3357886  81.1838362  82.0016357  45.3917169  68.2374414
  82.1690759  46.2597406  68.6044885  81.8113526  45.5544451  67.3135703
  84.7591690  53.8534148  79.9040244  84.4592413  54.7559187  79.7956052
  84.4142749  53.5866331  80.7561397  78.2104171  50.3047945  75.9376949
  77.2854668  50.1724159  76.1454641  78.4588585  51.0842164  76.4346891
  88.1588834  46.3716688  77.5837682  87.2505711  46.3032097  77.2896443
  88.1076429  46.8488633  78.4119507  81.9805578  47.8474827  69.2221081
  81.8605203  48.2931877  70.0606561  81.2858166  48.1960144  68.6634619
  75.5712982  49.9481218  76.7720738  75.7005364  50.2015697  77.6860150
  74.8910434  50.5408926  76.4525393  79.7412470  60.6178468  72.8711212
  79.6636499  61.5686293  72.9499693  79.1374113  60.2724341  73.5286138
  82.2329699  47.7906334  85.5272579  81.4563034  48.3500254  85.5175444
  82.8720263  48.2763117  86.0487449  90.0250480  44.5733127  79.3615556
  89.3824860  44.8665660  78.7155350  89.5205409  44.4586047  80.1668752
  87.6790644  48.3196300  70.0501415  88.5908500  48.5523687  69.8749112
  87.1700291  48.9033344  69.4876493  80.4876072  50.5991787  85.0890546
  81.2290756  51.1376831  84.8125370  79.7813057  51.2258076  85.2462098
  85.9631411  52.7420928  83.6862707  86.3714767  52.3003338  82.9417340
  85.2408673  52.1673555  83.9396900  82.3162481  47.6793534  81.0596264
  83.1623677  48.1032948  81.2030913  82.2561119  47.0227159  81.7534828
  86.2860226  53.3022118  77.4414996  85.6569089  53.4667832  76.7391064
  85.8985888  53.7163728  78.2125960  90.1649458  54.2376556  74.7959360
  89.4800496  54.6175457  74.2456393  90.2493307  54.8471883  75.5291308
  85.4661927  45.3397903  82.7177438  85.2222859  46.0939963  82.1811714
  85.7421857  45.7183250  83.5524685  87.4200390  51.8836515  81.3954704
  87.6317285  52.5268275  80.7189085  87.3730138  51.0498832  80.9276634
  85.0226619  44.4954336  78.2991276  84.1611098  44.7935589  78.5908013
  85.0489053  44.7124735  77.3672308  81.8388188  53.0396526  74.7065081
  82.3026533  53.3184229  73.9169704  81.5744986  52.1379971  74.5238172
  78.7312269  52.5868008  77.6444845  79.3013626  53.0155276  77.0062329
  79.3220381  52.3050593  78.3429030  80.7757074  49.1619679  71.5154647
  81.4781117  49.6140722  71.9828573  80.4437702  48.5203498  72.1434540
  79.2237436  47.7531435  85.8905856  78.5936096  48.4347716  86.1241253
  79.1173523  47.6414517  84.9458994  74.5182408  47.4203231  76.8171780
  73.7281462  47.6760760  76.3411891  75.0093655  48.2351569  76.9223821
  88.5346218  54.7608471  79.5677061  89.3563661  54.3588658  79.2859743
  88.5308620  54.6576705  80.5193177  76.4697153  47.7847811  73.7755257
  75.6728317  47.8966505  74.2938753  76.2422746  48.1234463  72.9096147
  82.3002821  54.3092514  81.7237771  82.3647253  54.7712921  82.5595943
  81.5913745  53.6789879  81.8520081  72.8020111  47.6733722  79.2486771
  73.0528149  48.5580732  79.5144347  73.3379659  47.4938323  78.4761863
  96.6252211  51.1047219  75.9162032  95.8715919  50.5354617  75.7606037
  96.7599752  51.0709884  76.8632667  82.0150839  55.9760621  71.5916752
  81.8796513  56.8212157  72.0201600  82.5560651  56.1779899  70.8282686
  78.5018178  42.0552201  88.2531107  78.1085124  41.5018400  88.9278751
  79.3184319  42.3662780  88.6437625  75.4680236  53.4936059  72.1644677
  75.9804757  54.2879310  72.3150242  76.1202949  52.7962350  72.0978278
  77.2775121  56.6101816  74.2467430  77.4541749  57.5319780  74.0588414
  78.0731954  56.2960235  74.6761810  81.4186139  43.4710080  85.8451364
  82.1595853  44.0717233  85.7655826  81.6504062  42.7287718  85.2869406
  76.5627477  48.6566448  84.1229593  76.4480992  47.7551705  84.4236692
  75.7071995  48.9030144  83.7714410  83.6419315  56.5984188  85.7217094
  83.1983169  55.8120566  85.4037998  84.3036529  56.7863338  85.0560985
  78.4006436  58.1279989  80.2477772  78.9513861  57.9997053  79.4754766
  77.5617912  58.4274878  79.8972665  85.7400553  56.8786988  83.7498495
  85.7219028  57.6995869  83.2578764  86.6620473  56.7541063  83.9748636
  82.1973607  54.3931117  84.5922004  82.7301944  53.6319405  84.3621311
  81.6687688  54.1004769  85.3346158  85.3643302  39.4991183  80.1215645
  85.0207572  40.3892825  80.0454756  85.7322265  39.3092841  79.2585230
  73.4329153  51.8224714  72.9404247  74.2704375  52.2321722  72.7237955
  73.6107420  50.8824156  72.9104441  85.3293585  49.4899794  68.6288080
  84.8140208  50.2604399  68.8676468  85.0570893  48.8164930  69.2521142
  82.9140696  44.3349495  73.6873319  82.0582292  43.9456345  73.5078957
  83.3267648  44.4141456  72.8273104  84.4439843  41.8695838  78.0864879
  83.9404638  41.8325974  77.2732684  84.7370449  42.7788581  78.1461535
  80.6882728  41.9534568  77.0931060  81.5535725  41.7577377  76.7336950
  80.7560237  41.7244920  78.0200417  90.3027859  52.2432149  70.5641254
  89.5257302  51.9043308  70.1196416  90.9819340  52.2484772  69.8896219
  85.1179888  47.3626886  70.4547862  84.8130024  47.6773036  71.3058005
  86.0710330  47.4408306  70.4975195  83.5626320  53.5217110  72.1040816
  83.0347682  52.7869869  71.7914053  83.0613823  54.2991786  71.8580784
  88.5419166  51.7166130  77.2207862  87.8842840  52.4065392  77.3087990
  89.3459565  52.1062562  77.5641848  78.2945048  44.1836776  74.4647427
  78.8688799  43.9611958  73.7320620  78.8816030  44.2525471  75.2176028
  87.3524625  50.0710503  75.2711804  87.8656506  50.7040495  75.7733513
  88.0025849  49.4711698  74.9055164  78.6214635  46.2141237  68.4843312
  77.7851947  46.5515924  68.8052587  78.4819404  46.0790217  67.5470449
  80.5967715  41.0578025  73.1922496  79.9432128  40.7427042  72.5679111
  80.5548189  40.4353765  73.9182319  81.7078920  51.3397320  65.1075789
  80.8005982  51.1086573  65.3066938  82.2049952  50.5434939  65.2949770
  84.6146999  60.0494827  68.0272475  83.9408698  60.3526524  68.6357433
  85.0012821  60.8523908  67.6777932  83.8305456  47.5459958  77.5170144
  82.9128017  47.7674905  77.3591832  84.2465599  47.6206269  76.6581851
  84.6140503  48.9451374  72.6472824  85.3612322  49.4572771  72.3379946
  84.8832093  48.6235427  73.5077218  82.8867154  51.4409915  69.6299779
  81.9778373  51.1568948  69.7272248  82.9162237  51.8608993  68.7703086
  88.1186421  55.0516504  73.3990946  87.6648748  54.2107414  73.4556137
  87.4880388  55.6877903  73.7365726  87.0619341  45.9808490  74.6291614
  86.3242097  45.4685877  74.9601856  87.3146114  45.5408872  73.8174891
  86.5619360  56.8893001  74.3340764  86.8542335  57.4498058  73.6153130
  87.0717981  57.1821562  75.0893923  87.1630968  38.7584742  75.2233383
  87.4689845  37.8982106  74.9359298  87.8883573  39.3502363  75.0232377
  73.4555324  49.1615429  73.6114981  73.2579724  48.5684790  72.8866047
  72.9001988  48.8567639  74.3290920  81.4352048  49.0538535  75.7309574
  81.4900657  48.1012372  75.6552051  80.6243250  49.2097975  76.2150872
  82.5843241  52.9818659  66.9687857  82.1462671  52.2654517  66.5093495
  83.3253682  53.2094773  66.4072949  79.3744408  47.6715595  73.4899953
  78.5612273  47.9709766  73.8965145  79.8703402  47.2771284  74.2074435
  81.5252985  57.6673352  75.4234218  81.4829164  57.8934198  74.4942750
  82.4415684  57.4336727  75.5720019  84.9718619  48.1357420  82.3214847
  85.3268007  48.3628893  83.1809313  85.6190750  48.4675796  81.6992102
  90.7016356  51.2575856  73.0264176  90.5634255  51.4477452  72.0985365
  90.3452575  52.0195238  73.4832227  78.8658482  45.2433951  79.1061188
  79.5057862  45.1022710  78.4084151  78.0336013  44.9568464  78.7299790
  90.7285736  53.3252383  78.0375447  91.1622242  53.2327672  78.8858501
  91.4417316  53.3009883  77.3995463  84.4613631  56.9254477  79.5708548
  84.5150653  57.4945413  80.3386264  83.5928412  57.0956362  79.2062585
  75.9501550  48.6879463  71.2955933  75.0199138  48.6263918  71.5125895
  76.0459022  48.1655416  70.4992574  75.8687099  45.2134276  73.8834175
  76.1293916  46.1279609  73.7743335  76.6904271  44.7458718  74.0330787
  77.3412024  46.6272033  81.0532999  78.0135077  46.4189395  80.4045648
  76.5141811  46.4294119  80.6138231  91.5901285  53.3676083  80.5708333
  91.7837175  54.2721894  80.8167608  91.4901903  52.9083502  81.4046918
  83.2437596  43.2533974  83.0698660  82.5965511  43.9523923  82.9763136
  84.0138611  43.6870118  83.4374908  86.6516394  53.5182826  86.1449213
  86.5001900  53.2893378  85.2279297  86.6421073  54.4753427  86.1580558
  83.4201730  51.0914739  81.1295480  84.3493790  51.2425898  80.9564447
  82.9992760  51.1798760  80.2744126  82.2190062  55.1165403  78.8994017
  82.0801148  54.7484188  79.7719955  81.4304658  55.6313043  78.7277975
  82.8138214  60.2174500  70.2419554  82.9889970  59.7462543  71.0565177
  82.1271002  60.8440266  70.4700815  83.7695277  54.4947006  76.2882855
  83.4345110  54.4547776  77.1840505  83.2699223  53.8291722  75.8153265
  77.7439521  49.9014636  81.8135436  77.6059319  49.1694875  82.4146975
  78.6544445  49.8123536  81.5319624  86.7054469  51.8403040  66.5619915
  86.0883640  51.1149868  66.4652968  86.2370957  52.6012400  66.2186989
  80.3721822  49.6134595  81.3019116  81.0821440  48.9727787  81.2605734
  80.3291130  49.8647490  82.2245297  88.3608601  56.5501949  84.2225695
  88.3021147  55.8661169  83.5556278  88.7628119  57.2920939  83.7706321
  79.0850756  46.5999813  83.1214755  78.5488113  46.1490552  83.7736352
  78.4967464  46.7345722  82.3785220  77.3799299  63.3663862  77.0159414
  77.6195898  63.9982387  77.6938433  76.5368496  63.0151902  77.3024773
  78.4953015  46.0588464  65.6841219  77.6182481  45.9377265  65.3203466
  78.9710768  45.2674543  65.4320108  88.3626008  54.5141532  82.4539675
  87.4752787  54.1767454  82.5766074  88.9324559  53.7824564  82.6908440
  70.0155155  50.8465624  75.7782726  70.7026195  50.5327354  75.1903742
  69.8603284  51.7506989  75.5049978  74.8189877  45.7355821  80.2067750
  74.7348066  45.1281490  79.4718160  73.9972584  46.2264839  80.2077246
  81.8927161  59.1742985  79.4200918  81.8197333  59.9797956  79.9320223
  81.4504554  59.3734951  78.5948939  81.6816941  58.4114755  72.9303740
  80.8984463  58.9536435  73.0241964  82.3809686  58.9288734  73.3297981
  84.9913591  44.2209384  75.5737945  85.4882291  43.4679347  75.2539015
  84.2200573  44.2573701  75.0081154  92.8443348  49.9249750  77.2156237
  92.8333225  50.8074465  76.8450170  91.9760728  49.5721301  77.0210774
  84.3525845  59.0729819  81.5759077  85.0653817  59.7077284  81.5034978
  83.8615873  59.1693685  80.7599079  86.0743372  52.9781072  73.1476368
  85.1399650  53.0982534  72.9781073  86.2520040  52.0753538  72.8836378
  81.5748560  46.3626767  75.3009630  81.2046347  45.8097808  75.9890535
  82.0707652  45.7584901  74.7484630  89.4615923  48.8198391  73.6826403
  89.9276375  49.6526382  73.6086705  89.9123424  48.3543372  74.3871661
  87.5292154  55.1642212  70.6812555  87.8051998  55.0498807  71.5906429
  86.6596653  54.7659697  70.6424728  87.4332586  41.1878978  77.7217304
  86.5195666  41.4183205  77.8899511  87.8625687  41.2717422  78.5731336
  87.2039044  49.3768870  80.2217198  86.5510495  49.6244777  79.5669651
  87.5819424  48.5633008  79.8879675  84.1646218  59.4128563  74.3245368
  84.3468613  58.5950219  74.7873121  84.9879204  59.6296255  73.8870258
  84.4988384  58.3396748  71.5860417  85.0276150  57.8289203  70.9730579
  84.7616603  58.0239278  72.4505950  83.2526617  50.1188681  86.7083235
  82.5767254  50.0182810  87.3785610  84.0754251  49.9627895  87.1719232
  75.0005476  56.3560617  79.3295750  75.5858913  55.6104305  79.4623654
  74.8030315  56.6664574  80.2132414  77.8544132  59.3911865  74.3458193
  77.1854507  59.8757992  73.8622233  77.7157001  59.6381085  75.2601571
  69.5923131  48.9266218  78.0500193  69.6307231  48.3929808  78.8437311
  69.0863424  48.4001423  77.4311171  81.9949400  61.4255608  80.9440851
  82.5467708  61.5887230  81.7089936  82.3355594  62.0160046  80.2720876
  76.9713893  43.7730758  81.5462736  77.0355220  44.6345589  81.1340133
  76.9081014  43.1604760  80.8135094  76.4466166  45.8453891  85.1935770
  77.0738205  45.4630968  85.8073294  75.5894085  45.6268093  85.5591462
  86.8460275  56.2516866  86.7989505  87.3900179  56.8646824  86.3044460
  86.2647119  56.8096444  87.3156518  73.2231709  47.6530320  71.1254125
  73.5185150  46.7440998  71.0721178  72.3219744  47.6318059  70.8035127
  85.1317787  59.3737584  77.9304533  85.0068927  58.5727324  77.4215479
  85.7896879  59.8683777  77.4418503  76.7525956  45.7286316  77.1081673
  76.0312541  46.3422284  76.9689147  77.5419211  46.2644081  77.0298319
  87.1952696  57.1746604  79.5584083  86.2483031  57.0551955  79.4862410
  87.5435469  56.2869102  79.6410345  79.5552269  43.0640743  83.3822325
  80.0786671  43.3103039  84.1448634  79.3364603  43.8960778  82.9625462
  74.9519550  45.3344417  71.2493450  74.6232256  44.4541796  71.0668556
  75.3058921  45.2792086  72.1369839  84.1999129  56.9699320  75.7588435
  84.0524092  56.0416028  75.9396005  85.0252623  56.9919411  75.2745511
  78.0661373  45.6217387  71.6168928  78.4057446  46.1503308  70.8947536
  78.5133494  45.9597793  72.3927494  87.8033251  57.7927879  76.8453308
  88.7279798  57.5870740  76.7077759  87.6348554  57.5444280  77.7542650
  80.7604814  44.0054438  81.0671996  80.4201635  43.2062251  81.4692676
  80.0543821  44.3056149  80.4948829  81.4121286  41.0903750  79.5199319
  82.2347355  40.6164229  79.3978209  81.6559350  41.8694234  80.0198005
  80.0529521  44.1192009  69.8162220  80.7737883  44.4973262  69.3125937
  79.4294825  44.8380886  69.9197198  84.1960643  44.8237158  70.7520553
  84.4124258  45.7061796  70.4509381  83.7154711  44.4323371  70.0226195
  78.9359865  47.7822871  77.3291297  78.7904446  48.0963174  78.2215579
  78.4585068  48.4007771  76.7762196  80.7956248  44.7725419  77.3772187
  80.7817817  43.8766512  77.0404485  81.5128676  44.7796083  78.0110473
  82.6482378  45.2062759  79.4225314  82.3900156  46.1279830  79.4209645
  82.1167419  44.8093194  80.1125778  87.5928567  58.3113546  72.2015400
  87.7665445  57.7459969  71.4489252  88.0857458  59.1114441  72.0194890
  73.4105527  50.3228215  80.2678958  72.8658995  51.0988023  80.3999233
  74.2884877  50.6699020  80.1098080  80.1993144  43.6539799  72.6459757
  80.3209055  42.7256445  72.8450644  79.9095186  43.6678485  71.7338072
  83.0684334  41.3394710  75.7826477  83.0906031  41.4034043  74.8278456
  83.4852393  40.4999218  75.9766983  93.4467958  51.0749969  73.8205699
  93.8899104  50.3257294  73.4224823  92.5694469  51.0660106  73.4379431
  88.5803740  57.6280311  69.3012298  89.2754644  58.2487003  69.5199613
  88.9226890  56.7775662  69.5764676  74.1971549  49.4498112  83.1609115
  73.4553285  49.5980747  83.7473746  73.8764293  49.7106377  82.2975865
  90.4795163  55.0780016  70.8299629  91.0046487  55.4167289  70.1048949
  90.3917515  54.1427032  70.6462763  82.1415212  58.9914090  82.9589505
  82.4502338  58.7463237  83.8312205  82.9390694  59.1960728  82.4708376
  82.1635824  61.1451999  75.1894882  81.7240814  60.6528378  75.8827739
  82.9143941  60.6024967  74.9486957  74.6428163  57.3363540  75.1919510
  75.4686182  57.0367312  74.8118153  74.2922215  56.5671163  75.6409299
  79.6109696  56.6890009  77.2617184  78.9889705  56.0260714  76.9619411
  80.2814563  56.7151140  76.5790831  72.8436768  55.2549867  76.1508444
  72.0068676  54.8272041  75.9692445  72.8160413  55.4482310  77.0879235
  79.6834223  45.1671797  86.8549690  79.7322379  46.0433919  86.4727459
  80.2256737  44.6249190  86.2821333  90.1689069  55.7112920  86.1350827
  89.3784613  55.6937059  85.5955326  89.9322423  56.2501214  86.8899863
  90.2886944  52.5605386  83.4483555  90.3384949  52.3955394  84.3899078
  90.1800867  51.6932645  83.0581436  79.1723203  55.2393932  70.7375644
  79.3211323  55.9229396  70.0842317  79.9789646  55.2199022  71.2525100
  87.5790706  48.5436314  84.7642862  88.4800569  48.4042779  84.4726860
  87.6538681  48.7090769  85.7041039  81.9133512  45.9203169  83.6096048
  81.0436821  46.2136735  83.3378637  82.1492992  46.5043614  84.3303312
  91.7905141  54.9802328  83.6925577  91.4989949  55.3432308  84.5289038
  91.1777272  54.2669336  83.5138909  92.9900823  52.5455208  76.2128147
  93.8247714  52.9845012  76.3765707  93.1259952  52.0693861  75.3936393
  90.0392329  50.1034942  82.1605635  90.5146451  50.2962589  81.3524486
  89.1157894  50.1594128  81.9149018  76.9275836  51.2659110  71.7436713
  76.6821878  50.3621440  71.9416923  77.0971750  51.2676260  70.8016191
  84.6172546  42.1382786  81.1261469  85.1354489  42.8743813  80.8007957
  84.2627678  42.4446779  81.9608228  76.1971483  46.9987467  69.2422874
  75.5040728  47.0731822  68.5862910  75.9523235  46.2347811  69.7644391
  84.8685140  38.5583068  76.6462365  85.1486893  37.8906258  77.2722792
  85.6535747  38.7512164  76.1337029  82.6718608  57.7342062  68.2087392
  82.0992575  58.3532250  67.7557863  83.2451402  58.2841424  68.7427313
  88.7393998  46.9800702  80.3933940  89.6911421  47.0798800  80.4146164
  88.5697448  46.1878971  80.9032025  86.7608377  44.0656286  80.5793341
  86.1658310  44.3461298  79.8839830  86.4758074  44.5550187  81.3510082
  85.8915868  58.0179213  69.3395974  86.8246541  57.9524774  69.5428849
  85.8039081  58.8535479  68.8810506  88.5203885  57.3345083  66.2999921
  88.4417516  57.0004946  67.1935679  89.3413551  57.8266851  66.2991394
  91.2182076  50.2006822  79.5076240  91.1858396  49.2622823  79.6935924
  91.8282699  50.2790859  78.7742065  83.0565407  49.0702875  65.5503444
  84.0024511  48.9409083  65.6191862  82.6779652  48.3317537  66.0272872
  91.3676564  46.9917866  79.5534523  90.8515613  46.2076322  79.3664452
  92.2516513  46.6636582  79.7181043  89.0287291  40.7358881  75.5130336
  88.8312112  40.4273969  76.3973668  89.6386997  41.4620520  75.6428266
  97.0358626  51.2622829  78.6482277  97.7662014  51.0008117  79.2089980
  96.4265571  50.5251551  78.6884345  95.1173923  49.4030692  79.2456728
  94.3907086  49.2686657  78.6373220  94.7021210  49.7107520  80.0513446
  82.9404099  53.1220621  87.0104101  83.8607109  53.2999220  87.2044148
  82.9053682  52.1776667  86.8583800  81.2408324  46.9952852  65.4858329
  80.3339779  46.6985964  65.5621043  81.5184305  46.6982670  64.6192615
  72.1586264  48.3159215  75.9357376  71.8389049  47.4624523  75.6431750
  71.6119692  48.5307793  76.6915343  75.9366172  51.0321656  79.6526882
  76.1552182  51.9638764  79.6714916  76.3491946  50.6729630  80.4381686
  82.8570390  41.5389741  71.6402571  82.0471118  41.1936826  72.0157817
  83.5454806  41.2297285  72.2290182  84.7860938  40.6167788  73.2626867
  85.3391976  41.0363241  73.9216890  85.0231024  39.6903536  73.3049823
  80.8094037  46.6054862  89.0429631  80.7090764  47.5549219  88.9741722
  80.5915579  46.2773101  88.1705701  80.0107108  43.8539787  65.6270308
  80.8726272  44.1794685  65.8866126  80.1957453  43.0671283  65.1143374
  72.0274524  51.9362126  77.9050497  71.3337996  51.5216079  77.3920452
  72.7747515  51.9782663  77.3083916  88.1639745  42.7268313  72.7705531
  87.5838414  43.3853117  72.3883584  87.8975678  41.9045658  72.3592949
  86.6143311  42.1273371  74.9726852  87.1143090  42.2389905  74.1641171
  87.2578919  41.8234424  75.6127660  80.6725307  50.0352001  87.8594693
  80.1892389  50.8352361  88.0658582  80.7586246  50.0459945  86.9062137
  73.9411267  51.8680380  75.7816512  73.9181955  51.9668067  74.8298395
  74.2511903  52.7145531  76.1033678  76.5998645  53.9256535  79.8963127
  77.5541898  53.8940478  79.8293058  76.4011168  53.4647159  80.7113352
  77.1898027  52.4957651  82.4633924  78.0090916  52.9901730  82.4868761
  77.4634834  51.5789619  82.4351492  86.9464623  44.8868404  71.8261880
  86.0590478  45.1718054  71.6082074  87.3618612  44.7262167  70.9789157
  90.2979159  44.9114925  75.5416219  91.0739549  45.4011377  75.8140836
  89.5727293  45.3372979  75.9988088  92.7351718  45.6242544  76.5990160
  93.3296209  45.3838280  75.8883468  92.8078301  44.9049674  77.2263696
  74.9548873  59.4676155  76.9133324  74.8203341  58.7076556  76.3471322
  74.5380936  60.1917055  76.4462113  86.0907836  54.6513078  65.9209900
  86.7943687  54.8563081  66.5367555  85.3670485  55.2189840  66.1858983
  86.9205647  50.4022940  72.0412170  86.8640848  50.8591491  71.2019802
  87.4733989  49.6413624  71.8635013  90.7310453  46.1912671  72.8662289
  90.4747387  45.7909307  73.6970497  90.1063321  46.9056465  72.7412429
  78.1117999  60.3645472  77.1251767  77.9950383  61.3090904  77.0230457
  77.2910446  60.0619033  77.5137566  87.9994534  55.0895607  67.9708360
  88.8340138  54.6576806  67.7885835  87.8378877  54.9177621  68.8985254
  87.6540426  51.5927721  69.3364699  87.5989230  51.4271992  68.3953143
  87.0286481  52.3003754  69.4926889  72.4432941  46.8295785  83.1626121
  73.0891805  46.3194739  83.6513346  72.2350092  47.5664467  83.7369547
  84.9686333  53.8976633  88.6618262  85.8377493  54.0717285  88.3004897
  84.4893085  54.7171049  88.5393991  80.9636551  41.0935830  68.9150017
  80.9515221  42.0377670  69.0718288  81.8559973  40.9105975  68.6209479
  79.1372513  61.0173734  80.3407695  80.0399760  61.0497344  80.6574190
  78.9109883  60.0874185  80.3554031  80.8926115  59.7704720  77.0017774
  79.9421746  59.7706582  76.8882146  81.1958602  59.0237455  76.4853809
  84.7788671  37.6878606  73.1695954  84.0121067  37.1337093  73.3152637
  85.1899376  37.7600475  74.0310106  76.7830432  43.9763402  87.2601135
  77.6461894  43.6200207  87.4704460  76.2095843  43.6377297  87.9476540
  96.6278809  65.6065259  78.0663536  97.2657219  65.4872006  77.3626877
  96.5099652  66.5546103  78.1251489  93.4368515  65.5592687  78.0025061
  93.0987027  65.4433751  77.1145596  94.3058283  65.1583852  77.9826067
  89.2955331  67.4128163  73.9921952  88.7320196  67.3218100  73.2238240
  89.1807726  66.5928068  74.4724445  86.8419763  68.9079355  76.8306173
  87.6341055  68.5670179  76.4152472  87.0816413  69.0174330  77.7508326
  94.8754890  71.0799131  69.3036417  94.2242869  71.6653211  68.9170431
  95.6699252  71.6105326  69.3631455  88.8010517  68.1688268  69.7023551
  89.5741393  67.6217255  69.5636427  89.1535916  69.0332517  69.9138013
  91.5651766  66.8741499  79.4991810  92.1615338  66.6497521  78.7848773
  91.6226738  66.1326244  80.1017258  91.1376795  64.3280934  67.3342001
  91.3902315  63.8062455  66.5725464  90.2001354  64.1647079  67.4368685
  96.1820077  63.3316712  75.1416745  96.9683167  62.9136136  74.7907162
  96.4458782  64.2362805  75.3098393  96.3530155  68.7689563  69.8405401
  95.7175988  68.8424189  70.5526306  96.0227561  69.3583162  69.1624481
  90.8573083  66.2309040  69.5366376  90.7409341  65.5553943  70.2047461
  90.9675343  65.7441414  68.7198529  93.2004624  65.6919187  73.2413065
  92.8362831  65.1649808  73.9525987  94.0571740  65.3017656  73.0679551
  99.1053925  56.9813520  80.5044332  98.7737250  57.8508931  80.2805547
  98.5099538  56.6649804  81.1838362  92.8410111  60.7209087  68.2374414
  93.0084514  61.5889323  68.6044885  92.6507280  60.8836369  67.3135703
  95.5985444  69.1826066  79.9040244  95.2986167  70.0851105  79.7956052
  95.2536504  68.9158249  80.7561397  89.0497926  65.6339863  75.9376949
  88.1248422  65.5016077  76.1454641  89.2982339  66.4134082  76.4346891
  98.9982588  61.7008606  77.5837682  98.0899466  61.6324014  77.2896443
  98.9470184  62.1780551  78.4119507  92.8199332  63.1766744  69.2221081
  92.6998957  63.6223795  70.0606561  92.1251920  63.5252062  68.6634619
  86.4106737  65.2773136  76.7720738  86.5399118  65.5307615  77.6860150
  85.7304188  65.8700844  76.4525393  90.5806224  75.9470386  72.8711212
  90.5030254  76.8978211  72.9499693  89.9767868  75.6016259  73.5286138
  98.5184398  63.6488217  70.0501415  99.4302254  63.8815604  69.8749112
  98.0094045  64.2325262  69.4876493  91.3269826  65.9283705  85.0890546
  92.0684511  66.4668749  84.8125370  90.6206812  66.5549994  85.2462098
  93.1556236  63.0085452  81.0596264  94.0017431  63.4324866  81.2030913
  93.0954874  62.3519076  81.7534828  97.1253981  68.6314036  77.4414996
  96.4962843  68.7959750  76.7391064  96.7379643  69.0455645  78.2125960
  96.3055681  60.6689820  82.7177438  96.0616613  61.4231881  82.1811714
  96.5815612  61.0475168  83.5524685  98.2594144  67.2128433  81.3954704
  98.4711039  67.8560193  80.7189085  98.2123892  66.3790749  80.9276634
  95.8620373  59.8246253  78.2991276  95.0004852  60.1227507  78.5908013
  95.8882808  60.0416652  77.3672308  92.6781942  68.3688444  74.7065081
  93.1420288  68.6476147  73.9169704  92.4138741  67.4671889  74.5238172
  89.5706024  67.9159926  77.6444845  90.1407381  68.3447194  77.0062329
  90.1614135  67.6342510  78.3429030  91.6150828  64.4911596  71.5154647
  92.3174872  64.9432640  71.9828573  91.2831457  63.8495415  72.1434540
  90.0631190  63.0823353  85.8905856  89.4329851  63.7639634  86.1241253
  89.9567278  62.9706435  84.9458994  85.3576162  62.7495149  76.8171780
  84.5675216  63.0052678  76.3411891  85.8487410  63.5643487  76.9223821
  87.3090908  63.1139728  73.7755257  86.5122071  63.2258423  74.2938753
  87.0816500  63.4526381  72.9096147  83.6413865  63.0025639  79.2486771
  83.8921904  63.8872649  79.5144347  84.1773414  62.8230241  78.4761863
  92.8544593  71.3052539  71.5916752  92.7190268  72.1504075  72.0201600
  93.3954406  71.5071817  70.8282686  89.3411933  57.3844119  88.2531107
  88.9478878  56.8310317  88.9278751  90.1578073  57.6954697  88.6437625
  86.3073991  68.8227977  72.1644677  86.8198511  69.6171227  72.3150242
  86.9596703  68.1254267  72.0978278  88.1168875  71.9393733  74.2467430
  88.2935504  72.8611698  74.0588414  88.9125709  71.6252153  74.6761810
  92.2579894  58.8001998  85.8451364  92.9989607  59.4009151  85.7655826
  92.4897817  58.0579636  85.2869406  87.4021232  63.9858365  84.1229593
  87.2874747  63.0843622  84.4236692  86.5465749  64.2322062  83.7714410
  89.2400191  73.4571907  80.2477772  89.7907616  73.3288970  79.4754766
  88.4011667  73.7566796  79.8972665  96.2037057  54.8283101  80.1215645
  95.8601326  55.7184743  80.0454756  96.5716019  54.6384759  79.2585230
  96.1687339  64.8191712  68.6288080  95.6533963  65.5896317  68.8676468
  95.8964648  64.1456848  69.2521142  93.7534450  59.6641413  73.6873319
  92.8976047  59.2748263  73.5078957  94.1661402  59.7433374  72.8273104
  95.2833597  57.1987756  78.0864879  94.7798393  57.1617891  77.2732684
  95.5764204  58.1080499  78.1461535  91.5276483  57.2826486  77.0931060
  92.3929480  57.0869294  76.7336950  91.5953992  57.0536838  78.0200417
  95.9573643  62.6918804  70.4547862  95.6523778  63.0064953  71.3058005
  96.9104085  62.7700224  70.4975195  94.4020074  68.8509027  72.1040816
  93.8741436  68.1161787  71.7914053  93.9007577  69.6283704  71.8580784
  89.1338802  59.5128694  74.4647427  89.7082554  59.2903875  73.7320620
  89.7209784  59.5817388  75.2176028  98.1918379  65.4002421  75.2711804
  98.7050261  66.0332412  75.7733513  98.8419603  64.8003616  74.9055164
  89.4608389  61.5433155  68.4843312  88.6245701  61.8807841  68.8052587
  89.3213159  61.4082135  67.5470449  91.4361470  56.3869943  73.1922496
  90.7825882  56.0718960  72.5679111  91.3941944  55.7645683  73.9182319
  92.5472675  66.6689238  65.1075789  91.6399736  66.4378491  65.3066938
  93.0443707  65.8726857  65.2949770  95.4540753  75.3786745  68.0272475
  94.7802452  75.6818442  68.6357433  95.8406575  76.1815825  67.6777932
  94.6699210  62.8751876  77.5170144  93.7521771  63.0966823  77.3591832
  95.0859354  62.9498187  76.6581851  95.4534258  64.2743292  72.6472824
  96.2006077  64.7864689  72.3379946  95.7225847  63.9527345  73.5077218
  93.7260908  66.7701833  69.6299779  92.8172127  66.4860865  69.7272248
  93.7555992  67.1900911  68.7703086  98.9580175  70.3808422  73.3990946
  98.5042503  69.5399332  73.4556137  98.3274142  71.0169820  73.7365726
  97.4013115  72.2184919  74.3340764  97.6936089  72.7789976  73.6153130
  97.9111735  72.5113480  75.0893923  98.0024722  54.0876660  75.2233383
  98.3083599  53.2274024  74.9359298  98.7277327  54.6794280  75.0232377
  84.2949078  64.4907347  73.6114981  84.0973478  63.8976707  72.8866047
  83.7395742  64.1859557  74.3290920  92.2745802  64.3830453  75.7309574
  92.3294412  63.4304290  75.6552051  91.4637004  64.5389892  76.2150872
  93.4236996  68.3110576  66.9687857  92.9856426  67.5946435  66.5093495
  94.1647437  68.5386691  66.4072949  90.2138162  63.0007513  73.4899953
  89.4006028  63.3001683  73.8965145  90.7097156  62.6063202  74.2074435
  92.3646740  72.9965270  75.4234218  92.3222919  73.2226116  74.4942750
  93.2809439  72.7628644  75.5720019  95.8112374  63.4649337  82.3214847
  96.1661761  63.6920811  83.1809313  96.4584505  63.7967714  81.6992102
  89.7052237  60.5725868  79.1061188  90.3451616  60.4314628  78.4084151
  88.8729767  60.2860382  78.7299790  90.4812541  69.8728299  75.2196180
  91.2753139  69.3778619  75.0178755  89.7704233  69.3446162  74.8563886
  86.7895304  64.0171381  71.2955933  85.8592892  63.9555836  71.5125895
  86.8852776  63.4947333  70.4992574  86.7080853  60.5426193  73.8834175
  86.9687670  61.4571527  73.7743335  87.5298026  60.0750636  74.0330787
  88.1805779  61.9563951  81.0532999  88.8528832  61.7481313  80.4045648
  87.3535565  61.7586037  80.6138231  94.0831351  58.5825891  83.0698660
  93.4359266  59.2815841  82.9763136  94.8532366  59.0162035  83.4374908
  94.2595485  66.4206656  81.1295480  95.1887545  66.5717816  80.9564447
  93.8386515  66.5090677  80.2744126  93.0583817  70.4457321  78.8994017
  92.9194902  70.0776105  79.7719955  92.2698413  70.9604960  78.7277975
  93.6531969  75.5466417  70.2419554  93.8283724  75.0754460  71.0565177
  92.9664757  76.1732183  70.4700815  94.6089032  69.8238924  76.2882855
  94.2738864  69.7839693  77.1840505  94.1092977  69.1583639  75.8153265
  88.5833276  65.2306554  81.8135436  88.4453074  64.4986792  82.4146975
  89.4938199  65.1415454  81.5319624  97.5448223  67.1694958  66.5619915
  96.9277394  66.4441786  66.4652968  97.0764712  67.9304318  66.2186989
  91.2115576  64.9426513  81.3019116  91.9215195  64.3019705  81.2605734
  91.1684885  65.1939408  82.2245297  89.9244510  61.9291731  83.1214755
  89.3881867  61.4782469  83.7736352  89.3361219  62.0637640  82.3785220
  88.2193054  78.6955780  77.0159414  88.4589652  79.3274304  77.6938433
  87.3762250  78.3443820  77.3024773  89.3346769  61.3880382  65.6841219
  88.4576236  61.2669183  65.3203466  89.8104522  60.5966460  65.4320108
  80.8548909  66.1757542  75.7782726  81.5419949  65.8619272  75.1903742
  80.6997038  67.0798907  75.5049978  85.6583632  61.0647738  80.2067750
  85.5741820  60.4573408  79.4718160  84.8366338  61.5556757  80.2077246
  92.5210695  73.7406673  72.9303740  91.7378217  74.2828353  73.0241964
  93.2203441  74.2580652  73.3297981  95.8307346  59.5501302  75.5737945
  96.3276045  58.7971264  75.2539015  95.0594327  59.5865619  75.0081154
  96.9137126  68.3072989  73.1476368  95.9793405  68.4274452  72.9781073
  97.0913795  67.4045456  72.8836378  92.4142314  61.6918685  75.3009630
  92.0440102  61.1389725  75.9890535  92.9101407  61.0876818  74.7484630
  98.3685909  70.4934130  70.6812555  98.6445753  70.3790724  71.5906429
  97.4990407  70.0951615  70.6424728  98.2726340  56.5170895  77.7217304
  97.3589420  56.7475122  77.8899511  98.7019442  56.6009340  78.5731336
  98.0432799  64.7060787  80.2217198  97.3904249  64.9536695  79.5669651
  98.4213179  63.8924926  79.8879675  95.0039973  74.7420481  74.3245368
  95.1862367  73.9242137  74.7873121  95.8272959  74.9588173  73.8870258
  95.3382138  73.6688666  71.5860417  95.8669905  73.1581120  70.9730579
  95.6010358  73.3531196  72.4505950  85.8399231  71.6852535  79.3295750
  86.4252668  70.9396223  79.4623654  85.6424069  71.9956492  80.2132414
  88.6937886  74.7203782  74.3458193  88.0248261  75.2049910  73.8622233
  88.5550756  74.9673003  75.2601571  80.4316886  64.2558135  78.0500193
  80.4700985  63.7221726  78.8437311  79.9257178  63.7293341  77.4311171
  87.8107648  59.1022676  81.5462736  87.8748974  59.9637507  81.1340133
  87.7474768  58.4896677  80.8135094  87.2859920  61.1745808  85.1935770
  87.9131959  60.7922886  85.8073294  86.4287839  60.9560010  85.5591462
  84.0625463  62.9822237  71.1254125  84.3578904  62.0732916  71.0721178
  83.1613499  62.9609977  70.8035127  95.9711542  74.7029501  77.9304533
  95.8462681  73.9019241  77.4215479  96.6290633  75.1975695  77.4418503
  87.5919710  61.0578234  77.1081673  86.8706296  61.6714202  76.9689147
  88.3812966  61.5935999  77.0298319  90.3946024  58.3932660  83.3822325
  90.9180426  58.6394957  84.1448634  90.1758357  59.2252695  82.9625462
  85.7913305  60.6636335  71.2493450  85.4626011  59.7833714  71.0668556
  86.1452675  60.6084004  72.1369839  95.0392884  72.2991238  75.7588435
  94.8917846  71.3707945  75.9396005  95.8646377  72.3211328  75.2745511
  88.9055128  60.9509305  71.6168928  89.2451200  61.4795226  70.8947536
  89.3527248  61.2889711  72.3927494  98.6427005  73.1219796  76.8453308
  99.5673553  72.9162658  76.7077759  98.4742309  72.8736198  77.7542650
  91.5998569  59.3346356  81.0671996  91.2595389  58.5354169  81.4692676
  90.8937575  59.6348066  80.4948829  92.2515041  56.4195668  79.5199319
  93.0741110  55.9456146  79.3978209  92.4953104  57.1986152  80.0198005
  90.8923275  59.4483926  69.8162220  91.6131638  59.8265179  69.3125937
  90.2688579  60.1672803  69.9197198  95.0354398  60.1529075  70.7520553
  95.2518012  61.0353713  70.4509381  94.5548465  59.7615289  70.0226195
  89.7753619  63.1114789  77.3291297  89.6298200  63.4255092  78.2215579
  89.2978823  63.7299689  76.7762196  91.6350002  60.1017337  77.3772187
  91.6211571  59.2058430  77.0404485  92.3522430  60.1088000  78.0110473
  93.4876133  60.5354677  79.4225314  93.2293911  61.4571747  79.4209645
  92.9561173  60.1385111  80.1125778  98.4322322  73.6405464  72.2015400
  98.6059199  73.0751886  71.4489252  98.9251213  74.4406359  72.0194890
  84.2499282  65.6520133  80.2678958  83.7052750  66.4279941  80.3999233
  85.1278631  65.9990938  80.1098080  91.0386898  58.9831717  72.6459757
  91.1602809  58.0548363  72.8450644  90.7488941  58.9970403  71.7338072
  93.9078089  56.6686627  75.7826477  93.9299785  56.7325960  74.8278456
  94.3246148  55.8291136  75.9766983  99.4197494  72.9572228  69.3012298
 100.1148399  73.5778921  69.5199613  99.7620644  72.1067580  69.5764676
  85.0365303  64.7790029  83.1609115  84.2947039  64.9272665  83.7473746
  84.7158048  65.0398295  82.2975865  93.0029578  76.4743917  75.1894882
  92.5634568  75.9820296  75.8827739  93.7537695  75.9316885  74.9486957
  85.4821917  72.6655458  75.1919510  86.3079937  72.3659230  74.8118153
  85.1315969  71.8963080  75.6409299  90.4503450  72.0181926  77.2617184
  89.8283460  71.3552631  76.9619411  91.1208317  72.0443058  76.5790831
  83.6830522  70.5841784  76.1508444  82.8462430  70.1563959  75.9692445
  83.6554168  70.7774228  77.0879235  90.5227978  60.4963714  86.8549690
  90.5716133  61.3725837  86.4727459  91.0650492  59.9541107  86.2821333
  90.0116957  70.5685850  70.7375644  90.1605077  71.2521314  70.0842317
  90.8183401  70.5490940  71.2525100  92.7527266  61.2495087  83.6096048
  91.8830576  61.5428653  83.3378637  92.9886747  61.8335532  84.3303312
  87.7669590  66.5951027  71.7436713  87.5215632  65.6913357  71.9416923
  87.9365505  66.5968178  70.8016191  95.4566300  57.4674704  81.1261469
  95.9748244  58.2035731  80.8007957  95.1021433  57.7738697  81.9608228
  87.0365238  62.3279385  69.2422874  86.3434483  62.4023740  68.5862910
  86.7916990  61.5639728  69.7644391  95.7078894  53.8874986  76.6462365
  95.9880648  53.2198175  77.2722792  96.4929501  54.0804082  76.1337029
  93.5112363  73.0633980  68.2087392  92.9386330  73.6824167  67.7557863
  94.0845156  73.6133342  68.7427313  97.6002132  59.3948203  80.5793341
  97.0052064  59.6753216  79.8839830  97.3151829  59.8842104  81.3510082
  96.7309622  73.3471130  69.3395974  97.6640296  73.2816692  69.5428849
  96.6432835  74.1827397  68.8810506  93.8959161  64.3994793  65.5503444
  94.8418266  64.2701001  65.6191862  93.5173406  63.6609455  66.0272872
  92.0802078  62.3244769  65.4858329  91.1733534  62.0277882  65.5621043
  92.3578059  62.0274587  64.6192615  82.9980019  63.6451133  75.9357376
  82.6782803  62.7916441  75.6431750  82.4513447  63.8599711  76.6915343
  86.7759926  66.3613574  79.6526882  86.9945936  67.2930681  79.6714916
  87.1885700  66.0021548  80.4381686  93.6964144  56.8681659  71.6402571
  92.8864872  56.5228744  72.0157817  94.3848561  56.5589203  72.2290182
  95.6254692  55.9459706  73.2626867  96.1785731  56.3655159  73.9216890
  95.8624779  55.0195454  73.3049823  90.8500863  59.1831704  65.6270308
  91.7120027  59.5086603  65.8866126  91.0351207  58.3963200  65.1143374
  82.8668279  67.2654044  77.9050497  82.1731750  66.8507997  77.3920452
  83.6141270  67.3074581  77.3083916  99.0033499  58.0560231  72.7705531
  98.4232168  58.7145035  72.3883584  98.7369432  57.2337575  72.3592949
  97.4537066  57.4565289  74.9726852  97.9536844  57.5681823  74.1641171
  98.0972674  57.1526341  75.6127660  84.7805021  67.1972298  75.7816512
  84.7575709  67.2959985  74.8298395  85.0905658  68.0437449  76.1033678
  87.4392399  69.2548453  79.8963127  88.3935653  69.2232395  79.8293058
  87.2404923  68.7939077  80.7113352  88.0291781  67.8249569  82.4633924
  88.8484670  68.3193648  82.4868761  88.3028589  66.9081537  82.4351492
  97.7858377  60.2160321  71.8261880  96.8984232  60.5009972  71.6082074
  98.2012367  60.0554085  70.9789157  85.7942628  74.7968072  76.9133324
  85.6597096  74.0368473  76.3471322  85.3774690  75.5208972  76.4462113
  96.9301591  69.9804996  65.9209900  97.6337441  70.1854998  66.5367555
  96.2064240  70.5481758  66.1858983  97.7599401  65.7314857  72.0412170
  97.7034603  66.1883409  71.2019802  98.3127744  64.9705542  71.8635013
  88.9511754  75.6937389  77.1251767  88.8344138  76.6382822  77.0230457
  88.1304200  75.3910951  77.5137566  98.8388288  70.4187525  67.9708360
  99.6733892  69.9868724  67.7885835  98.6772631  70.2469539  68.8985254
  98.4934180  66.9219638  69.3364699  98.4382984  66.7563910  68.3953143
  97.8680236  67.6295671  69.4926889  83.2826695  62.1587703  83.1626121
  83.9285559  61.6486657  83.6513346  83.0743847  62.8956384  83.7369547
  91.8030306  56.4227747  68.9150017  91.7908976  57.3669587  69.0718288
  92.6953728  56.2397893  68.6209479  91.7319870  75.0996638  77.0017774
  90.7815501  75.0998499  76.8882146  92.0352356  74.3529372  76.4853809
  95.6182425  53.0170524  73.1695954  94.8514821  52.4629011  73.3152637
  96.0293130  53.0892393  74.0310106  87.6224186  59.3055320  87.2601135
  88.4855648  58.9492125  87.4704460  87.0489597  58.9669215  87.9476540
  98.1484662  78.4431646  73.7755257  97.3515826  78.5550340  74.2938753
  97.9210255  78.7818298  72.9096147  95.1116662  82.4808549  72.9404247
  95.9491884  82.8905557  72.7237955  95.2894929  81.5407991  72.9104441
  95.1342833  79.8199264  73.6114981  94.9367233  79.2268625  72.8866047
  94.5789497  79.5151475  74.3290920  97.6289059  79.3463298  71.2955933
  96.6986647  79.2847754  71.5125895  97.7246531  78.8239251  70.4992574
  97.5474608  75.8718111  73.8834175  97.8081425  76.7863444  73.7743335
  98.3691780  75.4042554  74.0330787  91.6942664  81.5049460  75.7782726
  92.3813704  81.1911190  75.1903742  91.5390793  82.4090824  75.5049978
  94.9019218  78.3114155  71.1254125  95.1972659  77.4024833  71.0721178
  94.0007253  78.2901895  70.8035127  96.6307059  75.9928253  71.2493450
  96.3019765  75.1125632  71.0668556  96.9846430  75.9375921  72.1369839
  98.6063345  81.9242945  71.7436713  98.3609387  81.0205275  71.9416923
  98.7759259  81.9260095  70.8016191  97.8758992  77.6571302  69.2422874
  97.1828237  77.7315657  68.5862910  97.6310744  76.8931646  69.7644391
  93.8373773  78.9743050  75.9357376  93.5176558  78.1208358  75.6431750
  93.2907201  79.1891628  76.6915343  54.3238501  -0.0734276  63.5551479
  55.1159793  -0.4143451  63.1397779  54.5635151   0.0360699  64.4753633
  62.3573627   2.0985500  56.0281724  61.7061607   2.6839581  55.6415737
  63.1517990   2.6291695  56.0876761  58.1214297   0.5151020  69.6335757
  57.8304163   1.4196651  69.5182424  58.7571281   0.5567547  70.3479827
  58.0624962   6.9656756  59.5956519  57.9848992   7.9164581  59.6744999
  57.4586606   6.6202628  60.2531445  60.3363331   2.3238909  58.3162058
  60.2009006   3.1690444  58.7446906  60.8773143   2.5258186  57.5527992
  53.7892728  -0.1585653  58.8889984  54.3017249   0.6357597  59.0395548
  54.4415441  -0.8559363  58.8223585  55.5987613   2.9580103  60.9712737
  55.7754241   3.8798068  60.7833721  56.3944447   2.6438522  61.4007116
  61.9631807   2.9462475  72.4462401  61.5195661   2.1598854  72.1283305
  62.6249021   3.1341626  71.7806291  56.7218928   4.4758277  66.9723079
  57.2726354   4.3475340  66.2000073  55.8830404   4.7753166  66.6217972
  64.0613045   3.2265275  70.4743802  64.0431521   4.0474156  69.9824071
  64.9832965   3.1019350  70.6993943  62.9359491   6.3973114  54.7517781
  62.2621190   6.7004811  55.3602739  63.3225313   7.2002195  54.4023238
  64.8831852   3.2371288  61.0586071  65.1754827   3.7976345  60.3398437
  65.3930473   3.5299849  61.8139230  59.8465478   4.0151639  62.1479524
  59.8041656   4.2412486  61.2188056  60.7628177   3.7815014  62.2965325
  62.7826123   3.2732764  66.2953855  62.8363145   3.8423700  67.0631570
  61.9140904   3.4434649  65.9307892  61.1350706   6.5652787  56.9664861
  61.3102462   6.0940830  57.7810483  60.4483494   7.1918553  57.1946121
  55.7011792   9.7142150  63.7404721  55.9408390  10.3460674  64.4183739
  54.8580988   9.3630190  64.0270080  60.2139654   5.5221272  66.1446225
  60.1409825   6.3276244  66.6565529  59.7717047   5.7213238  65.3194246
  60.0029433   4.7593042  59.6549046  59.2196955   5.3014722  59.7487271
  60.7022178   5.2767022  60.0543287  62.6738337   5.4208106  68.3004383
  63.3866309   6.0555571  68.2280285  62.1828366   5.5171972  67.4844385
  57.7250251   3.1702550  69.1209954  58.4259710   3.8039033  69.2739348
  57.2545366   3.5117281  68.3605593  62.4858710   5.7606850  61.0490675
  62.6681105   4.9428506  61.5118427  63.3091696   5.9774542  60.6115565
  62.8200876   4.6875035  58.3105723  63.3488642   4.1767490  57.6975885
  63.0829096   4.3717566  59.1751256  53.3217969   2.7038905  66.0541057
  53.9071405   1.9582593  66.1868961  53.1242807   3.0142861  66.9377721
  56.1756624   5.7390152  61.0703499  55.5066999   6.2236280  60.5867539
  56.0369494   5.9859372  61.9846878  60.3161892   7.7733896  67.6686158
  60.8680201   7.9365517  68.4335243  60.6568086   8.3638333  66.9966182
  63.4530280   5.7215871  64.6549840  63.3281419   4.9205611  64.1460785
  64.1109371   6.2162064  64.1663810  62.5211621   3.3177607  62.4833742
  62.3736584   2.3894315  62.6641312  63.3465115   3.3397698  61.9990817
  66.1245743   4.1406166  63.5698615  67.0492291   3.9349027  63.4323066
  65.9561047   3.8922567  64.4787956  65.9141060   4.6591834  58.9260706
  66.0877937   4.0938256  58.1734559  66.4069951   5.4592728  58.7440196
  60.4627704   5.3392377  69.6834812  60.7714830   5.0941524  70.5557512
  61.2603186   5.5439016  69.1953682  60.4848316   7.4930287  61.9140189
  60.0453306   7.0006665  62.6073045  61.2356433   6.9503254  61.6732264
  52.9640655   3.6841828  61.9164817  53.7898675   3.3845599  61.5363460
  52.6134707   2.9149450  62.3654605  57.9322188   3.0368296  63.9862490
  57.3102197   2.3739001  63.6864718  58.6027055   3.0629428  63.3036138
  51.1649260   1.6028154  62.8753750  50.3281168   1.1750328  62.6937751
  51.1372905   1.7960597  63.8124541  57.4935695   1.5872219  57.4620951
  57.6423815   2.2707684  56.8087623  58.3002138   1.5677309  57.9770406
  60.9931100   4.0820350  54.9332698  60.4205068   4.7010537  54.4803170
  61.5663894   4.6319711  55.4672620  64.2128360   4.3657500  56.0641280
  65.1459033   4.3003061  56.2674156  64.1251573   5.2013767  55.6055813
  50.3487016  -1.7159586  64.6295804  49.6550488  -2.1305634  64.1165758
  51.0960007  -1.6739050  64.0329223  54.9211137   0.2734822  66.6208433
  55.8754390   0.2418765  66.5538365  54.7223660  -0.1874554  67.4358659
  53.2761366   5.8154442  63.6378631  53.1415834   5.0554843  63.0716629
  52.8593428   6.5395342  63.1707420  56.4330492   6.7123759  63.8497074
  56.3162876   7.6569191  63.7475764  55.6122938   6.4097321  64.2382873
  57.4585006   7.3652021  67.0653002  58.3612252   7.3975631  67.3819497
  57.2322376   6.4352472  67.0799338  59.2138608   6.1183007  63.7263081
  58.2634239   6.1184869  63.6127453  59.5171094   5.3715742  63.2099115
  74.9491301  11.9543546  64.7908843  75.5869711  11.8350293  64.0872183
  74.8312144  12.9024390  64.8496795  71.7581007  11.9070974  64.7270368
  71.4199519  11.7912039  63.8390903  72.6270776  11.5062139  64.7071374
  67.6167823  13.7606450  60.7167259  67.0532688  13.6696387  59.9483547
  67.5020218  12.9406355  61.1969751  72.2400790  13.0605826  70.6856573
  72.2289431  12.6658624  69.8137077  72.4021430  12.3271898  71.2790345
  65.1632255  15.2557642  63.5551479  65.9553547  14.9148467  63.1397779
  65.4028905  15.3652617  64.4753633  73.1967382  17.4277418  56.0281724
  72.5455362  18.0131498  55.6415737  73.9911745  17.9583613  56.0876761
  67.1223009  14.5166555  56.4268858  67.8953885  13.9695542  56.2881734
  67.4748408  15.3810804  56.6383319  68.9608052  15.8442937  69.6335757
  68.6697918  16.7488568  69.5182424  69.5965036  15.8859465  70.3479827
  69.8864258  13.2219786  66.2237117  70.4827831  12.9975808  65.5094080
  69.9439230  12.4804531  66.8262565  69.4589287  10.6759221  54.0587308
  69.7114808  10.1540743  53.2970771  68.5213846  10.5125367  54.1613992
  74.5032570   9.6795000  61.8662051  75.2895659   9.2614423  61.5152468
  74.7671274  10.5841092  62.0343700  74.6742647  15.1167850  56.5650708
  74.0388480  15.1902476  57.2771613  74.3440053  15.7061449  55.8869787
  79.9040997   9.6170233  62.7695030  80.6366169   9.0469450  63.0032859
  79.1480352   9.2291833  63.2101535  69.1785576  12.5787327  56.2611683
  69.0621834  11.9032231  56.9292767  69.2887835  12.0919701  55.4443836
  71.5217117  12.0397474  59.9658372  71.1575324  11.5128095  60.6771294
  72.3784232  11.6495943  59.7924858  71.1622603   7.0687374  54.9619721
  71.3297006   7.9367610  55.3290192  70.9719773   7.2314656  54.0381010
  73.9197937  15.5304353  66.6285551  73.6198660  16.4329392  66.5201358
  73.5748996  15.2636536  67.4806704  67.3710418  11.9818150  62.6622255
  66.4460915  11.8494364  62.8699947  67.6194831  12.7612369  63.1592198
  77.3195080   8.0486893  64.3082988  76.4111958   7.9802302  64.0141749
  77.2682676   8.5258838  65.1364814  71.1411824   9.5245032  55.9466387
  71.0211450   9.9702082  56.7851868  70.4464413   9.8730349  55.3879926
  64.7319229  11.6251423  63.4966045  64.8611610  11.8785902  64.4105456
  64.0516681  12.2179131  63.1770700  68.9018716  22.2948673  59.5956519
  68.8242746  23.2456498  59.6744999  68.2980360  21.9494546  60.2531445
  71.3935946   9.4676539  72.2517886  70.6169280  10.0270459  72.2420750
  72.0326509   9.9533322  72.7732756  76.8396891   9.9966505  56.7746722
  77.7514747  10.2293891  56.5994419  76.3306538  10.5803549  56.2121800
  69.6482319  12.2761992  71.8135853  70.3897003  12.8147036  71.5370676
  68.9419304  12.9028281  71.9707404  75.1237658  14.4191133  70.4108014
  75.5321014  13.9773543  69.6662646  74.4014920  13.8443760  70.6642207
  71.4768728   9.3563739  67.7841571  72.3229923   9.7803153  67.9276220
  71.4167366   8.6997364  68.4780134  75.4466473  14.9792323  64.1660303
  74.8175335  15.1438037  63.4636371  75.0592135  15.3933933  64.9371267
  79.3255705  15.9146761  61.5204667  78.6406743  16.2945662  60.9701700
  79.4099554  16.5242088  62.2536614  74.6268174   7.0168108  69.4422745
  74.3829105   7.7710168  68.9057020  74.9028104   7.3953455  70.2769992
  76.5806636  13.5606720  68.1200010  76.7923532  14.2038480  67.4434391
  76.5336385  12.7269037  67.6521940  74.1832865   6.1724541  65.0236582
  73.3217344   6.4705794  65.3153320  74.2095300   6.3894940  64.0917615
  70.9994435  14.7166731  61.4310388  71.4632780  14.9954434  60.6415011
  70.7351233  13.8150176  61.2483479  67.8918516  14.2638213  64.3690151
  68.4619873  14.6925481  63.7307636  68.4826628  13.9820798  65.0674337
  69.9363321  10.8389884  58.2399953  70.6387364  11.2910927  58.7073880
  69.6043949  10.1973702  58.8679846  68.3843682   9.4301640  72.6151163
  67.7542343  10.1117921  72.8486559  68.2779770   9.3184722  71.6704301
  63.6788655   9.0973436  63.5417087  62.8887709   9.3530965  63.0657197
  64.1699902   9.9121774  63.6469127  77.6952464  16.4378675  66.2922368
  78.5169908  16.0358863  66.0105049  77.6914867  16.3346910  67.2438483
  65.6303400   9.4618016  60.5000563  64.8334563   9.5736710  61.0184059
  65.4028992   9.8004668  59.6341454  71.4609068  15.9862719  68.4483078
  71.5253500  16.4483126  69.2841250  70.7519992  15.3560084  68.5765388
  61.9626358   9.3503927  65.9732078  62.2134396  10.2350937  66.2389654
  62.4985906   9.1708528  65.2007169  85.7858457  12.7817424  62.6407339
  85.0322166  12.2124822  62.4851344  85.9205999  12.7480088  63.5877974
  71.1757085  17.6530826  58.3162058  71.0402760  18.4982362  58.7446906
  71.7166898  17.8550104  57.5527992  64.6286483  15.1706264  58.8889984
  65.1411003  15.9649515  59.0395548  65.2809196  14.4732555  58.8223585
  66.4381367  18.2872021  60.9712737  66.6147996  19.2089985  60.7833721
  67.2338201  17.9730440  61.4007116  65.7233724  10.3336652  70.8474900
  65.6087239   9.4321910  71.1481999  64.8678242  10.5800349  70.4959716
  72.8025562  18.2754393  72.4462401  72.3589416  17.4890771  72.1283305
  73.4642775  18.4633543  71.7806291  67.5612683  19.8050194  66.9723079
  68.1120108  19.6767258  66.2000073  66.7224159  20.1045083  66.6217972
  74.9006800  18.5557193  70.4743802  74.8825275  19.3766074  69.9824071
  75.8226720  18.4311268  70.6993943  71.3579854  16.0701322  71.3167310
  71.8908191  15.3089610  71.0866618  70.8293935  15.7774974  72.0591465
  62.5935400  13.4994919  59.6649554  63.4310622  13.9091927  59.4483262
  62.7713667  12.5594361  59.6349748  74.4899832  11.1669999  55.3533387
  73.9746455  11.9374604  55.5921774  74.2177140  10.4935135  55.9766448
  72.0746943   6.0119700  60.4118625  71.2188539   5.6226550  60.2324264
  72.4873894   6.0911661  59.5518411  79.4634106  13.9202354  57.2886560
  78.6863549  13.5813513  56.8441723  80.1425587  13.9254977  56.6141526
  74.2786135   9.0397091  57.1793168  73.9736270   9.3543241  58.0303311
  75.2316577   9.1178511  57.2220501  72.7232567  15.1987315  58.8286122
  72.1953928  14.4640074  58.5159360  72.2220069  15.9761991  58.5826091
  77.7025413  13.3936335  63.9453168  77.0449087  14.0835597  64.0333297
  78.5065812  13.7832767  64.2887155  67.4551294   5.8606981  61.1892734
  68.0295046   5.6382162  60.4565927  68.0422277   5.9295675  61.9421335
  76.5130872  11.7480708  61.9957110  77.0262753  12.3810700  62.4978820
  77.1632095  11.1481903  61.6300470  67.7820881   7.8911442  55.2088619
  66.9458194   8.2286129  55.5297894  67.6425651   7.7560422  54.2715756
  70.8685167  13.0167525  51.8321095  69.9612229  12.7856778  52.0312244
  71.3656199  12.2205144  52.0195077  73.7753246  21.7265032  54.7517781
  73.1014945  22.0296729  55.3602739  74.1619068  22.5294112  54.4023238
  72.9911702   9.2230163  64.2415451  72.0734264   9.4445110  64.0837139
  73.4071846   9.2976474  63.3827158  73.7746750  10.6221579  59.3718131
  74.5218569  11.1342976  59.0625253  74.0438340  10.3005632  60.2322525
  72.0473400  13.1180120  56.3545085  71.1384620  12.8339153  56.4517555
  72.0768484  13.5379198  55.4948392  77.2792668  16.7286709  60.1236253
  76.8254995  15.8877619  60.1801443  76.6486634  17.3648108  60.4611033
  76.2225587   7.6578695  61.3536920  75.4848344   7.1456082  61.6847163
  76.4752361   7.2179077  60.5420197  75.7225607  18.5663206  61.0586071
  76.0148581  19.1268263  60.3398437  76.2324228  18.8591767  61.8139230
  62.6161571  10.8385634  60.3360288  62.4185971  10.2454995  59.6111354
  62.0608235  10.5337844  61.0536226  70.5958294  10.7308740  62.4554881
  70.6506904   9.7782577  62.3797357  69.7849496  10.8868179  62.9396179
  71.7449488  14.6588863  53.6933164  71.3068918  13.9424722  53.2338801
  72.4859929  14.8864978  53.1318255  68.5350654   9.3485800  60.2145260
  67.7218520   9.6479971  60.6210452  69.0309648   8.9541489  60.9319742
  70.6859232  19.3443557  62.1479524  70.6435411  19.5704403  61.2188056
  71.6021931  19.1106932  62.2965325  74.1324866   9.8127625  69.0460153
  74.4874254  10.0399098  69.9054619  74.7796997  10.1446001  68.4237409
  79.8622603  12.9346060  59.7509482  79.7240501  13.1247656  58.8230672
  79.5058822  13.6965443  60.2077534  68.0264729   6.9204156  65.8306494
  68.6664108   6.7792915  65.1329458  67.1942260   6.6338669  65.4545096
  79.8891983  15.0022587  64.7620754  80.3228489  14.9097877  65.6103808
  80.6023563  14.9780088  64.1240770  68.8025033  16.2206586  61.9441487
  69.5965631  15.7256906  61.7424062  68.0916725  15.6924449  61.5809192
  73.6219877  18.6024682  66.2953855  73.6756900  19.1715618  67.0631570
  72.7534659  18.7726567  65.9307892  65.1107796  10.3649668  58.0201240
  64.1805385  10.3034123  58.2371202  65.2065268   9.8425621  57.2237881
  65.0293345   6.8904481  60.6079481  65.2900163   7.8049814  60.4988642
  65.8510518   6.4228923  60.7576094  66.5018271   8.3042238  67.7778306
  67.1741324   8.0959600  67.1290955  65.6748057   8.1064324  67.3383538
  80.7507532  15.0446288  67.2953639  80.9443422  15.9492099  67.5412914
  80.6508150  14.5853707  68.1292224  75.8122641  15.1953031  72.8694520
  75.6608147  14.9663583  71.9524604  75.8027320  16.1523632  72.8825865
  72.5807977  12.7684944  67.8540786  73.5100037  12.9196103  67.6809754
  72.1599007  12.8568964  66.9989433  71.3796309  16.7935608  65.6239324
  71.2407395  16.4254392  66.4965262  70.5910905  17.3083247  65.4523282
  71.9744461  21.8944705  56.9664861  72.1496217  21.4232748  57.7810483
  71.2877249  22.5210471  57.1946121  72.9301524  16.1717211  63.0128162
  72.5951357  16.1317981  63.9085812  72.4305470  15.5061927  62.5398572
  66.9045768  11.5784841  68.5380743  66.7665566  10.8465080  69.1392282
  67.8150692  11.4893741  68.2564931  75.8660716  13.5173245  53.2865221
  75.2489886  12.7920073  53.1898274  75.3977204  14.2782605  52.9432296
  69.5328069  11.2904800  68.0264423  70.2427687  10.6497992  67.9851041
  69.4897377  11.5417695  68.9490603  77.5214847  18.2272153  70.9471002
  77.4627394  17.5431374  70.2801585  77.9234366  18.9691143  70.4951628
  68.2457003   8.2770018  69.8460062  67.7094360   7.8260756  70.4981658
  67.6573711   8.4115927  69.1030526  77.5232255  16.1911737  69.1784981
  76.6359033  15.8537659  69.3011380  78.0930806  15.4594769  69.4153747
  59.1761402  12.5235829  62.5028033  59.8632442  12.2097559  61.9149048
  59.0209530  13.4277194  62.2295284  63.9796124   7.4126026  66.9313057
  63.8954313   6.8051695  66.1963467  63.1578830   7.9035044  66.9322553
  71.0533408  20.8513190  66.1446225  70.9803580  21.6568161  66.6565529
  70.6110801  21.0505156  65.3194246  70.8423188  20.0884960  59.6549046
  70.0590710  20.6306640  59.7487271  71.5415933  20.6058939  60.0543287
  82.0049595  11.6019955  63.9401543  81.9939471  12.4844670  63.5695476
  81.1366975  11.2491506  63.7456080  73.5132092  20.7500024  68.3004383
  74.2260064  21.3847489  68.2280285  73.0222120  20.8463890  67.4844385
  75.2349618  14.6551276  59.8721675  74.3005897  14.7752739  59.7026379
  75.4126287  13.7523743  59.6081685  70.7354807   8.0396972  62.0254936
  70.3652594   7.4868013  62.7135842  71.2313899   7.4355106  61.4729936
  78.6222170  10.4968596  60.4071709  79.0882622  11.3296587  60.3332012
  79.0729670  10.0313577  61.1116968  68.5644005  18.4994467  69.1209954
  69.2653465  19.1330950  69.2739348  68.0939120  18.8409199  68.3605593
  76.6898401  16.8412417  57.4057861  76.9658245  16.7269012  58.3151735
  75.8202900  16.4429902  57.3670034  76.3645291  11.0539075  66.9462505
  75.7116741  11.3014982  66.2914957  76.7425671  10.2403213  66.6124982
  73.3252465  21.0898768  61.0490675  73.5074859  20.2720424  61.5118427
  74.1485451  21.3066460  60.6115565  73.6594630  20.0166953  58.3105723
  74.1882397  19.5059408  57.6975885  73.9222850  19.7009483  59.1751256
  72.4132864  11.7958886  73.4328542  71.7373501  11.6953015  74.1030917
  73.2360498  11.6398099  73.8964539  64.1611723  18.0330822  66.0541057
  64.7465160  17.2874510  66.1868961  63.9636562  18.3434779  66.9377721
  67.0150378  21.0682070  61.0703499  66.3460754  21.5528197  60.5867539
  66.8763248  21.3151290  61.9846878  58.7529378  10.6036422  64.7745500
  58.7913477  10.0700013  65.5682618  58.2469671  10.0771628  64.1556477
  71.1555647  23.1025813  67.6686158  71.7073955  23.2657435  68.4335243
  71.4961840  23.6930251  66.9966182  66.1320140   5.4500963  68.2708042
  66.1961467   6.3115794  67.8585440  66.0687260   4.8374965  67.5380401
  65.6072413   7.5224096  71.9181077  66.2344452   7.1401173  72.5318601
  64.7500332   7.3038297  72.2836769  76.0066521  17.9287071  73.5234812
  76.5506425  18.5417029  73.0289767  75.4253366  18.4866649  74.0401825
  62.3837955   9.3300525  57.8499431  62.6791397   8.4211203  57.7966485
  61.4825991   9.3088264  57.5280434  74.2924034  21.0507789  64.6549840
  74.1675174  20.2497529  64.1460785  74.9503125  21.5453982  64.1663810
  65.9132202   7.4056521  63.8326980  65.1918788   8.0192489  63.6934453
  66.7025458   7.9414286  63.7543626  76.3558943  18.8516809  66.2829390
  75.4089278  18.7322160  66.2107717  76.7041716  17.9639307  66.3655651
  68.7158516   4.7410948  70.1067632  69.2392918   4.9873244  70.8693941
  68.4970849   5.5730983  69.6870769  64.1125797   7.0114622  57.9738757
  63.7838503   6.1312001  57.7913862  64.4665168   6.9562291  58.8615146
  73.3605376  18.6469525  62.4833742  73.2130338  17.7186232  62.6641312
  74.1858869  18.6689616  61.9990817  67.2267620   7.2987592  58.3414234
  67.5663693   7.8273513  57.6192843  67.6739741   7.6367998  59.1172801
  76.9639498  19.4698084  63.5698615  77.8886045  19.2640945  63.4323066
  76.7954801  19.2214485  64.4787956  69.9211061   5.6824643  67.7917302
  69.5807881   4.8832456  68.1937982  69.2150067   5.9826354  67.2194135
  69.2135767   5.7962214  56.5407527  69.9344130   6.1743466  56.0371244
  68.5901071   6.5151091  56.6442505  73.3566890   6.5007363  57.4765859
  73.5730505   7.3832001  57.1754687  72.8760957   6.1093576  56.7471501
  68.0966112   9.4593076  64.0536604  67.9510692   9.7733379  64.9460885
  67.6191315  10.0777976  63.5007503  69.9562495   6.4495624  64.1017493
  69.9424063   5.5536717  63.7649791  70.6734923   6.4566288  64.7355780
  71.8088625   6.8832964  66.1470621  71.5506403   7.8050035  66.1454951
  71.2773666   6.4863399  66.8371085  76.7534814  19.9883751  58.9260706
  76.9271692  19.4230174  58.1734559  77.2463705  20.7884646  58.7440196
  62.5711774  11.9998420  66.9924265  62.0265242  12.7758228  67.1244539
  63.4491124  12.3469225  66.8343387  69.3599390   5.3310004  59.3705064
  69.4815302   4.4026650  59.5695951  69.0701433   5.3448690  58.4583379
  82.6074205  12.7520174  60.5451006  83.0505351  12.0027499  60.1470129
  81.7300715  12.7430311  60.1624738  77.7409986  19.3050516  56.0257605
  78.4360891  19.9257208  56.2444919  78.0833137  18.4545867  56.3009982
  63.3577796  11.1268317  69.8854422  62.6159532  11.2750952  70.4719052
  63.0370540  11.3876582  69.0221171  79.6401410  16.7550221  57.5544935
  80.1652734  17.0937494  56.8294255  79.5523762  15.8197236  57.3708070
  71.3021458  20.6684295  69.6834812  71.6108585  20.4233442  70.5557512
  72.0996940  20.8730933  69.1953682  71.3242070  22.8222204  61.9140189
  70.8847061  22.3298583  62.6073045  72.0750187  22.2795172  61.6732264
  68.7715943  18.3660214  63.9862490  68.1495952  17.7030919  63.6864718
  69.4420809  18.3921345  63.3036138  68.8440470   6.8442002  73.5794996
  68.8928625   7.7204124  73.1972766  69.3862984   6.3019395  73.0066639
  79.3295316  17.3883125  72.8596133  78.5390859  17.3707264  72.3200633
  79.0928670  17.9271418  73.6145170  79.4493191  14.2375591  70.1728862
  79.4991196  14.0725599  71.1144385  79.3407114  13.3702850  69.7826743
  68.3329449  16.9164137  57.4620951  68.4817570  17.5999601  56.8087623
  69.1395893  16.8969227  57.9770406  76.7396953  10.2206519  71.4888169
  77.6406816  10.0812984  71.1972166  76.8144928  10.3860974  72.4286346
  71.0739758   7.5973374  70.3341355  70.2043068   7.8906940  70.0623943
  71.3099239   8.1813819  71.0548618  80.9511388  16.6572533  70.4170883
  80.6596196  17.0202513  71.2534344  80.3383519  15.9439541  70.2384215
  82.1507070  14.2225412  62.9373454  82.9853961  14.6615217  63.1011014
  82.2866199  13.7464066  62.1181699  79.1998576  11.7805147  68.8850941
  79.6752697  11.9732794  68.0769793  78.2764141  11.8364333  68.6394325
  66.0882082  12.9429314  58.4682020  65.8428124  12.0391644  58.6662230
  66.2577997  12.9446465  57.5261498  65.3577730   8.6757672  55.9668181
  64.6646975   8.7502027  55.3108217  65.1129482   7.9118016  56.4889698
  71.8324855  19.4112267  54.9332698  71.2598822  20.0302454  54.4803170
  72.4057649  19.9611629  55.4672620  77.9000245   8.6570907  67.1179247
  78.8517668   8.7569005  67.1391471  77.7303695   7.8649176  67.6277331
  75.0522115  19.6949417  56.0641280  75.9852788  19.6294979  56.2674156
  74.9645328  20.5305684  55.6055813  77.6810131  19.0115288  53.0245228
  77.6023763  18.6775151  53.9180986  78.5019798  19.5037056  53.0236700
  80.3788323  11.8777027  66.2321547  80.3464643  10.9393028  66.4181230
  80.9888946  11.9561064  65.4987371  72.2171653  10.7473080  52.2748751
  73.1630758  10.6179288  52.3437169  71.8385898  10.0087742  52.7518179
  86.1964872  12.9393034  65.3727583  86.9268261  12.6778322  65.9335287
  85.5871818  12.2021756  65.4129651  84.2780170  11.0800896  65.9702035
  83.5513333  10.9456861  65.3618526  83.8627456  11.3877725  66.7758753
  72.1010346  14.7990826  73.7349408  73.0213355  14.9769425  73.9289454
  72.0659929  13.8546872  73.5829107  70.4014571   8.6723056  52.2103636
  69.4946026   8.3756169  52.2866349  70.6790552   8.3752875  51.3437922
  61.3192511   9.9929420  62.6602682  60.9995295   9.1394728  62.3677056
  60.7725939  10.2077998  63.4160650  65.0972419  12.7091861  66.3772189
  65.3158428  13.6408969  66.3960223  65.5098192  12.3499835  67.1626993
  69.9700284   8.2825067  75.7674938  69.8697011   9.2319424  75.6987029
  69.7521826   7.9543305  74.8951008  69.1713355   5.5309992  52.3515615
  70.0332519   5.8564890  52.6111432  69.3563699   4.7441488  51.8388681
  69.8331554  11.7122205  74.5839999  69.3498636  12.5122566  74.7903888
  69.9192493  11.7230150  73.6307443  63.1017513  13.5450585  62.5061819
  63.0788202  13.6438272  61.5543702  63.4118150  14.3915736  62.8278985
  65.7604891  15.6026740  66.6208433  66.7148145  15.5710682  66.5538365
  65.5617415  15.1417364  67.4358659  66.3504273  14.1727856  69.1879231
  67.1697162  14.6671935  69.2114068  66.6241081  13.2559824  69.1596798
  75.2514083  16.3283283  52.6455206  75.9549933  16.5333286  53.2612862
  74.5276732  16.8960045  52.9104290  76.0811893  12.0793144  58.7657476
  76.0247095  12.5361696  57.9265109  76.6340236  11.3183829  58.5880319
  84.2029037  10.6078950  62.0978887  83.6428595  10.6772139  62.8710449
  83.5972541  10.4319934  61.3778384  67.2724246  22.0415677  63.8497074
  67.1556630  22.9861109  63.7475764  66.4516692  21.7389238  64.2382873
  77.1600781  16.7665812  54.6953666  77.9946385  16.3347011  54.5131141
  76.9985123  16.5947826  55.6230561  76.8146673  13.2697926  56.0610006
  76.7595477  13.1042197  55.1198450  76.1892728  13.9773959  56.2172195
  61.6039188   8.5065990  69.8871428  62.2498051   7.9964944  70.3758653
  61.3956339   9.2434672  70.4614853  74.1292580  15.5746838  75.3863568
  74.9983740  15.7487490  75.0250203  73.6499331  16.3941254  75.2639298
  68.2978760  22.6943939  67.0653002  69.2006007  22.7267549  67.3819497
  68.0716130  21.7644389  67.0799338  70.0532362  21.4474925  63.7263081
  69.1027993  21.4476787  63.6127453  70.3564848  20.7007660  63.2099115
  65.9436679   5.6533607  73.9846442  66.8068140   5.2970412  74.1949767
  65.3702089   5.3147502  74.6721846  85.7885056  27.2835463  64.7908843
  86.4263466  27.1642211  64.0872183  85.6705899  28.2316307  64.8496795
  82.5974762  27.2362892  64.7270368  82.2593273  27.1203956  63.8390903
  83.4664530  26.8354057  64.7071374  78.4561578  29.0898368  60.7167259
  77.8926443  28.9988305  59.9483547  78.3413973  28.2698272  61.1969751
  83.0794545  28.3897743  70.6856573  83.0683186  27.9950542  69.8137077
  83.2415184  27.6563816  71.2790345  76.0026010  30.5849560  63.5551479
  76.7947301  30.2440384  63.1397779  76.2422660  30.6944535  64.4753633
  84.0361136  32.7569336  56.0281724  83.3849116  33.3423416  55.6415737
  84.8305499  33.2875531  56.0876761  77.9616764  29.8458473  56.4268858
  78.7347640  29.2987460  56.2881734  78.3142162  30.7102722  56.6383319
  79.8001806  31.1734855  69.6335757  79.5091672  32.0780486  69.5182424
  80.4358790  31.2151383  70.3479827  80.7258013  28.5511704  66.2237117
  81.3221585  28.3267726  65.5094080  80.7832984  27.8096449  66.8262565
  80.2983041  26.0051139  54.0587308  80.5508562  25.4832660  53.2970771
  79.3607600  25.8417284  54.1613992  85.3426324  25.0086917  61.8662051
  86.1289413  24.5906340  61.5152468  85.6065028  25.9133010  62.0343700
  85.5136402  30.4459768  56.5650708  84.8782234  30.5194394  57.2771613
  85.1833808  31.0353366  55.8869787  90.7434751  24.9462151  62.7695030
  91.4759923  24.3761367  63.0032859  89.9874107  24.5583751  63.2101535
  80.0179330  27.9079245  56.2611683  79.9015588  27.2324148  56.9292767
  80.1281590  27.4211619  55.4443836  82.3610871  27.3689392  59.9658372
  81.9969078  26.8420013  60.6771294  83.2177987  26.9787861  59.7924858
  88.2660172  18.6583725  67.2289638  87.9343496  19.5279136  67.0050853
  87.6705785  18.3420009  67.9083669  82.0016358  22.3979292  54.9619721
  82.1690760  23.2659528  55.3290192  81.8113527  22.5606573  54.0381010
  84.7591691  30.8596271  66.6285551  84.4592414  31.7621309  66.5201358
  84.4142751  30.5928454  67.4806704  78.2104173  27.3110067  62.6622255
  77.2854669  27.1786282  62.8699947  78.4588586  28.0904287  63.1592198
  88.1588835  23.3778811  64.3082988  87.2505712  23.3094219  64.0141749
  88.1076431  23.8550756  65.1364814  81.9805579  24.8536949  55.9466387
  81.8605204  25.2994000  56.7851868  81.2858167  25.2022267  55.3879926
  75.5712984  26.9543341  63.4966045  75.7005365  27.2077820  64.4105456
  74.8910435  27.5471049  63.1770700  79.7412471  37.6240591  59.5956519
  79.6636501  38.5748416  59.6744999  79.1374115  37.2786463  60.2531445
  82.2329701  24.7968456  72.2517886  81.4563035  25.3562377  72.2420750
  82.8720264  25.2825239  72.7732756  90.0250481  21.5795249  66.0860862
  89.3824862  21.8727782  65.4400657  89.5205410  21.4648170  66.8914059
  87.6790645  25.3258422  56.7746722  88.5908501  25.5585809  56.5994419
  87.1700292  25.9095467  56.2121800  80.4876073  27.6053910  71.8135853
  81.2290757  28.1438954  71.5370676  79.7813059  28.2320199  71.9707404
  85.9631413  29.7483050  70.4108014  86.3714769  29.3065461  69.6662646
  85.2408674  29.1735678  70.6642207  82.3162483  24.6855657  67.7841571
  83.1623678  25.1095071  67.9276220  82.2561120  24.0289281  68.4780134
  86.2860227  30.3084241  64.1660303  85.6569090  30.4729955  63.4636371
  85.8985889  30.7225850  64.9371267  90.1649459  31.2438679  61.5204667
  89.4800497  31.6237580  60.9701700  90.2493309  31.8534005  62.2536614
  85.4661928  22.3460025  69.4422745  85.2222860  23.1002086  68.9057020
  85.7421859  22.7245373  70.2769992  87.4200391  28.8898638  68.1200010
  87.6317286  29.5330398  67.4434391  87.3730139  28.0560954  67.6521940
  85.0226620  21.5016458  65.0236582  84.1611099  21.7997712  65.3153320
  85.0489054  21.7186857  64.0917615  81.8388189  30.0458649  61.4310388
  82.3026535  30.3246352  60.6415011  81.5744987  29.1442094  61.2483479
  78.7312270  29.5930130  64.3690151  79.3013627  30.0217399  63.7307636
  79.3220382  29.3112715  65.0674337  80.7757075  26.1681801  58.2399953
  81.4781119  26.6202845  58.7073880  80.4437704  25.5265620  58.8679846
  79.2237437  24.7593558  72.6151163  78.5936097  25.4409839  72.8486559
  79.1173525  24.6476640  71.6704301  74.5182409  24.4265354  63.5417087
  73.7281463  24.6822883  63.0657197  75.0093657  25.2413692  63.6469127
  88.5346219  31.7670593  66.2922368  89.3563663  31.3650780  66.0105049
  88.5308622  31.6638827  67.2438483  76.4697155  24.7909933  60.5000563
  75.6728318  24.9028627  61.0184059  76.2422747  25.1296585  59.6341454
  82.3002822  31.3154636  68.4483078  82.3647255  31.7775044  69.2841250
  81.5913746  30.6852001  68.5765388  72.8020112  24.6795844  65.9732078
  73.0528151  25.5642854  66.2389654  73.3379661  24.5000446  65.2007169
  96.6252212  28.1109342  62.6407339  95.8715920  27.5416740  62.4851344
  96.7599753  28.0772006  63.5877974  82.0150840  32.9822744  58.3162058
  81.8796515  33.8274280  58.7446906  82.5560652  33.1842022  57.5527992
  78.5018180  19.0614324  74.9776414  78.1085125  18.5080522  75.6524058
  79.3184320  19.3724902  75.3682931  75.4680237  30.4998182  58.8889984
  75.9804758  31.2941432  59.0395548  76.1202950  29.8024472  58.8223585
  77.2775122  33.6163938  60.9712737  77.4541750  34.5381903  60.7833721
  78.0731955  33.3022357  61.4007116  81.4186141  20.4772203  72.5696670
  82.1595854  21.0779356  72.4901133  81.6504063  19.7349841  72.0114713
  76.5627479  25.6628570  70.8474900  76.4480994  24.7613827  71.1481999
  75.7071996  25.9092267  70.4959716  83.6419316  33.6046310  72.4462401
  83.1983170  32.8182689  72.1283305  84.3036530  33.7925461  71.7806291
  78.4006437  35.1342112  66.9723079  78.9513863  35.0059175  66.2000073
  77.5617913  35.4337001  66.6217972  85.7400554  33.8849110  70.4743802
  85.7219030  34.7057991  69.9824071  86.6620474  33.7603186  70.6993943
  82.1973608  31.3993240  71.3167310  82.7301945  30.6381528  71.0866618
  81.6687690  31.1066892  72.0591465  85.3643303  16.5053306  66.8460952
  85.0207573  17.3954947  66.7700062  85.7322266  16.3154963  65.9830537
  73.4329154  28.8286836  59.6649554  74.2704376  29.2383845  59.4483262
  73.6107422  27.8886278  59.6349748  85.3293586  26.4961917  55.3533387
  84.8140210  27.2666522  55.5921774  85.0570895  25.8227053  55.9766448
  82.9140697  21.3411618  60.4118625  82.0582294  20.9518468  60.2324264
  83.3267649  21.4203579  59.5518411  84.4439844  18.8757961  64.8110185
  83.9404639  18.8388096  63.9977990  84.7370451  19.7850704  64.8706842
  80.6882730  18.9596691  63.8176367  81.5535726  18.7639499  63.4582256
  80.7560239  18.7307042  64.7445724  90.3027860  29.2494272  57.2886560
  89.5257303  28.9105431  56.8441723  90.9819341  29.2546895  56.6141526
  85.1179889  24.3689009  57.1793168  84.8130025  24.6835158  58.0303311
  86.0710331  24.4470429  57.2220501  83.5626321  30.5279232  58.8286122
  83.0347683  29.7931992  58.5159360  83.0613824  31.3053909  58.5826091
  88.5419167  28.7228253  63.9453168  87.8842842  29.4127514  64.0333297
  89.3459566  29.1124685  64.2887155  78.2945049  21.1898899  61.1892734
  78.8688801  20.9674080  60.4565927  78.8816031  21.2587593  61.9421335
  87.3524626  27.0772626  61.9957110  87.8656508  27.7102617  62.4978820
  88.0025850  26.4773821  61.6300470  78.6214636  23.2203360  55.2088619
  77.7851948  23.5578046  55.5297894  78.4819406  23.0852339  54.2715756
  80.5967717  18.0640148  59.9167803  79.9432129  17.7489165  59.2924418
  80.5548191  17.4415888  60.6427626  81.7078921  28.3459443  51.8321095
  80.8005983  28.1148696  52.0312244  82.2049953  27.5497062  52.0195077
  84.6147000  37.0556950  54.7517781  83.9408699  37.3588647  55.3602739
  85.0012822  37.8586030  54.4023238  83.8305457  24.5522081  64.2415451
  82.9128018  24.7737028  64.0837139  84.2465600  24.6268392  63.3827158
  84.6140505  25.9513497  59.3718131  85.3612324  26.4634894  59.0625253
  84.8832094  25.6297549  60.2322525  82.8867155  28.4472037  56.3545085
  81.9778374  28.1631070  56.4517555  82.9162239  28.8671116  55.4948392
  88.1186422  32.0578627  60.1236253  87.6648749  31.2169537  60.1801443
  87.4880389  32.6940025  60.4611033  87.0619342  22.9870613  61.3536920
  86.3242099  22.4747999  61.6847163  87.3146115  22.5470995  60.5420197
  86.5619361  33.8955124  61.0586071  86.8542336  34.4560181  60.3398437
  87.0717982  34.1883685  61.8139230  87.1630969  15.7646865  61.9478690
  87.4689846  14.9044228  61.6604605  87.8883574  16.3564485  61.7477683
  73.4555325  26.1677552  60.3360288  73.2579725  25.5746912  59.6111354
  72.9001989  25.8629762  61.0536226  81.4352049  26.0600658  62.4554881
  81.4900659  25.1074494  62.3797357  80.6243251  26.2160097  62.9396179
  82.5843243  29.9880781  53.6933164  82.1462673  29.2716640  53.2338801
  83.3253683  30.2156896  53.1318255  79.3744409  24.6777718  60.2145260
  78.5612274  24.9771888  60.6210452  79.8703403  24.2833407  60.9319742
  81.5252987  34.6735475  62.1479524  81.4829165  34.8996321  61.2188056
  82.4415686  34.4398849  62.2965325  84.9718620  25.1419542  69.0460153
  85.3268008  25.3691015  69.9054619  85.6190752  25.4737919  68.4237409
  90.7016357  28.2637978  59.7509482  90.5634256  28.4539574  58.8230672
  90.3452576  29.0257361  60.2077534  78.8658484  22.2496073  65.8306494
  79.5057863  22.1084832  65.1329458  78.0336014  21.9630587  65.4545096
  90.7285737  30.3314505  64.7620754  91.1622244  30.2389794  65.6103808
  91.4417318  30.3072006  64.1240770  79.6418787  31.5498504  61.9441487
  80.4359386  31.0548824  61.7424062  78.9310480  31.0216367  61.5809192
  84.4613632  33.9316599  66.2953855  84.5150654  34.5007536  67.0631570
  83.5928413  34.1018484  65.9307892  75.9501551  25.6941585  58.0201240
  75.0199139  25.6326041  58.2371202  76.0459023  25.1717538  57.2237881
  75.8687100  22.2196398  60.6079481  76.1293917  23.1341732  60.4988642
  76.6904272  21.7520841  60.7576094  77.3412025  23.6334155  67.7778306
  78.0135079  23.4251518  67.1290955  76.5141812  23.4356241  67.3383538
  91.5901287  30.3738206  67.2953639  91.7837177  31.2784016  67.5412914
  91.4901905  29.9145625  68.1292224  83.2437597  20.2596096  69.7943967
  82.5965512  20.9586046  69.7008443  84.0138613  20.6932240  70.1620215
  83.4201732  28.0976861  67.8540786  84.3493792  28.2488021  67.6809754
  82.9992762  28.1860882  66.9989433  82.2190063  32.1227526  65.6239324
  82.0801149  31.7546310  66.4965262  81.4304660  32.6375165  65.4523282
  82.8138215  37.2236622  56.9664861  82.9889971  36.7524665  57.7810483
  82.1271003  37.8502388  57.1946121  83.7695279  31.5009128  63.0128162
  83.4345111  31.4609898  63.9085812  83.2699224  30.8353844  62.5398572
  77.7439523  26.9076758  68.5380743  77.6059320  26.1756997  69.1392282
  78.6544446  26.8185659  68.2564931  86.7054470  28.8465163  53.2865221
  86.0883641  28.1211991  53.1898274  86.2370959  29.6074523  52.9432296
  80.3721823  26.6196718  68.0264423  81.0821442  25.9789910  67.9851041
  80.3291131  26.8709613  68.9490603  88.3608602  33.5564071  70.9471002
  88.3021148  32.8723291  70.2801585  88.7628120  34.2983061  70.4951628
  79.0850757  23.6061936  69.8460062  78.5488114  23.1552674  70.4981658
  78.4967466  23.7407845  69.1030526  77.3799301  40.3725985  63.7404721
  77.6195899  41.0044509  64.4183739  76.5368497  40.0214025  64.0270080
  78.4953016  23.0650587  52.4086526  77.6182482  22.9439388  52.0448772
  78.9710769  22.2736665  52.1565414  88.3626009  31.5203655  69.1784981
  87.4752788  31.1829577  69.3011380  88.9324560  30.7886686  69.4153747
  74.8189878  22.7417943  66.9313057  74.7348067  22.1343613  66.1963467
  73.9972585  23.2326962  66.9322553  81.8927163  36.1805107  66.1446225
  81.8197334  36.9860079  66.6565529  81.4504556  36.3797073  65.3194246
  81.6816942  35.4176877  59.6549046  80.8984464  35.9598558  59.7487271
  82.3809687  35.9350857  60.0543287  84.9913592  21.2271507  62.2983252
  85.4882292  20.4741469  61.9784322  84.2200574  21.2635824  61.7326461
  92.8443350  26.9311872  63.9401543  92.8333226  27.8136588  63.5695476
  91.9760729  26.5783423  63.7456080  84.3525846  36.0791941  68.3004383
  85.0653818  36.7139406  68.2280285  83.8615875  36.1755807  67.4844385
  86.0743373  29.9843194  59.8721675  85.1399652  30.1044657  59.7026379
  86.2520041  29.0815661  59.6081685  81.5748561  23.3688890  62.0254936
  81.2046349  22.8159930  62.7135842  82.0707653  22.7647023  61.4729936
  89.4615924  25.8260513  60.4071709  89.9276377  26.6588505  60.3332012
  89.9123425  25.3605495  61.1116968  79.4037760  33.8286385  69.1209954
  80.1047219  34.4622868  69.2739348  78.9332875  34.1701116  68.3605593
  87.5292155  32.1704335  57.4057861  87.8051999  32.0560929  58.3151735
  86.6596654  31.7721820  57.3670034  87.4332587  18.1941100  64.4462611
  86.5195667  18.4245327  64.6144817  87.8625689  18.2779544  65.2976643
  87.2039046  26.3830992  66.9462505  86.5510496  26.6306900  66.2914957
  87.5819425  25.5695131  66.6124982  84.1646219  36.4190686  61.0490675
  84.3468614  35.6012341  61.5118427  84.9879205  36.6358378  60.6115565
  84.4988385  35.3458871  58.3105723  85.0276151  34.8351325  57.6975885
  84.7616605  35.0301401  59.1751256  83.2526619  27.1250803  73.4328542
  82.5767256  27.0244933  74.1030917  84.0754252  26.9690017  73.8964539
  75.0005478  33.3622740  66.0541057  75.5858914  32.6166428  66.1868961
  74.8030316  33.6726697  66.9377721  77.8544133  36.3973987  61.0703499
  77.1854508  36.8820115  60.5867539  77.7157003  36.6443208  61.9846878
  69.5923132  25.9328340  64.7745500  69.6307232  25.3991931  65.5682618
  69.0863425  25.4063546  64.1556477  81.9949401  38.4317731  67.6686158
  82.5467709  38.5949352  68.4335243  82.3355595  39.0222169  66.9966182
  76.9713895  20.7792881  68.2708042  77.0355221  21.6407712  67.8585440
  76.9081015  20.1666882  67.5380401  76.4466167  22.8516013  71.9181077
  77.0738206  22.4693091  72.5318601  75.5894086  22.6330215  72.2836769
  86.8460276  33.2578988  73.5234812  87.3900180  33.8708947  73.0289767
  86.2647121  33.8158567  74.0401825  73.2231710  24.6592442  57.8499431
  73.5185151  23.7503121  57.7966485  72.3219746  24.6380182  57.5280434
  85.1317789  36.3799706  64.6549840  85.0068928  35.5789446  64.1460785
  85.7896880  36.8745900  64.1663810  76.7525957  22.7348439  63.8326980
  76.0312543  23.3484407  63.6934453  77.5419213  23.2706204  63.7543626
  87.1952697  34.1808726  66.2829390  86.2483033  34.0614078  66.2107717
  87.5435470  33.2931225  66.3655651  79.5552271  20.0702865  70.1067632
  80.0786672  20.3165162  70.8693941  79.3364604  20.9022900  69.6870769
  74.9519552  22.3406540  57.9738757  74.6232258  21.4603919  57.7913862
  75.3058922  22.2854209  58.8615146  84.1999130  33.9761443  62.4833742
  84.0524093  33.0478150  62.6641312  85.0252624  33.9981533  61.9990817
  78.0661375  22.6279510  58.3414234  78.4057447  23.1565431  57.6192843
  78.5133495  22.9659916  59.1172801  87.8033252  34.7990001  63.5698615
  88.7279800  34.5932863  63.4323066  87.6348556  34.5506403  64.4787956
  80.7604816  21.0116561  67.7917302  80.4201636  20.2124374  68.1937982
  80.0543822  21.3118271  67.2194135  81.4121287  18.0965873  66.2444625
  82.2347357  17.6226351  66.1223516  81.6559351  18.8756357  66.7443312
  80.0529522  21.1254131  56.5407527  80.7737884  21.5035384  56.0371244
  79.4294826  21.8443008  56.6442505  84.1960645  21.8299280  57.4765859
  84.4124259  22.7123918  57.1754687  83.7154712  21.4385494  56.7471501
  78.9359866  24.7884994  64.0536604  78.7904447  25.1025297  64.9460885
  78.4585070  25.4069894  63.5007503  80.7956249  21.7787542  64.1017493
  80.7817818  20.8828635  63.7649791  81.5128677  21.7858205  64.7355780
  82.6482380  22.2124882  66.1470621  82.3900158  23.1341952  66.1454951
  82.1167420  21.8155316  66.8371085  87.5928568  35.3175669  58.9260706
  87.7665446  34.7522091  58.1734559  88.0857460  36.1176564  58.7440196
  73.4105528  27.3290338  66.9924265  72.8658996  28.1050146  67.1244539
  74.2884878  27.6761142  66.8343387  80.1993145  20.6601922  59.3705064
  80.3209056  19.7318568  59.5695951  79.9095187  20.6740608  58.4583379
  83.0684335  18.3456832  62.5071783  83.0906032  18.4096165  61.5523763
  83.4852394  17.5061341  62.7012290  93.4467960  28.0812092  60.5451006
  93.8899106  27.3319417  60.1470129  92.5694470  28.0722228  60.1624738
  88.5803741  34.6342433  56.0257605  89.2754646  35.2549126  56.2444919
  88.9226891  33.7837785  56.3009982  74.1971550  26.4560234  69.8854422
  73.4553286  26.6042870  70.4719052  73.8764294  26.7168500  69.0221171
  90.4795164  32.0842139  57.5544935  91.0046488  32.4229412  56.8294255
  90.3917517  31.1489154  57.3708070  82.1415213  35.9976212  69.6834812
  82.4502339  35.7525359  70.5557512  82.9390695  36.2022851  69.1953682
  82.1635825  38.1514122  61.9140189  81.7240815  37.6590501  62.6073045
  82.9143942  37.6087090  61.6732264  74.6428164  34.3425663  61.9164817
  75.4686184  34.0429435  61.5363460  74.2922216  33.5733285  62.3654605
  79.6109697  33.6952131  63.9862490  78.9889706  33.0322836  63.6864718
  80.2814564  33.7213263  63.3036138  72.8436769  32.2611989  62.8753750
  72.0068677  31.8334164  62.6937751  72.8160414  32.4544433  63.8124541
  79.6834224  22.1733919  73.5794996  79.7322380  23.0496042  73.1972766
  80.2256739  21.6311312  73.0066639  90.1689070  32.7175042  72.8596133
  89.3784614  32.6999181  72.3200633  89.9322425  33.2563336  73.6145170
  90.2886945  29.5667509  70.1728862  90.3384950  29.4017516  71.1144385
  90.1800869  28.6994768  69.7826743  79.1723204  32.2456055  57.4620951
  79.3211324  32.9291519  56.8087623  79.9789647  32.2261145  57.9770406
  87.5790708  25.5498437  71.4888169  88.4800570  25.4104902  71.1972166
  87.6538682  25.7152892  72.4286346  81.9133513  22.9265292  70.3341355
  81.0436822  23.2198858  70.0623943  82.1492993  23.5105737  71.0548618
  91.7905142  31.9864450  70.4170883  91.4989950  32.3494431  71.2534344
  91.1777273  31.2731459  70.2384215  92.9900824  29.5517330  62.9373454
  93.8247716  29.9907134  63.1011014  93.1259953  29.0755983  62.1181699
  90.0392330  27.1097065  68.8850941  90.5146452  27.3024711  68.0769793
  89.1157896  27.1656251  68.6394325  76.9275837  28.2721232  58.4682020
  76.6821879  27.3683562  58.6662230  77.0971751  28.2738383  57.5261498
  84.6172547  19.1444909  67.8506775  85.1354491  19.8805935  67.5253264
  84.2627680  19.4508902  68.6853534  76.1971484  24.0049590  55.9668181
  75.5040729  24.0793945  55.3108217  75.9523236  23.2409933  56.4889698
  84.8685141  15.5645191  63.3707672  85.1486895  14.8968380  63.9968098
  85.6535748  15.7574287  62.8582336  82.6718609  34.7404185  54.9332698
  82.0992577  35.3594372  54.4803170  83.2451403  35.2903547  55.4672620
  88.7393999  23.9862825  67.1179247  89.6911422  24.0860923  67.1391471
  88.5697450  23.1941094  67.6277331  86.7608379  21.0718408  67.3038648
  86.1658311  21.3523421  66.6085137  86.4758075  21.5612309  68.0755389
  85.8915869  35.0241335  56.0641280  86.8246542  34.9586897  56.2674156
  85.8039082  35.8597602  55.6055813  88.5203886  34.3407205  53.0245228
  88.4417517  34.0067069  53.9180986  89.3413553  34.8328973  53.0236700
  91.2182077  27.2068945  66.2321547  91.1858397  26.2684945  66.4181230
  91.8282701  27.2852981  65.4987371  83.0565408  26.0764998  52.2748751
  84.0024513  25.9471206  52.3437169  82.6779653  25.3379660  52.7518179
  91.3676566  23.9979988  66.2779830  90.8515614  23.2138445  66.0909759
  92.2516514  23.6698705  66.4426349  89.0287292  17.7421004  62.2375642
  88.8312114  17.4336092  63.1218974  89.6386998  18.4682643  62.3673572
  97.0358627  28.2684952  65.3727583  97.7662015  28.0070240  65.9335287
  96.4265572  27.5313674  65.4129651  95.1173924  26.4092814  65.9702035
  94.3907088  26.2748779  65.3618526  94.7021211  26.7169643  66.7758753
  82.9404100  30.1282744  73.7349408  83.8607110  30.3061343  73.9289454
  82.9053683  29.1838789  73.5829107  81.2408325  24.0014974  52.2103636
  80.3339780  23.7048087  52.2866349  81.5184306  23.7044792  51.3437922
  72.1586265  25.3221338  62.6602682  71.8389050  24.4686646  62.3677056
  71.6119694  25.5369916  63.4160650  75.9366173  28.0383779  66.3772189
  76.1552183  28.9700886  66.3960223  76.3491947  27.6791753  67.1626993
  82.8570391  18.5451864  58.3647877  82.0471119  18.1998949  58.7403123
  83.5454808  18.2359408  58.9535489  84.7860939  17.6229911  59.9872174
  85.3391978  18.0425364  60.6462197  85.0231025  16.6965659  60.0295130
  80.8094038  23.6116984  75.7674938  80.7090765  24.5611341  75.6987029
  80.5915580  23.2835223  74.8951008  80.0107110  20.8601909  52.3515615
  80.8726274  21.1856808  52.6111432  80.1957454  20.0733405  51.8388681
  72.0274525  28.9424249  64.6295804  71.3337997  28.5278202  64.1165758
  72.7747516  28.9844786  64.0329223  88.1639746  19.7330436  59.4950838
  87.5838415  20.3915240  59.1128890  87.8975679  18.9107780  59.0838256
  86.6143313  19.1335494  61.6972158  87.1143091  19.2452028  60.8886477
  87.2578920  18.8296546  62.3372967  80.6725308  27.0414123  74.5839999
  80.1892390  27.8414483  74.7903888  80.7586247  27.0522068  73.6307443
  73.9411268  28.8742503  62.5061819  73.9181956  28.9730190  61.5543702
  74.2511904  29.7207654  62.8278985  76.5998646  30.9318658  66.6208433
  77.5541899  30.9002600  66.5538365  76.4011169  30.4709282  67.4358659
  77.1898028  29.5019774  69.1879231  78.0090917  29.9963853  69.2114068
  77.4634836  28.5851742  69.1596798  86.9464624  21.8930526  58.5507186
  86.0590479  22.1780177  58.3327381  87.3618613  21.7324290  57.7034463
  90.2979160  21.9177047  62.2661526  91.0739550  22.4073500  62.5386142
  89.5727294  22.3435101  62.7233395  92.7351719  22.6304666  63.3235466
  93.3296210  22.3900402  62.6128774  92.8078303  21.9111797  63.9509002
  74.9548875  36.4738277  63.6378631  74.8203343  35.7138678  63.0716629
  74.5380937  37.1979177  63.1707420  86.0907838  31.6575201  52.6455206
  86.7943688  31.8625203  53.2612862  85.3670486  32.2251963  52.9104290
  86.9205648  27.4085062  58.7657476  86.8640849  27.8653614  57.9265109
  87.4733990  26.6475747  58.5880319  90.7310454  23.1974794  59.5907596
  90.4747388  22.7971430  60.4215804  90.1063322  23.9118588  59.4657735
  95.0422792  25.9370867  62.0978887  94.4822350  26.0064057  62.8710449
  94.4366295  25.7611852  61.3778384  78.1118001  37.3707594  63.8497074
  77.9950385  38.3153027  63.7475764  77.2910447  37.0681156  64.2382873
  87.9994535  32.0957730  54.6953666  88.8340139  31.6638929  54.5131141
  87.8378878  31.9239744  55.6230561  87.6540427  28.5989843  56.0610006
  87.5989231  28.4334115  55.1198450  87.0286483  29.3065876  56.2172195
  72.4432942  23.8357908  69.8871428  73.0891806  23.3256862  70.3758653
  72.2350093  24.5726589  70.4614853  84.9686334  30.9038755  75.3863568
  85.8377494  31.0779408  75.0250203  84.4893086  31.7233172  75.2639298
  80.9636553  18.0997952  55.6395324  80.9515223  19.0439792  55.7963595
  81.8559975  17.9168098  55.3454785  79.1372515  38.0235856  67.0653002
  80.0399761  38.0559466  67.3819497  78.9109885  37.0936307  67.0799338
  80.8926117  36.7766843  63.7263081  79.9421748  36.7768704  63.6127453
  81.1958603  36.0299577  63.2099115  84.7788672  14.6940729  59.8941261
  84.0121068  14.1399216  60.0397943  85.1899377  14.7662598  60.7555412
  76.7830433  20.9825525  73.9846442  77.6461895  20.6262330  74.1949767
  76.2095844  20.6439420  74.6721846  96.6278810  42.6127381  64.7908843
  97.2657220  42.4934129  64.0872183  96.5099653  43.5608225  64.8496795
  93.4368516  42.5654809  64.7270368  93.0987028  42.4495874  63.8390903
  94.3058285  42.1645974  64.7071374  89.2955332  44.4190286  60.7167259
  88.7320197  44.3280223  59.9483547  89.1807727  43.5990190  61.1969751
  93.9188299  43.7189661  70.6856573  93.9076940  43.3242459  69.8137077
  94.0808939  42.9855734  71.2790345  86.8419764  45.9141477  63.5551479
  87.6341056  45.5732302  63.1397779  87.0816414  46.0236452  64.4753633
  94.8754891  48.0861253  56.0281724  94.2242871  48.6715334  55.6415737
  95.6699254  48.6167448  56.0876761  88.8010518  45.1750391  56.4268858
  89.5741394  44.6279378  56.2881734  89.1535917  46.0394640  56.6383319
  90.6395561  46.5026773  69.6335757  90.3485427  47.4072404  69.5182424
  91.2752545  46.5443300  70.3479827  91.5651767  43.8803621  66.2237117
  92.1615340  43.6559644  65.5094080  91.6226739  43.1388367  66.8262565
  91.1376796  41.3343057  54.0587308  91.3902317  40.8124578  53.2970771
  90.2001355  41.1709202  54.1613992  96.1820079  40.3378835  61.8662051
  96.9683168  39.9198258  61.5152468  96.4458783  41.2424927  62.0343700
  96.3530156  45.7751685  56.5650708  95.7175989  45.8486312  57.2771613
  96.0227562  46.3645284  55.8869787  90.8573085  43.2371163  56.2611683
  90.7409343  42.5616066  56.9292767  90.9675344  42.7503537  55.4443836
  93.2004625  42.6981310  59.9658372  92.8362833  42.1711931  60.6771294
  94.0571741  42.3079779  59.7924858  99.1053926  33.9875642  67.2289638
  98.7737251  34.8571053  67.0050853  98.5099540  33.6711926  67.9083669
  92.8410112  37.7271209  54.9619721  93.0084515  38.5951446  55.3290192
  92.6507282  37.8898491  54.0381010  95.5985446  46.1888188  66.6285551
  95.2986169  47.0913227  66.5201358  95.2536505  45.9220372  67.4806704
  89.0497927  42.6401985  62.6622255  88.1248424  42.5078199  62.8699947
  89.2982340  43.4196204  63.1592198  98.9982589  38.7070728  64.3082988
  98.0899467  38.6386137  64.0141749  98.9470185  39.1842673  65.1364814
  92.8199333  40.1828867  55.9466387  92.6998959  40.6285918  56.7851868
  92.1251922  40.5314185  55.3879926  86.4106738  42.2835259  63.4966045
  86.5399119  42.5369738  64.4105456  85.7304189  42.8762967  63.1770700
  90.5806225  52.9532509  59.5956519  90.5030255  53.9040334  59.6744999
  89.9767869  52.6078381  60.2531445  93.0723455  40.1260374  72.2517886
  92.2956789  40.6854294  72.2420750  93.7114018  40.6117157  72.7732756
  98.5184400  40.6550340  56.7746722  99.4302256  40.8877727  56.5994419
  98.0094047  41.2387384  56.2121800  91.3269828  42.9345827  71.8135853
  92.0684512  43.4730871  71.5370676  90.6206813  43.5612116  71.9707404
  96.8025167  45.0774968  70.4108014  97.2108523  44.6357378  69.6662646
  96.0802429  44.5027595  70.6642207  93.1556237  40.0147575  67.7841571
  94.0017432  40.4386988  67.9276220  93.0954875  39.3581199  68.4780134
  97.1253982  45.6376159  64.1660303  96.4962844  45.8021873  63.4636371
  96.7379644  46.0517768  64.9371267  96.3055683  37.6751943  69.4422745
  96.0616614  38.4294004  68.9057020  96.5815613  38.0537291  70.2769992
  98.2594145  44.2190555  68.1200010  98.4711041  44.8622315  67.4434391
  98.2123894  43.3852872  67.6521940  95.8620374  36.8308376  65.0236582
  95.0004853  37.1289630  65.3153320  95.8882809  37.0478775  64.0917615
  92.6781944  45.3750567  61.4310388  93.1420289  45.6538270  60.6415011
  92.4138742  44.4734011  61.2483479  91.6150830  41.4973719  58.2399953
  92.3174873  41.9494763  58.7073880  91.2831458  40.8557538  58.8679846
  90.0631191  40.0885476  72.6151163  89.4329852  40.7701756  72.8486559
  89.9567279  39.9768557  71.6704301  85.3576164  39.7557272  63.5417087
  84.5675218  40.0114800  63.0657197  85.8487411  40.5705610  63.6469127
  87.3090909  40.1201851  60.5000563  86.5122072  40.2320545  61.0184059
  87.0816501  40.4588503  59.6341454  93.1396577  46.6446554  68.4483078
  93.2041009  47.1066961  69.2841250  92.4307501  46.0143919  68.5765388
  83.6413867  40.0087762  65.9732078  83.8921905  40.8934772  66.2389654
  84.1773415  39.8292364  65.2007169  92.8544594  48.3114662  58.3162058
  92.7190269  49.1566197  58.7446906  93.3954407  48.5133939  57.5527992
  89.3411934  34.3906241  74.9776414  88.9478880  33.8372440  75.6524058
  90.1578074  34.7016820  75.3682931  86.3073992  45.8290100  58.8889984
  86.8198512  46.6233350  59.0395548  86.9596705  45.1316390  58.8223585
  88.1168876  48.9455856  60.9712737  88.2935505  49.8673821  60.7833721
  88.9125710  48.6314275  61.4007116  92.2579895  35.8064121  72.5696670
  92.9989608  36.4071274  72.4901133  92.4897818  35.0641758  72.0114713
  87.4021233  40.9920488  70.8474900  87.2874748  40.0905745  71.1481999
  86.5465751  41.2384185  70.4959716  94.4813071  48.9338228  72.4462401
  94.0376925  48.1474607  72.1283305  95.1430284  49.1217379  71.7806291
  89.2400192  50.4634030  66.9723079  89.7907617  50.3351093  66.2000073
  88.4011668  50.7628919  66.6217972  96.5794309  49.2141028  70.4743802
  96.5612784  50.0349909  69.9824071  97.5014229  49.0895103  70.6993943
  93.0367363  46.7285158  71.3167310  93.5695700  45.9673446  71.0866618
  92.5081444  46.4358809  72.0591465  96.2037058  31.8345223  66.8460952
  95.8601327  32.7246865  66.7700062  96.5716021  31.6446881  65.9830537
  84.2722909  44.1578754  59.6649554  85.1098131  44.5675762  59.4483262
  84.4501176  43.2178196  59.6349748  96.1687341  41.8253835  55.3533387
  95.6533964  42.5958439  55.5921774  95.8964649  41.1518971  55.9766448
  93.7534452  36.6703535  60.4118625  92.8976048  36.2810386  60.2324264
  94.1661403  36.7495496  59.5518411  95.2833598  34.2049879  64.8110185
  94.7798394  34.1680014  63.9977990  95.5764205  35.1142621  64.8706842
  91.5276484  34.2888608  63.8176367  92.3929481  34.0931417  63.4582256
  91.5953993  34.0598960  64.7445724  95.9573644  39.6980927  57.1793168
  95.6523779  40.0127076  58.0303311  96.9104086  39.7762347  57.2220501
  94.4020076  45.8571150  58.8286122  93.8741437  45.1223910  58.5159360
  93.9007578  46.6345826  58.5826091  89.1338803  36.5190816  61.1892734
  89.7082555  36.2965998  60.4565927  89.7209786  36.5879511  61.9421335
  98.1918381  42.4064543  61.9957110  98.7050262  43.0394535  62.4978820
  98.8419604  41.8065739  61.6300470  89.4608390  38.5495277  55.2088619
  88.6245703  38.8869964  55.5297894  89.3213160  38.4144257  54.2715756
  91.4361471  33.3932065  59.9167803  90.7825883  33.0781082  59.2924418
  91.3941945  32.7707806  60.6427626  92.5472676  43.6751360  51.8321095
  91.6399738  43.4440614  52.0312244  93.0443708  42.8788980  52.0195077
  95.4540755  52.3848867  54.7517781  94.7802454  52.6880564  55.3602739
  95.8406577  53.1877948  54.4023238  94.6699211  39.8813999  64.2415451
  93.7521773  40.1028946  64.0837139  95.0859355  39.9560309  63.3827158
  95.4534259  41.2805414  59.3718131  96.2006078  41.7926812  59.0625253
  95.7225849  40.9589467  60.2322525  93.7260909  43.7763955  56.3545085
  92.8172129  43.4922988  56.4517555  93.7555993  44.1963034  55.4948392
  98.9580177  47.3870545  60.1236253  98.5042504  46.5461455  60.1801443
  98.3274143  48.0231943  60.4611033  97.9013096  38.3162531  61.3536920
  97.1635853  37.8039917  61.6847163  98.1539870  37.8762912  60.5420197
  97.4013116  49.2247041  61.0586071  97.6936090  49.7852098  60.3398437
  97.9111737  49.5175602  61.8139230  98.0024724  31.0938783  61.9478690
  98.3083600  30.2336146  61.6604605  98.7277328  31.6856403  61.7477683
  84.2949080  41.4969469  60.3360288  84.0973479  40.9038830  59.6111354
  83.7395744  41.1921679  61.0536226  92.2745803  41.3892576  62.4554881
  92.3294413  40.4366412  62.3797357  91.4637005  41.5452015  62.9396179
  93.4236997  45.3172699  53.6933164  92.9856427  44.6008558  53.2338801
  94.1647438  45.5448814  53.1318255  90.2138163  40.0069635  60.2145260
  89.4006029  40.3063806  60.6210452  90.7097157  39.6125324  60.9319742
  92.3646741  50.0027392  62.1479524  92.3222920  50.2288239  61.2188056
  93.2809440  49.7690767  62.2965325  95.8112375  40.4711460  69.0460153
  96.1661763  40.6982933  69.9054619  96.4584506  40.8029837  68.4237409
  89.7052238  37.5787991  65.8306494  90.3451617  37.4376750  65.1329458
  88.8729769  37.2922504  65.4545096  90.4812542  46.8790421  61.9441487
  91.2753140  46.3840742  61.7424062  89.7704234  46.3508285  61.5809192
  95.3007386  49.2608517  66.2953855  95.3544409  49.8299453  67.0631570
  94.4322168  49.4310402  65.9307892  86.7895305  41.0233503  58.0201240
  85.8592893  40.9617959  58.2371202  86.8852777  40.5009456  57.2237881
  86.7080854  37.5488316  60.6079481  86.9687672  38.4633649  60.4988642
  87.5298027  37.0812759  60.7576094  88.1805780  38.9626073  67.7778306
  88.8528833  38.7543435  67.1290955  87.3535566  38.7648159  67.3383538
  94.0831352  35.5888014  69.7943967  93.4359267  36.2877964  69.7008443
  94.8532367  36.0224158  70.1620215  97.4910150  45.8536866  72.8694520
  97.3395656  45.6247418  71.9524604  97.4814829  46.8107468  72.8825865
  94.2595486  43.4268779  67.8540786  95.1887546  43.5779939  67.6809754
  93.8386516  43.5152800  66.9989433  93.0583818  47.4519443  65.6239324
  92.9194904  47.0838228  66.4965262  92.2698414  47.9667083  65.4523282
  93.6531970  52.5528540  56.9664861  93.8283726  52.0816583  57.7810483
  92.9664758  53.1794306  57.1946121  94.6089033  46.8301046  63.0128162
  94.2738866  46.7901816  63.9085812  94.1092979  46.1645762  62.5398572
  88.5833277  42.2368676  68.5380743  88.4453075  41.5048915  69.1392282
  89.4938200  42.1477576  68.2564931  97.5448225  44.1757080  53.2865221
  96.9277395  43.4503909  53.1898274  97.0764713  44.9366441  52.9432296
  91.2115578  41.9488635  68.0264423  91.9215196  41.3081828  67.9851041
  91.1684886  42.2001530  68.9490603  99.2002356  48.8855989  70.9471002
  99.1414903  48.2015209  70.2801585  99.6021875  49.6274979  70.4951628
  89.9244512  38.9353853  69.8460062  89.3881869  38.4844592  70.4981658
  89.3361220  39.0699762  69.1030526  88.2193055  55.7017903  63.7404721
  88.4589653  56.3336427  64.4183739  87.3762252  55.3505943  64.0270080
  89.3346771  38.3942505  52.4086526  88.4576237  38.2731306  52.0448772
  89.8104524  37.6028583  52.1565414  99.2019764  46.8495573  69.1784981
  98.3146542  46.5121495  69.3011380  99.7718315  46.1178604  69.4153747
  80.8548911  43.1819664  62.5028033  81.5419951  42.8681395  61.9149048
  80.6997039  44.0861029  62.2295284  85.6583633  38.0709861  66.9313057
  85.5741822  37.4635531  66.1963467  84.8366339  38.5618879  66.9322553
  92.7320917  51.5097025  66.1446225  92.6591089  52.3151997  66.6565529
  92.2898310  51.7088991  65.3194246  92.5210697  50.7468795  59.6549046
  91.7378219  51.2890475  59.7487271  93.2203442  51.2642775  60.0543287
  95.8307347  36.5563425  62.2983252  96.3276046  35.8033387  61.9784322
  95.0594328  36.5927741  61.7326461  95.1919601  51.4083859  68.3004383
  95.9047573  52.0431324  68.2280285  94.7009629  51.5047725  67.4844385
  96.9137127  45.3135112  59.8721675  95.9793406  45.4336574  59.7026379
  97.0913796  44.4107579  59.6081685  92.4142316  38.6980808  62.0254936
  92.0440103  38.1451848  62.7135842  92.9101408  38.0938941  61.4729936
  90.2431514  49.1578303  69.1209954  90.9440974  49.7914786  69.2739348
  89.7726629  49.4993034  68.3605593  98.3685910  47.4996252  57.4057861
  98.6445754  47.3852847  58.3151735  97.4990409  47.1013737  57.3670034
  98.2726342  33.5233018  64.4462611  97.3589421  33.7537245  64.6144817
  98.7019443  33.6071462  65.2976643  98.0432800  41.7122910  66.9462505
  97.3904250  41.9598817  66.2914957  98.4213180  40.8987048  66.6124982
  95.0039974  51.7482603  61.0490675  95.1862368  50.9304259  61.5118427
  95.8272960  51.9650295  60.6115565  95.3382139  50.6750788  58.3105723
  95.8669906  50.1643243  57.6975885  95.6010359  50.3593319  59.1751256
  94.0920373  42.4542721  73.4328542  93.4161010  42.3536850  74.1030917
  94.9148007  42.2981935  73.8964539  85.8399232  48.6914658  66.0541057
  86.4252669  47.9458346  66.1868961  85.6424071  49.0018614  66.9377721
  88.6937887  51.7265905  61.0703499  88.0248263  52.2112033  60.5867539
  88.5550757  51.9735125  61.9846878  92.8343156  53.7609649  67.6686158
  93.3861464  53.9241270  68.4335243  93.1749349  54.3514086  66.9966182
  87.8107649  36.1084798  68.2708042  87.8748976  36.9699629  67.8585440
  87.7474769  35.4958800  67.5380401  87.2859922  38.1807931  71.9181077
  87.9131961  37.7985008  72.5318601  86.4287841  37.9622133  72.2836769
  97.6854030  48.5870906  73.5234812  98.2293934  49.2000864  73.0289767
  97.1040875  49.1450484  74.0401825  84.0625464  39.9884360  57.8499431
  84.3578906  39.0795038  57.7966485  83.1613500  39.9672099  57.5280434
  95.9711543  51.7091624  64.6549840  95.8462683  50.9081364  64.1460785
  96.6290634  52.2037817  64.1663810  87.5919711  38.0640357  63.8326980
  86.8706297  38.6776324  63.6934453  88.3812967  38.5998121  63.7543626
  98.0346452  49.5100644  66.2829390  97.0876787  49.3905995  66.2107717
  98.3829225  48.6223142  66.3655651  90.3946025  35.3994783  70.1067632
  90.9180427  35.6457080  70.8693941  90.1758358  36.2314818  69.6870769
  85.7913306  37.6698458  57.9738757  85.4626012  36.7895837  57.7913862
  86.1452677  37.6146126  58.8615146  95.0392885  49.3053360  62.4833742
  94.8917847  48.3770068  62.6641312  95.8646378  49.3273451  61.9990817
  88.9055129  37.9571427  58.3414234  89.2451202  38.4857349  57.6192843
  89.3527250  38.2951834  59.1172801  98.6427007  50.1281919  63.5698615
  99.5673554  49.9224780  63.4323066  98.4742310  49.8798320  64.4787956
  91.5998570  36.3408478  67.7917302  91.2595390  35.5416291  68.1937982
  90.8937576  36.6410189  67.2194135  92.2515042  33.4257791  66.2444625
  93.0741111  32.9518269  66.1223516  92.4953105  34.2048274  66.7443312
  90.8923276  36.4546049  56.5407527  91.6131639  36.8327302  56.0371244
  90.2688580  37.1734926  56.6442505  95.0354399  37.1591198  57.4765859
  95.2518014  38.0415836  57.1754687  94.5548466  36.7677411  56.7471501
  89.7753621  40.1176911  64.0536604  89.6298201  40.4317214  64.9460885
  89.2978824  40.7361812  63.5007503  91.6350003  37.1079459  64.1017493
  91.6211572  36.2120553  63.7649791  92.3522432  37.1150123  64.7355780
  93.4876134  37.5416799  66.1470621  93.2293912  38.4633870  66.1454951
  92.9561175  37.1447234  66.8371085  98.4322323  50.6467587  58.9260706
  98.6059201  50.0814009  58.1734559  98.9251214  51.4468481  58.7440196
  84.2499283  42.6582256  66.9924265  83.7052751  43.4342064  67.1244539
  85.1278633  43.0053060  66.8343387  91.0386899  35.9893840  59.3705064
  91.1602811  35.0610486  59.5695951  90.7488942  36.0032525  58.4583379
  93.9078090  33.6748750  62.5071783  93.9299787  33.7388083  61.5523763
  94.3246149  32.8353259  62.7012290  99.4197495  49.9634351  56.0257605
 100.1148400  50.5841044  56.2444919  99.7620646  49.1129702  56.3009982
  85.0365305  41.7852152  69.8854422  84.2947041  41.9334787  70.4719052
  84.7158049  42.0460418  69.0221171  92.9808967  51.3268130  69.6834812
  93.2896094  51.0817277  70.5557512  93.7784449  51.5314769  69.1953682
  93.0029579  53.4806040  61.9140189  92.5634570  52.9882418  62.6073045
  93.7537696  52.9379007  61.6732264  85.4821918  49.6717581  61.9164817
  86.3079938  49.3721352  61.5363460  85.1315970  48.9025203  62.3654605
  90.4503451  49.0244049  63.9862490  89.8283461  48.3614754  63.6864718
  91.1208318  49.0505181  63.3036138  83.6830523  47.5903907  62.8753750
  82.8462432  47.1626081  62.6937751  83.6554169  47.7836350  63.8124541
  90.5227979  37.5025837  73.5794996  90.5716134  38.3787960  73.1972766
  91.0650493  36.9603230  73.0066639  90.0116958  47.5747972  57.4620951
  90.1605079  48.2583437  56.8087623  90.8183402  47.5553062  57.9770406
  98.4184462  40.8790355  71.4888169  99.3194325  40.7396819  71.1972166
  98.4932437  41.0444809  72.4286346  92.7527267  38.2557209  70.3341355
  91.8830577  38.5490775  70.0623943  92.9886748  38.8397654  71.0548618
  87.7669591  43.6013150  58.4682020  87.5215633  42.6975480  58.6662230
  87.9365506  43.6030300  57.5261498  95.4566301  34.4736826  67.8506775
  95.9748245  35.2097853  67.5253264  95.1021434  34.7800820  68.6853534
  87.0365239  39.3341507  55.9668181  86.3434484  39.4085862  55.3108217
  86.7916991  38.5701851  56.4889698  95.7078895  30.8937109  63.3707672
  95.9880649  30.2260298  63.9968098  96.4929502  31.0866204  62.8582336
  93.5112364  50.0696103  54.9332698  92.9386331  50.6886290  54.4803170
  94.0845158  50.6195464  55.4672620  97.6002133  36.4010326  67.3038648
  97.0052065  36.6815339  66.6085137  97.3151830  36.8904227  68.0755389
  96.7309624  50.3533253  56.0641280  97.6640297  50.2878814  56.2674156
  96.6432837  51.1889520  55.6055813  93.8959162  41.4056915  52.2748751
  94.8418267  41.2763124  52.3437169  93.5173407  40.6671577  52.7518179
  93.7797855  45.4574662  73.7349408  94.7000864  45.6353261  73.9289454
  93.7447438  44.5130707  73.5829107  92.0802080  39.3306892  52.2103636
  91.1733535  39.0340004  52.2866349  92.3578061  39.0336710  51.3437922
  82.9980020  40.6513255  62.6602682  82.6782804  39.7978563  62.3677056
  82.4513448  40.8661833  63.4160650  86.7759927  43.3675696  66.3772189
  86.9945937  44.2992804  66.3960223  87.1885701  43.0083671  67.1626993
  93.6964145  33.8743781  58.3647877  92.8864874  33.5290866  58.7403123
  94.3848562  33.5651325  58.9535489  95.6254694  32.9521828  59.9872174
  96.1785732  33.3717282  60.6462197  95.8624780  32.0257576  60.0295130
  91.6487793  38.9408902  75.7674938  91.5484520  39.8903259  75.6987029
  91.4309335  38.6127141  74.8951008  90.8500864  36.1893827  52.3515615
  91.7120028  36.5148725  52.6111432  91.0351208  35.4025323  51.8388681
  82.8668280  44.2716167  64.6295804  82.1731751  43.8570119  64.1165758
  83.6141271  44.3136703  64.0329223  99.0033501  35.0622353  59.4950838
  98.4232170  35.7207157  59.1128890  98.7369433  34.2399698  59.0838256
  97.4537067  34.4627411  61.6972158  97.9536845  34.5743946  60.8886477
  98.0972675  34.1588464  62.3372967  91.5119063  42.3706041  74.5839999
  91.0286145  43.1706401  74.7903888  91.5980002  42.3813986  73.6307443
  84.7805022  44.2034420  62.5061819  84.7575711  44.3022108  61.5543702
  85.0905659  45.0499571  62.8278985  87.4392400  46.2610575  66.6208433
  88.3935654  46.2294518  66.5538365  87.2404924  45.8001199  67.4358659
  88.0291782  44.8311692  69.1879231  88.8484671  45.3255770  69.2114068
  88.3028590  43.9143660  69.1596798  97.7858379  37.2222444  58.5507186
  96.8984234  37.5072094  58.3327381  98.2012368  37.0616207  57.7034463
  85.7942629  51.8030195  63.6378631  85.6597097  51.0430596  63.0716629
  85.3774691  52.5271095  63.1707420  96.9301592  46.9867119  52.6455206
  97.6337442  47.1917121  53.2612862  96.2064241  47.5543880  52.9104290
  97.7599402  42.7376980  58.7657476  97.7034604  43.1945531  57.9265109
  98.3127745  41.9767664  58.5880319  88.9511755  52.6999512  63.8497074
  88.8344139  53.6444944  63.7475764  88.1304201  52.3973074  64.2382873
  98.8388290  47.4249648  54.6953666  99.6733893  46.9930846  54.5131141
  98.6772632  47.2531661  55.6230561  98.4934182  43.9281761  56.0610006
  98.4382986  43.7626032  55.1198450  97.8680237  44.6357794  56.2172195
  83.2826697  39.1649825  69.8871428  83.9285560  38.6548779  70.3758653
  83.0743848  39.9018507  70.4614853  95.8080089  46.2330673  75.3863568
  96.6771249  46.4071325  75.0250203  95.3286840  47.0525090  75.2639298
  91.8030307  33.4289870  55.6395324  91.7908977  34.3731710  55.7963595
  92.6953729  33.2460015  55.3454785  89.9766269  53.3527774  67.0653002
  90.8793516  53.3851384  67.3819497  89.7503639  52.4228225  67.0799338
  91.7319871  52.1058760  63.7263081  90.7815502  52.1060622  63.6127453
  92.0352357  51.3591495  63.2099115  95.6182427  30.0232647  59.8941261
  94.8514822  29.4691133  60.0397943  96.0293132  30.0954515  60.7555412
  87.6224188  36.3117442  73.9846442  88.4855649  35.9554247  74.1949767
  87.0489598  35.9731337  74.6721846 100.1349087  59.7482203  60.7167259
  99.5713952  59.6572140  59.9483547 100.0201482  58.9282108  61.1969751
  97.6813519  61.2433395  63.5551479  98.4734810  60.9024220  63.1397779
  97.9210169  61.3528370  64.4753633  99.8891682  57.9693903  62.6622255
  98.9642178  57.8370117  62.8699947 100.1376095  58.7488122  63.1592198
  97.2500493  57.6127176  63.4966045  97.3792874  57.8661655  64.4105456
  96.5697944  58.2054884  63.1770700  96.1969918  55.0849189  63.5417087
  95.4068972  55.3406718  63.0657197  96.6881166  55.8997527  63.6469127
  98.1484664  55.4493769  60.5000563  97.3515827  55.5612463  61.0184059
  97.9210256  55.7880421  59.6341454  94.4807621  55.3379680  65.9732078
  94.7315660  56.2226690  66.2389654  95.0167170  55.1584281  65.2007169
  97.1467746  61.1582017  58.8889984  97.6592267  61.9525268  59.0395548
  97.7990459  60.4608308  58.8223585  98.9562631  64.2747774  60.9712737
  99.1329259  65.1965738  60.7833721  99.7519464  63.9606193  61.4007116
  98.2414987  56.3212405  70.8474900  98.1268503  55.4197663  71.1481999
  97.3859505  56.5676102  70.4959716  95.1116663  59.4870672  59.6649554
  95.9491885  59.8967680  59.4483262  95.2894931  58.5470114  59.6349748
  95.1342834  56.8261387  60.3360288  94.9367234  56.2330748  59.6111354
  94.5789498  56.5213597  61.0536226  97.6289060  56.3525421  58.0201240
  96.6986648  56.2909876  58.2371202  97.7246532  55.8301374  57.2237881
  97.5474609  52.8780234  60.6079481  97.8081426  53.7925567  60.4988642
  98.3691781  52.4104676  60.7576094  99.0199534  54.2917991  67.7778306
  99.6922588  54.0835353  67.1290955  98.1929321  54.0940077  67.3383538
  99.0586810  71.0309820  63.7404721  99.2983408  71.6628344  64.4183739
  98.2156006  70.6797860  64.0270080  91.6942665  58.5111582  62.5028033
  92.3813705  58.1973312  61.9149048  91.5390794  59.4152947  62.2295284
  96.4977387  53.4001779  66.9313057  96.4135576  52.7927448  66.1963467
  95.6760094  53.8910797  66.9322553  96.6792987  64.0206575  66.0541057
  97.2646423  63.2750263  66.1868961  96.4817825  64.3310532  66.9377721
  99.5331642  67.0557823  61.0703499  98.8642017  67.5403950  60.5867539
  99.3944512  67.3027043  61.9846878  91.2710641  56.5912176  64.7745500
  91.3094741  56.0575766  65.5682618  90.7650934  56.0647381  64.1556477
  98.6501404  51.4376716  68.2708042  98.7142730  52.2991547  67.8585440
  98.5868524  50.8250718  67.5380401  98.1253676  53.5099849  71.9181077
  98.7525715  53.1276926  72.5318601  97.2681595  53.2914051  72.2836769
  94.9019219  55.3176278  57.8499431  95.1972660  54.4086956  57.7966485
  94.0007255  55.2964017  57.5280434  98.4313466  53.3932274  63.8326980
  97.7100052  54.0068242  63.6934453  99.2206722  53.9290039  63.7543626
  96.6307061  52.9990375  57.9738757  96.3019767  52.1187754  57.7913862
  96.9846431  52.9438044  58.8615146  95.0893037  57.9874173  66.9924265
  94.5446505  58.7633981  67.1244539  95.9672387  58.3344978  66.8343387
  95.8759059  57.1144070  69.8854422  95.1340795  57.2626705  70.4719052
  95.5551803  57.3752335  69.0221171  96.3215673  65.0009498  61.9164817
  97.1473693  64.7013270  61.5363460  95.9709725  64.2317121  62.3654605
  94.5224278  62.9195825  62.8753750  93.6856186  62.4917999  62.6937751
  94.4947923  63.1128268  63.8124541  98.6063346  58.9305068  58.4682020
  98.3609388  58.0267398  58.6662230  98.7759260  58.9322218  57.5261498
  97.8758993  54.6633425  55.9668181  97.1828238  54.7377780  55.3108217
  97.6310745  53.8993769  56.4889698  93.8373774  55.9805173  62.6602682
  93.5176559  55.1270481  62.3677056  93.2907203  56.1953751  63.4160650
  97.6153682  58.6967614  66.3772189  97.8339692  59.6284722  66.3960223
  98.0279456  58.3375588  67.1626993  93.7062034  59.6008084  64.6295804
  93.0125506  59.1862037  64.1165758  94.4535025  59.6428621  64.0329223
  95.6198777  59.5326338  62.5061819  95.5969465  59.6314025  61.5543702
  95.9299413  60.3791489  62.8278985  98.2786155  61.5902493  66.6208433
  99.2329408  61.5586436  66.5538365  98.0798678  61.1293117  67.4358659
  98.8685537  60.1603609  69.1879231  99.6878426  60.6547688  69.2114068
  99.1422345  59.2435577  69.1596798  96.6336384  67.1322113  63.6378631
  96.4990852  66.3722514  63.0716629  96.2168446  67.8563013  63.1707420
  99.7905510  68.0291430  63.8497074  99.6737894  68.9736862  63.7475764
  98.9697956  67.7264991  64.2382873  94.1220451  54.4941743  69.8871428
  94.7679315  53.9840697  70.3758653  93.9137602  55.2310425  70.4614853
  98.4617942  51.6409360  73.9846442  99.3249404  51.2846165  74.1949767
  97.8883353  51.3023255  74.6721846  76.0026011   7.5911682  50.2796786
  76.7947303   7.2502507  49.8643085  76.2422661   7.7006657  51.1998939
  84.0361138   9.7631458  42.7527030  83.3849117  10.3485539  42.3661044
  84.8305500  10.2937653  42.8122068  79.8001807   8.1796978  56.3581064
  79.5091673   9.0842609  56.2427730  80.4358792   8.2213505  57.0725134
  79.7412472  14.6302714  46.3201825  79.6636502  15.5810539  46.3990306
  79.1374116  14.2848586  46.9776752  82.0150841   9.9884867  45.0407365
  81.8796516  10.8336402  45.4692213  82.5560654  10.1904144  44.2773299
  75.4680239   7.5060305  45.6135290  75.9804759   8.3003555  45.7640855
  76.1202951   6.8086595  45.5468892  77.2775123  10.6226061  47.6958043
  77.4541752  11.5444026  47.5079027  78.0731957  10.3084480  48.1252423
  83.6419318  10.6108433  59.1707707  83.1983172   9.8244812  58.8528612
  84.3036531  10.7987584  58.5051598  78.4006439  12.1404235  53.6968386
  78.9513864  12.0121298  52.9245380  77.5617915  12.4399124  53.3463278
  85.7400556  10.8911233  57.1989108  85.7219031  11.7120114  56.7069378
  86.6620476  10.7665308  57.4239250  84.6147002  14.0619072  41.4763088
  83.9408700  14.3650769  42.0848046  85.0012823  14.8648153  41.1268545
  86.5619363  10.9017246  47.7831378  86.8542337  11.4622303  47.0643743
  87.0717983  11.1945807  48.5384537  81.5252988  11.6797597  48.8724831
  81.4829167  11.9058444  47.9433363  82.4415687  11.4460972  49.0210632
  84.4613633  10.9378722  53.0199161  84.5150655  11.5069658  53.7876877
  83.5928415  11.1080607  52.6553198  82.8138217  14.2298745  43.6910167
  82.9889972  13.7586788  44.5055790  82.1271005  14.8564511  43.9191428
  77.3799302  17.3788108  50.4650027  77.6195900  18.0106632  51.1429046
  76.5368498  17.0276148  50.7515387  81.8927164  13.1867230  52.8691531
  81.8197335  13.9922202  53.3810836  81.4504557  13.3859196  52.0439553
  81.6816943  12.4239000  46.3794353  80.8984465  12.9660680  46.4732577
  82.3809689  12.9412980  46.7788594  84.3525847  13.0854064  55.0249690
  85.0653820  13.7201529  54.9525591  83.8615876  13.1817930  54.2089692
  79.4037761  10.8348508  55.8455261  80.1047220  11.4684990  55.9984655
  78.9332876  11.1763239  55.0850900  84.1646221  13.4252808  47.7735981
  84.3468615  12.6074464  48.2363734  84.9879207  13.6420500  47.3360871
  84.4988386  12.3520993  45.0351030  85.0276153  11.8413448  44.4221192
  84.7616606  12.0363523  45.8996563  75.0005479  10.3684863  52.7786363
  75.5858916   9.6228550  52.9114268  74.8030317  10.6788819  53.6623027
  77.8544134  13.4036110  47.7948806  77.1854509  13.8882238  47.3112846
  77.7157004  13.6505330  48.7092184  81.9949403  15.4379853  54.3931464
  82.5467711  15.6011475  55.1580549  82.3355596  16.0284291  53.7211489
  85.1317790  13.3861829  51.3795146  85.0068929  12.5851569  50.8706092
  85.7896881  13.8808022  50.8909116  84.1999132  10.9823565  49.2079049
  84.0524094  10.0540273  49.3886619  85.0252625  11.0043656  48.7236124
  87.8033254  11.8052124  50.2943921  88.7279801  11.5994985  50.1568373
  87.6348557  11.5568525  51.2033263  87.5928570  12.3237791  45.6506013
  87.7665447  11.7584214  44.8979865  88.0857461  13.1238686  45.4685503
  82.1415214  13.0038335  56.4080119  82.4502340  12.7587482  57.2802818
  82.9390696  13.2084974  55.9198989  82.1635826  15.1576245  48.6385495
  81.7240816  14.6652623  49.3318352  82.9143943  14.6149212  48.3977570
  74.6428165  11.3487786  48.6410123  75.4686185  11.0491557  48.2608767
  74.2922217  10.5795408  49.0899912  79.6109698  10.7014254  50.7107797
  78.9889708  10.0384959  50.4110025  80.2814565  10.7275386  50.0281445
  72.8436770   9.2674112  49.5999057  72.0068678   8.8396286  49.4183058
  72.8160416   9.4606555  50.5369848  79.1723205   9.2518177  44.1866257
  79.3211326   9.9353642  43.5332930  79.9789649   9.2323267  44.7015713
  82.6718611  11.7466308  41.6578005  82.0992578  12.3656495  41.2048477
  83.2451404  12.2965669  42.1917927  85.8915870  12.0303458  42.7886587
  86.8246544  11.9649019  42.9919463  85.8039083  12.8659725  42.3301120
  72.0274527   5.9486372  51.3541111  71.3337998   5.5340324  50.8411065
  72.7747518   5.9906908  50.7574529  76.5998647   7.9380780  53.3453740
  77.5541901   7.9064723  53.2783671  76.4011171   7.4771404  54.1603966
  74.9548876  13.4800400  50.3623938  74.8203344  12.7200801  49.7961936
  74.5380938  14.2041300  49.8952727  78.1118002  14.3769717  50.5742380
  77.9950386  15.3215149  50.4721071  77.2910448  14.0743278  50.9628180
  79.1372516  15.0297979  53.7898309  80.0399763  15.0621589  54.1064804
  78.9109886  14.0998430  53.8044645  80.8926118  13.7828965  50.4508387
  79.9421749  13.7830827  50.3372760  81.1958604  13.0361700  49.9344422
  96.6278811  19.6189504  51.5154150  97.2657221  19.4996251  50.8117490
  96.5099654  20.5670348  51.5742102  93.4368518  19.5716932  51.4515674
  93.0987029  19.4557997  50.5636209  94.3058286  19.1708097  51.4316681
  89.2955333  21.4252408  47.4412565  88.7320199  21.3342345  46.6728853
  89.1807728  20.6052313  47.9215058  93.9188301  20.7251784  57.4101880
  93.9076941  20.3304582  56.5382384  94.0808940  19.9917856  58.0035651
  86.8419765  22.9203600  50.2796786  87.6341057  22.5794425  49.8643085
  87.0816415  23.0298575  51.1998939  94.8754892  25.0923376  42.7527030
  94.2242872  25.6777456  42.3661044  95.6699255  25.6229571  42.8122068
  88.8010519  22.1812513  43.1514165  89.5741395  21.6341500  43.0127040
  89.1535918  23.0456762  43.3628626  90.6395562  23.5088895  56.3581064
  90.3485428  24.4134526  56.2427730  91.2752546  23.5505423  57.0725134
  91.5651769  20.8865744  52.9482424  92.1615341  20.6621766  52.2339387
  91.6226740  20.1450489  53.5507871  91.1376797  18.3405179  40.7832615
  91.3902318  17.8186701  40.0216078  90.2001356  18.1771325  40.8859298
  96.1820080  17.3440958  48.5907358  96.9683169  16.9260381  48.2397775
  96.4458784  18.2487050  48.7589006  96.3530157  22.7813808  43.2896015
  95.7175990  22.8548434  44.0016919  96.0227564  23.3707407  42.6115094
  90.8573086  20.2433285  42.9856990  90.7409344  19.5678189  43.6538074
  90.9675346  19.7565659  42.1689143  93.2004627  19.7043432  46.6903679
  92.8362834  19.1774053  47.4016600  94.0571743  19.3141901  46.5170164
  92.8410114  14.7333332  41.6865027  93.0084516  15.6013568  42.0535498
  92.6507283  14.8960614  40.7626317  95.5985447  23.1950311  53.3530858
  95.2986170  24.0975350  53.2446665  95.2536506  22.9282494  54.2052011
  89.0497928  19.6464108  49.3867562  88.1248425  19.5140322  49.5945254
  89.2982342  20.4258327  49.8837504  98.9982591  15.7132851  51.0328295
  98.0899468  15.6448260  50.7387056  98.9470186  16.1904796  51.8610120
  92.8199335  17.1890989  42.6711694  92.6998960  17.6348040  43.5097174
  92.1251923  17.5376307  42.1125232  86.4106739  19.2897381  50.2211351
  86.5399121  19.5431860  51.1350763  85.7304191  19.8825089  49.9016006
  90.5806227  29.9594631  46.3201825  90.5030256  30.9102456  46.3990306
  89.9767870  29.6140504  46.9776752  93.0723456  17.1322497  58.9763192
  92.2956791  17.6916417  58.9666057  93.7114020  17.6179280  59.4978062
  98.5184401  17.6612463  43.4992028  99.4302257  17.8939849  43.3239726
  98.0094048  18.2449507  42.9367107  91.3269829  19.9407950  58.5381159
  92.0684513  20.4792994  58.2615983  90.6206814  20.5674239  58.6952711
  96.8025168  22.0837091  57.1353321  97.2108524  21.6419501  56.3907953
  96.0802430  21.5089718  57.3887514  93.1556238  17.0209697  54.5086878
  94.0017434  17.4449111  54.6521527  93.0954876  16.3643322  55.2025441
  97.1253983  22.6438281  50.8905610  96.4962846  22.8083995  50.1881677
  96.7379645  23.0579891  51.6616574  96.3055684  14.6814066  56.1668051
  96.0616616  15.4356126  55.6302327  96.5815614  15.0599413  57.0015298
  98.2594147  21.2252678  54.8445317  98.4711042  21.8684438  54.1679698
  98.2123895  20.3914995  54.3767247  95.8620376  13.8370499  51.7481889
  95.0004855  14.1351752  52.0398627  95.8882810  14.0540898  50.8162922
  92.6781945  22.3812689  48.1555695  93.1420290  22.6600392  47.3660317
  92.4138743  21.4796134  47.9728785  89.5706026  21.9284171  51.0935458
  90.1407383  22.3571439  50.4552942  90.1614138  21.6466755  51.7919644
  91.6150831  18.5035842  44.9645260  92.3174874  18.9556885  45.4319186
  91.2831460  17.8619660  45.5925153  90.0631193  17.0947598  59.3396469
  89.4329853  17.7763879  59.5731866  89.9567280  16.9830680  58.3949607
  85.3576165  16.7619394  50.2662393  84.5675219  17.0176923  49.7902504
  85.8487412  17.5767732  50.3714434  87.3090910  17.1263973  47.2245870
  86.5122074  17.2382668  47.7429366  87.0816503  17.4650626  46.3586761
  93.1396578  23.6508677  55.1728385  93.2041010  24.1129084  56.0086557
  92.4307502  23.0206042  55.3010695  83.6413868  17.0149885  52.6977384
  83.8921906  17.8996895  52.9634960  84.1773416  16.8354486  51.9252476
  92.8544596  25.3176784  45.0407365  92.7190270  26.1628320  45.4692213
  93.3954408  25.5196062  44.2773299  86.3073993  22.8352222  45.6135290
  86.8198514  23.6295472  45.7640855  86.9596706  22.1378513  45.5468892
  88.1168878  25.9517979  47.6958043  88.2935506  26.8735943  47.5079027
  88.9125711  25.6376398  48.1252423  87.4021234  17.9982610  57.5720207
  87.2874749  17.0967868  57.8727305  86.5465752  18.2446307  57.2205023
  94.4813072  25.9400351  59.1707707  94.0376926  25.1536729  58.8528612
  95.1430286  26.1279501  58.5051598  89.2400193  27.4696152  53.6968386
  89.7907618  27.3413216  52.9245380  88.4011669  27.7691041  53.3463278
  96.5794310  26.2203151  57.1989108  96.5612785  27.0412032  56.7069378
  97.5014230  26.0957226  57.4239250  93.0367364  23.7347280  58.0412617
  93.5695701  22.9735568  57.8111925  92.5081445  23.4420932  58.7836771
  84.2722910  21.1640877  46.3894861  85.1098132  21.5737885  46.1728568
  84.4501178  20.2240319  46.3595055  96.1687342  18.8315957  42.0778694
  95.6533965  19.6020562  42.3167081  95.8964650  18.1581093  42.7011755
  93.7534453  13.6765658  47.1363932  92.8976049  13.2872508  46.9569571
  94.1661405  13.7557619  46.2763718  95.9573645  16.7043049  43.9038475
  95.6523781  17.0189198  44.7548618  96.9104087  16.7824469  43.9465808
  94.4020077  22.8633273  45.5531429  93.8741439  22.1286032  45.2404666
  93.9007580  23.6407949  45.3071397  89.1338805  13.5252939  47.9138040
  89.7082556  13.3028120  47.1811233  89.7209787  13.5941633  48.6666642
  98.1918382  19.4126666  48.7202417  98.7050264  20.0456658  49.2224127
  98.8419606  18.8127861  48.3545777  89.4608392  15.5557400  41.9333926
  88.6245704  15.8932086  42.2543200  89.3213161  15.4206380  40.9961063
  92.5472677  20.6813483  38.5566402  91.6399739  20.4502736  38.7557551
  93.0443709  19.8851102  38.7440383  95.4540756  29.3910990  41.4763088
  94.7802455  29.6942687  42.0848046  95.8406578  30.1940070  41.1268545
  94.6699213  16.8876121  50.9660757  93.7521774  17.1091068  50.8082445
  95.0859356  16.9622432  50.1072465  95.4534260  18.2867537  46.0963438
  96.2006079  18.7988934  45.7870560  95.7225850  17.9651590  46.9567831
  93.7260911  20.7826078  43.0790392  92.8172130  20.4985111  43.1762862
  93.7555994  21.2025156  42.2193699  98.9580178  24.3932667  46.8481560
  98.5042505  23.5523577  46.9046750  98.3274145  25.0294066  47.1856340
  97.9013098  15.3224653  48.0782227  97.1635854  14.8102039  48.4092470
  98.1539871  14.8825035  47.2665504  97.4013117  26.2309164  47.7831378
  97.6936092  26.7914221  47.0643743  97.9111738  26.5237725  48.5384537
  84.2949081  18.5031592  47.0605594  84.0973481  17.9100953  46.3356661
  83.7395745  18.1983802  47.7781533  92.2745805  18.3954698  49.1800187
  92.3294414  17.4428535  49.1042664  91.4637007  18.5514137  49.6641486
  93.4236998  22.3234821  40.4178471  92.9856428  21.6070680  39.9584108
  94.1647439  22.5510936  39.8563562  90.2138165  17.0131758  46.9390566
  89.4006030  17.3125929  47.3455758  90.7097159  16.6187447  47.6565048
  92.3646742  27.0089515  48.8724831  92.3222921  27.2350361  47.9433363
  93.2809441  26.7752890  49.0210632  95.8112376  17.4773583  55.7705460
  96.1661764  17.7045056  56.6299926  96.4584507  17.8091959  55.1482715
  89.7052239  14.5850114  52.5551801  90.3451619  14.4438873  51.8574764
  88.8729770  14.2984627  52.1790403  90.4812543  23.8852544  48.6686794
  91.2753142  23.3902864  48.4669369  89.7704236  23.3570407  48.3054499
  95.3007388  26.2670640  53.0199161  95.3544410  26.8361576  53.7876877
  94.4322169  26.4372525  52.6553198  86.7895307  18.0295626  44.7446546
  85.8592895  17.9680081  44.9616508  86.8852779  17.5071579  43.9483188
  86.7080856  14.5550439  47.3324788  86.9687673  15.4695772  47.2233948
  87.5298028  14.0874881  47.4821401  88.1805781  15.9688196  54.5023612
  88.8528834  15.7605558  53.8536261  87.3535568  15.7710282  54.0628845
  97.4910151  22.8598989  59.5939827  97.3395657  22.6309541  58.6769910
  97.4814830  23.8169590  59.6071172  94.2595487  20.4330902  54.5786093
  95.1887547  20.5842061  54.4055060  93.8386517  20.5214922  53.7234740
  93.0583819  24.4581566  52.3484631  92.9194905  24.0900350  53.2210569
  92.2698415  24.9729205  52.1768588  93.6531971  29.5590662  43.6910167
  93.8283727  29.0878706  44.5055790  92.9664759  30.1856429  43.9191428
  94.6089034  23.8363169  49.7373468  94.2738867  23.7963939  50.6331118
  94.1092980  23.1707885  49.2643879  88.5833278  19.2430799  55.2626050
  88.4453076  18.5111038  55.8637589  89.4938202  19.1539699  54.9810237
  97.5448226  21.1819203  40.0110528  96.9277397  20.4566031  39.9143581
  97.0764714  21.9428563  39.6677602  91.2115579  18.9550758  54.7509729
  91.9215197  18.3143950  54.7096348  91.1684887  19.2063653  55.6735910
  99.2002358  25.8918111  57.6716308  99.1414904  25.2077332  57.0046891
  99.6021876  26.6337101  57.2196934  89.9244513  15.9415976  56.5705369
  89.3881870  15.4906714  57.2226965  89.3361221  16.0761885  55.8275833
  88.2193056  32.7080025  50.4650027  88.4589655  33.3398549  51.1429046
  87.3762253  32.3568065  50.7515387  89.3346772  15.4004627  39.1331832
  88.4576238  15.2793428  38.7694079  89.8104525  14.6090706  38.8810721
  99.2019765  23.8557695  55.9030288  98.3146544  23.5183617  56.0256687
  99.7718316  23.1240727  56.1399054  80.8548912  20.1881787  49.2273340
  81.5419952  19.8743517  48.6394355  80.6997041  21.0923152  48.9540591
  85.6583634  15.0771984  53.6558363  85.5741823  14.4697653  52.9208773
  84.8366341  15.5681002  53.6567860  92.7320918  28.5159148  52.8691531
  92.6591090  29.3214119  53.3810836  92.2898311  28.7151114  52.0439553
  92.5210698  27.7530918  46.3794353  91.7378220  28.2952598  46.4732577
  93.2203443  28.2704897  46.7788594  95.1919602  28.4145982  55.0249690
  95.9047574  29.0493447  54.9525591  94.7009630  28.5109848  54.2089692
  96.9137129  22.3197234  46.5966982  95.9793407  22.4398697  46.4271686
  97.0913797  21.4169701  46.3326992  92.4142317  15.7042930  48.7500243
  92.0440104  15.1513971  49.4381148  92.9101409  15.1001064  48.1975243
  90.2431515  26.1640425  55.8455261  90.9440975  26.7976908  55.9984655
  89.7726630  26.5055157  55.0850900  98.3685911  24.5058375  44.1303168
  98.6445755  24.3914970  45.0397042  97.4990410  24.1075860  44.0915341
  98.0432801  18.7185033  53.6707811  97.3904252  18.9660940  53.0160264
  98.4213181  17.9049171  53.3370288  95.0039975  28.7544726  47.7735981
  95.1862370  27.9366382  48.2363734  95.8272961  28.9712418  47.3360871
  95.3382141  27.6812911  45.0351030  95.8669907  27.1705366  44.4221192
  95.6010360  27.3655441  45.8996563  94.0920374  19.4604844  60.1573848
  93.4161011  19.3598973  60.8276223  94.9148008  19.3044057  60.6209845
  85.8399233  25.6976780  52.7786363  86.4252670  24.9520468  52.9114268
  85.6424072  26.0080737  53.6623027  88.6937889  28.7328028  47.7948806
  88.0248264  29.2174155  47.3112846  88.5550758  28.9797248  48.7092184
  80.4316888  18.2682380  51.4990807  80.4700988  17.7345971  52.2927925
  79.9257181  17.7417586  50.8801784  92.8343157  30.7671771  54.3931464
  93.3861465  30.9303393  55.1580549  93.1749351  31.3576209  53.7211489
  87.8107650  13.1146921  54.9953349  87.8748977  13.9761752  54.5830747
  87.7474771  12.5020923  54.2625707  87.2859923  15.1870053  58.6426383
  87.9131962  14.8047131  59.2563908  86.4287842  14.9684255  59.0082076
  97.6854032  25.5933029  60.2480119  98.2293936  26.2062987  59.7535073
  97.1040876  26.1512607  60.7647132  84.0625466  16.9946483  44.5744738
  84.3578907  16.0857161  44.5211792  83.1613501  16.9734222  44.2525740
  95.9711544  28.7153747  51.3795146  95.8462684  27.9143487  50.8706092
  96.6290636  29.2099940  50.8909116  87.5919713  15.0702479  50.5572287
  86.8706298  15.6838447  50.4179760  88.3812968  15.6060244  50.4788933
  98.0346453  26.5162767  53.0074696  97.0876788  26.3968118  52.9353023
  98.3829226  25.6285265  53.0900958  90.3946026  12.4056906  56.8312938
  90.9180428  12.6519202  57.5939248  90.1758360  13.2376940  56.4116076
  85.7913307  14.6760580  44.6984063  85.4626013  13.7957959  44.5159169
  86.1452678  14.6208249  45.5860452  95.0392886  26.3115483  49.2079049
  94.8917849  25.3832190  49.3886619  95.8646380  26.3335574  48.7236124
  88.9055130  14.9633550  45.0659541  89.2451203  15.4919471  44.3438149
  89.3527251  15.3013956  45.8418107  98.6427008  27.1344042  50.2943921
  99.5673555  26.9286903  50.1568373  98.4742311  26.8860443  51.2033263
  91.5998571  13.3470601  54.5162609  91.2595392  12.5478414  54.9183289
  90.8937578  13.6472312  53.9439442  90.8923278  13.4608172  43.2652834
  91.6131640  13.8389424  42.7616550  90.2688582  14.1797048  43.3687812
  95.0354400  14.1653321  44.2011166  95.2518015  15.0477958  43.8999994
  94.5548468  13.7739534  43.4716808  89.7753622  17.1239034  50.7781911
  89.6298203  17.4379337  51.6706192  89.2978825  17.7423934  50.2252809
  91.6350005  14.1141582  50.8262800  91.6211574  13.2182675  50.4895098
  92.3522433  14.1212246  51.4601086  93.4876135  14.5478922  52.8715928
  93.2293913  15.4695993  52.8700258  92.9561176  14.1509357  53.5616392
  98.4322324  27.6529709  45.6506013  98.6059202  27.0876132  44.8979865
  98.9251215  28.4530604  45.4685503  84.2499284  19.6644378  53.7169572
  83.7052752  20.4404186  53.8489846  85.1278634  20.0115183  53.5588693
  91.0386901  12.9955962  46.0950370  91.1602812  12.0672608  46.2941258
  90.7488943  13.0094648  45.1828686  99.4197497  26.9696474  42.7502911
 100.1148401  27.5903166  42.9690226  99.7620647  26.1191825  43.0255289
  85.0365306  18.7914275  56.6099729  84.2947042  18.9396910  57.1964359
  84.7158050  19.0522540  55.7466478  92.9808969  28.3330253  56.4080119
  93.2896095  28.0879400  57.2802818  93.7784451  28.5376891  55.9198989
  93.0029581  30.4868162  48.6385495  92.5634571  29.9944541  49.3318352
  93.7537698  29.9441130  48.3977570  85.4821920  26.6779703  48.6410123
  86.3079939  26.3783475  48.2608767  85.1315972  25.9087326  49.0899912
  90.4503453  26.0306171  50.7107797  89.8283462  25.3676876  50.4110025
  91.1208320  26.0567303  50.0281445  83.6830525  24.5966030  49.5999057
  82.8462433  24.1688204  49.4183058  83.6554170  24.7898473  50.5369848
  90.5227980  14.5087959  60.3040303  90.5716136  15.3850082  59.9218072
  91.0650494  13.9665353  59.7311946  90.0116960  24.5810095  44.1866257
  90.1605080  25.2645559  43.5332930  90.8183403  24.5615185  44.7015713
  98.4184463  17.8852477  58.2133475  99.3194326  17.7458942  57.9217473
  98.4932438  18.0506932  59.1531653  92.7527269  15.2619332  57.0586662
  91.8830578  15.5552898  56.7869250  92.9886749  15.8459777  57.7793925
  87.7669593  20.6075272  45.1927326  87.5215635  19.7037602  45.3907536
  87.9365507  20.6092423  44.2506804  87.0365240  16.3403630  42.6913488
  86.3434485  16.4147985  42.0353524  86.7916992  15.5763974  43.2135005
  93.5112365  27.0758225  41.6578005  92.9386332  27.6948412  41.2048477
  94.0845159  27.6257587  42.1917927  96.7309625  27.3595375  42.7886587
  97.6640298  27.2940937  42.9919463  96.6432838  28.1951642  42.3301120
  93.8959164  18.4119038  38.9994057  94.8418268  18.2825246  39.0682475
  93.5173409  17.6733700  39.4763485  93.7797856  22.4636784  60.4594714
  94.7000866  22.6415383  60.6534761  93.7447439  21.5192829  60.3074414
  92.0802081  16.3369014  38.9348943  91.1733536  16.0402127  39.0111656
  92.3578062  16.0398832  38.0683229  82.9980021  17.6575378  49.3847989
  82.6782806  16.8040686  49.0922363  82.4513449  17.8723956  50.1405956
  86.7759929  20.3737819  53.1017495  86.9945939  21.3054927  53.1205529
  87.1885703  20.0145793  53.8872299  91.6487794  15.9471025  62.4920244
  91.5484521  16.8965382  62.4232335  91.4309336  15.6189263  61.6196314
  90.8500865  13.1955950  39.0760922  91.7120029  13.5210848  39.3356739
  91.0351210  12.4087446  38.5633988  82.8668281  21.2778289  51.3541111
  82.1731753  20.8632242  50.8411065  83.6141272  21.3198826  50.7574529
  91.5119064  19.3768163  61.3085306  91.0286146  20.1768524  61.5149195
  91.5980003  19.3876108  60.3552750  84.7805024  21.2096543  49.2307125
  84.7575712  21.3084230  48.2789008  85.0905660  22.0561694  49.5524292
  87.4392402  23.2672698  53.3453740  88.3935655  23.2356640  53.2783671
  87.2404925  22.8063322  54.1603966  88.0291784  21.8373814  55.9124537
  88.8484673  22.3317893  55.9359375  88.3028591  20.9205782  55.8842105
  85.7942630  28.8092318  50.3623938  85.6597098  28.0492718  49.7961936
  85.3774693  29.5333217  49.8952727  96.9301593  23.9929241  39.3700513
  97.6337444  24.1979244  39.9858169  96.2064242  24.5606003  39.6349596
  97.7599404  19.7439102  45.4902783  97.7034605  20.2007654  44.6510416
  98.3127746  18.9829787  45.3125626  88.9511756  29.7061635  50.5742380
  88.8344140  30.6507067  50.4721071  88.1304203  29.4035196  50.9628180
  98.8388291  24.4311770  41.4198973  99.6733895  23.9992969  41.2376448
  98.6772634  24.2593784  42.3475867  98.4934183  20.9343884  42.7855312
  98.4382987  20.7688155  41.8443756  97.8680238  21.6419917  42.9417502
  83.2826698  16.1711948  56.6116735  83.9285562  15.6610902  57.1003960
  83.0743849  16.9080630  57.1860160  95.8080090  23.2392795  62.1108875
  96.6771250  23.4133448  61.7495510  95.3286842  24.0587212  61.9884604
  89.9766270  30.3589896  53.7898309  90.8793517  30.3913507  54.1064804
  89.7503640  29.4290347  53.8044645  91.7319872  29.1120883  50.4508387
  90.7815503  29.1122745  50.3372760  92.0352359  28.3653618  49.9344422
  87.6224189  13.3179565  60.7091749  88.4855651  12.9616370  60.9195073
  87.0489600  12.9793460  61.3967153 100.1349088  36.7544326  47.4412565
  99.5713953  36.6634263  46.6728853 100.0201483  35.9344230  47.9215058
  97.6813520  38.2495518  50.2796786  98.4734812  37.9086342  49.8643085
  97.9210170  38.3590493  51.1998939  99.8891683  34.9756025  49.3867562
  98.9642179  34.8432240  49.5945254 100.1376096  35.7550245  49.8837504
  97.2500494  34.6189299  50.2211351  97.3792875  34.8723778  51.1350763
  96.5697945  35.2117007  49.9016006  96.1969919  32.0911312  50.2662393
  95.4068973  32.3468840  49.7902504  96.6881167  32.9059650  50.3714434
  98.1484665  32.4555891  47.2245870  97.3515828  32.5674585  47.7429366
  97.9210257  32.7942543  46.3586761  94.4807622  32.3441802  52.6977384
  94.7315661  33.2288812  52.9634960  95.0167171  32.1646404  51.9252476
  97.1467748  38.1644140  45.6135290  97.6592268  38.9587390  45.7640855
  97.7990460  37.4670430  45.5468892  98.9562632  41.2809896  47.6958043
  99.1329261  42.2027861  47.5079027  99.7519466  40.9668315  48.1252423
  98.2414989  33.3274528  57.5720207  98.1268504  32.4259785  57.8727305
  97.3859507  33.5738225  57.2205023  95.1116664  36.4932794  46.3894861
  95.9491886  36.9029803  46.1728568  95.2894932  35.5532236  46.3595055
  95.1342835  33.8323510  47.0605594  94.9367235  33.2392870  46.3356661
  94.5789499  33.5275720  47.7781533  97.6289061  33.3587543  44.7446546
  96.6986649  33.2971999  44.9616508  97.7246533  32.8363496  43.9483188
  97.5474610  29.8842356  47.3324788  97.8081427  30.7987690  47.2233948
  98.3691783  29.4166799  47.4821401  99.0199536  31.2980113  54.5023612
  99.6922589  31.0897476  53.8536261  98.1929322  31.1002199  54.0628845
  99.0586811  48.0371943  50.4650027  99.2983409  48.6690467  51.1429046
  98.2156007  47.6859983  50.7515387  91.6942667  35.5173705  49.2273340
  92.3813706  35.2035435  48.6394355  91.5390795  36.4215069  48.9540591
  96.4977389  30.4063901  53.6558363  96.4135577  29.7989571  52.9208773
  95.6760095  30.8972920  53.6567860  96.6792988  41.0268698  52.7786363
  97.2646425  40.2812386  52.9114268  96.4817826  41.3372655  53.6623027
  99.5331643  44.0619945  47.7948806  98.8642018  44.5466073  47.3112846
  99.3944513  44.3089166  48.7092184  91.2710643  33.5974298  51.4990807
  91.3094742  33.0637889  52.2927925  90.7650935  33.0709504  50.8801784
  98.6501405  28.4438839  54.9953349  98.7142731  29.3053670  54.5830747
  98.5868525  27.8312840  54.2625707  98.1253677  30.5161971  58.6426383
  98.7525716  30.1339048  59.2563908  97.2681596  30.2976173  59.0082076
  94.9019220  32.3238400  44.5744738  95.1972661  31.4149079  44.5211792
  94.0007256  32.3026140  44.2525740  98.4313467  30.3994397  50.5572287
  97.7100053  31.0130365  50.4179760  99.2206723  30.9352162  50.4788933
  96.6307062  30.0052498  44.6984063  96.3019768  29.1249877  44.5159169
  96.9846432  29.9500167  45.5860452  95.0893039  34.9936296  53.7169572
  94.5446507  35.7696104  53.8489846  95.9672388  35.3407100  53.5588693
  95.8759060  34.1206192  56.6099729  95.1340796  34.2688828  57.1964359
  95.5551805  34.3814458  55.7466478  96.3215674  42.0071621  48.6410123
  97.1473694  41.7075393  48.2608767  95.9709726  41.2379243  49.0899912
  94.5224279  39.9257947  49.5999057  93.6856187  39.4980122  49.4183058
  94.4947925  40.1190391  50.5369848  98.6063347  35.9367190  45.1927326
  98.3609389  35.0329520  45.3907536  98.7759262  35.9384341  44.2506804
  97.8758995  31.6695548  42.6913488  97.1828240  31.7439903  42.0353524
  97.6310747  30.9055891  43.2135005  93.8373776  32.9867295  49.3847989
  93.5176560  32.1332604  49.0922363  93.2907204  33.2015874  50.1405956
  97.6153683  35.7029736  53.1017495  97.8339693  36.6346844  53.1205529
  98.0279457  35.3437711  53.8872299  93.7062036  36.6070207  51.3541111
  93.0125507  36.1924160  50.8411065  94.4535027  36.6490743  50.7574529
  98.2786156  38.5964616  53.3453740  99.2329410  38.5648558  53.2783671
  98.0798680  38.1355240  54.1603966  98.8685538  37.1665732  55.9124537
  99.6878427  37.6609810  55.9359375  99.1422346  36.2497700  55.8842105
  96.6336385  44.1384235  50.3623938  96.4990853  43.3784636  49.7961936
  96.2168447  44.8625135  49.8952727  99.7905511  45.0353552  50.5742380
  99.6737895  45.9798985  50.4721071  98.9697957  44.7327114  50.9628180
  94.1220452  31.5003866  56.6116735  94.7679316  30.9902820  57.1003960
  93.9137604  32.2372547  57.1860160  98.4617943  28.6471483  60.7091749
  99.3249405  28.2908288  60.9195073  97.8883354  28.3085378  61.3967153
  97.6813521  15.2557640  37.0042093  98.4734813  14.9148465  36.5888392
  97.9210171  15.3652615  37.9244246  97.1467749  15.1706263  32.3380597
  97.6592269  15.9649513  32.4886161  97.7990462  14.4732553  32.2714198
  98.9562633  18.2872019  34.4203350  99.1329262  19.2089983  34.2324334
  99.7519467  17.9730438  34.8497730  99.0586812  25.0434066  37.1895334
  99.2983410  25.6752590  37.8674353  98.2156009  24.6922106  37.4760693
  96.6792989  18.0330820  39.5031670  97.2646426  17.2874508  39.6359574
  96.4817828  18.3434777  40.3868334  99.5331644  21.0682068  34.5194113
  98.8642020  21.5528196  34.0358153  99.3944514  21.3151288  35.4337491
  96.3215675  19.0133743  35.3655430  97.1473695  18.7137515  34.9854073
  95.9709727  18.2441366  35.8145219  94.5224280  16.9320070  36.3244363
  93.6856189  16.5042244  36.1428365  94.4947926  17.1252513  37.2615155
  93.7062037  13.6132330  38.0786417  93.0125508  13.1986282  37.5656372
  94.4535028  13.6552866  37.4819836  98.2786157  15.6026738  40.0699046
  99.2329411  15.5710681  40.0028978  98.0798681  15.1417362  40.8849272
  96.6336386  21.1446358  37.0869244  96.4990854  20.3846759  36.5207242
  96.2168448  21.8687258  36.6198033  99.7905512  22.0415675  37.2987687
  99.6737896  22.9861107  37.1966377  98.9697958  21.7389236  37.6873486
  18.9998606  55.7507215  95.8545801  18.3486585  56.3361295  95.4679814
  19.7942968  56.2813410  95.9140838  12.9254233  52.8396352  96.2532935
  13.6985109  52.2925339  96.1145811  13.2779632  53.7040601  96.4647396
  15.2620511  48.9989018  93.8851385  15.5146031  48.4770539  93.1234848
  14.3245070  48.8355164  93.9878069  20.4773871  53.4397647  96.3914785
  19.8419704  53.5132273  97.1035690  20.1471277  54.0291246  95.7133864
  22.6428114  48.3196302  96.6010799  23.5545970  48.5523688  96.4258496
  22.1337761  48.9033346  96.0385877  25.1286929  54.2376558 101.3468744
  24.4437967  54.6175459 100.7965777  25.2130778  54.8471885 102.0800692
  31.5889681  51.1047221 102.4671416  30.8353390  50.5354619 102.3115421
  31.7237222  51.0709885 103.4142051  16.9788309  55.9760623  98.1426135
  16.8433984  56.8212159  98.5710983  17.5198122  56.1779901  97.3792069
  20.2931055  49.4899796  95.1797464  19.7777679  50.2604401  95.4185851
  20.0208364  48.8164932  95.8030525  25.2665330  52.2432151  97.1150637
  24.4894772  51.9043310  96.6705800  25.9456811  52.2484774  96.4405603
  18.5263790  53.5217112  98.6550199  17.9985152  52.7869871  98.3423437
  18.0251293  54.2991788  98.4090168  16.6716391  51.3397322  91.6585172
  15.7643452  51.1086575  91.8576321  17.1687423  50.5434941  91.8459154
  19.5784470  60.0494829  94.5781858  18.9046168  60.3526526  95.1866816
  19.9650292  60.8523909  94.2287315  17.8504624  51.4409917  96.1809162
  16.9415843  51.1568949  96.2781632  17.8799708  51.8608995  95.3212469
  23.0823892  55.0516506  99.9500330  22.6286219  54.2107416 100.0065520
  22.4517858  55.6877905 100.2875110  21.5256831  56.8893003 100.8850148
  21.8179805  57.4498060 100.1662514  22.0355451  57.1821564 101.6403307
  17.5480712  52.9818660  93.5197241  17.1100142  52.2654519  93.0602878
  18.2891153  53.2094775  92.9582332  25.6653827  51.2575857  99.5773559
  25.5271725  51.4477453  98.6494749  25.3090045  52.0195240 100.0341611
  17.7775685  60.2174501  96.7928938  17.9527440  59.7462545  97.6074560
  17.0908473  60.8440268  97.0210198  21.6691940  51.8403042  93.1129298
  21.0521110  51.1149870  93.0162351  21.2008428  52.6012402  92.7696373
  13.4590485  46.0588466  92.2350603  12.5819952  45.9377267  91.8712849
  13.9348238  45.2674545  91.9829491  21.0380842  52.9781073  99.6985752
  20.1037121  53.0982536  99.5290456  21.2157511  52.0753540  99.4345762
  22.4929625  55.1642214  97.2321938  22.7689469  55.0498808  98.1415812
  21.6234123  54.7659699  97.1934111  19.1283689  59.4128565 100.8754752
  19.3106083  58.5950221 101.3382504  19.9516675  59.6296257 100.4379642
  19.4625854  58.3396750  98.1369800  19.9913621  57.8289204  97.5239962
  19.7254074  58.0239280  99.0015333  22.5566038  58.3113548  98.7524783
  22.7302915  57.7459971  97.9998636  23.0494929  59.1114443  98.5704273
  28.4105429  51.0749971 100.3715083  28.8536575  50.3257296  99.9734206
  27.5331939  51.0660107  99.9888815  23.5441210  57.6280312  95.8521682
  24.2392115  58.2487005  96.0708996  23.8864360  56.7775664  96.1274059
  25.4432633  55.0780018  97.3809012  25.9683957  55.4167291  96.6558332
  25.3554986  54.1427033  97.1972147  14.1360673  55.2393934  97.2885028
  14.2848794  55.9229398  96.6351700  14.9427117  55.2199024  97.8034483
  27.9538294  52.5455209 102.7637531  28.7885185  52.9845013 102.9275091
  28.0897422  52.0693863 101.9445776  17.6356079  57.7342064  94.7596775
  17.0630046  58.3532251  94.3067247  18.2088872  58.2841426  95.2936697
  20.8553338  58.0179214  95.8905357  21.7884012  57.9524776  96.0938233
  20.7676551  58.8535481  95.4319890  23.4841355  57.3345085  92.8509305
  23.4054987  57.0004948  93.7445063  24.3051022  57.8266853  92.8500777
  18.0202877  49.0702877  92.1012828  18.9661982  48.9409085  92.1701246
  17.6417122  48.3317539  92.5782256  16.2045794  46.9952853  92.0367713
  15.2977250  46.6985966  92.1130426  16.4821775  46.6982671  91.1701999
  14.9744579  43.8539789  92.1779692  15.8363743  44.1794687  92.4375509
  15.1594923  43.0671284  91.6652758  21.0545307  54.6513080  92.4719283
  21.7581157  54.8563083  93.0876939  20.3307956  55.2189842  92.7368367
  21.8843117  50.4022941  98.5921553  21.8278319  50.8591493  97.7529186
  22.4371460  49.6413626  98.4144396  22.9632004  55.0895609  94.5217743
  23.7977608  54.6576808  94.3395218  22.8016347  54.9177623  95.4494638
  22.6177897  51.5927723  95.8874083  22.5626700  51.4271994  94.9462527
  21.9923952  52.3003755  96.0436272  31.5916279  65.6065260 104.6172920
  32.2294689  65.4872008 103.9136260  31.4737122  66.5546104 104.6760872
  28.4005986  65.5592688 104.5534445  28.0624497  65.4433753 103.6654980
  29.2695754  65.1583854 104.5335451  29.8392360  71.0799133  95.8545801
  29.1880340  71.6653213  95.4679814  30.6336723  71.6105327  95.9140838
  23.7647987  68.1688270  96.2532935  24.5378863  67.6217257  96.1145811
  24.1173386  69.0332519  96.4647396  26.1014265  64.3280936  93.8851385
  26.3539786  63.8062457  93.1234848  25.1638824  64.1647081  93.9878069
  31.1457548  63.3316714 101.6926128  31.9320637  62.9136137 101.3416545
  31.4096252  64.2362806 101.8607777  31.3167625  68.7689564  96.3914785
  30.6813458  68.8424191  97.1035690  30.9865032  69.3583163  95.7133864
  36.5465975  63.2691947 102.5959107  37.2791147  62.6991164 102.8296936
  35.7905331  62.8813548 103.0365612  25.8210554  66.2309042  96.0875760
  25.7046812  65.5553945  96.7556844  25.9312814  65.7441416  95.2707913
  28.1642095  65.6919189  99.7922449  27.8000302  65.1649810 100.5035371
  29.0209211  65.3017658  99.6188935  34.0691395  56.9813521 107.0553715
  33.7374720  57.8508932 106.8314930  33.4737009  56.6649805 107.7347746
  27.8047582  60.7209089  94.7883798  27.9721984  61.5889325  95.1554269
  27.6144751  60.8836370  93.8645087  33.9620059  61.7008608 104.1347065
  33.0536936  61.6324016 103.8405826  33.9107655  62.1780553 104.9628891
  27.7836803  63.1766746  95.7730464  27.6636428  63.6223797  96.6115945
  27.0889391  63.5252064  95.2144003  35.8281705  59.9025046 105.9124939
  35.1856085  60.1957579 105.2664734  35.3236634  59.7877966 106.7178136
  33.4821869  63.6488219  96.6010799  34.3939725  63.8815606  96.4258496
  32.9731516  64.2325263  96.0385877  32.0891451  68.6314038 103.9924380
  31.4600314  68.7959752 103.2900448  31.7017113  69.0455647 104.7635344
  35.9680683  69.5668476 101.3468744  35.2831721  69.9467377 100.7965777
  36.0524532  70.1763802 102.0800692  30.8257844  59.8246255 104.8500659
  29.9642323  60.1227509 105.1417397  30.8520278  60.0416654 103.9181692
  27.6419413  68.3688446 101.2574465  28.1057759  68.6476149 100.4679088
  27.3776211  67.4671890 101.0747556  26.5788299  64.4911598  98.0664030
  27.2812342  64.9432642  98.5337957  26.2468928  63.8495417  98.6943923
  42.4283436  66.4339138 102.4671416  41.6747144  65.8646537 102.3115421
  42.5630977  66.4001803 103.4142051  27.8182064  71.3052541  98.1426135
  27.6827738  72.1504077  98.5710983  28.3591876  71.5071818  97.3792069
  28.7171921  59.6641415 100.2382702  27.8613517  59.2748265 100.0588341
  29.1298873  59.7433375  99.3782488  30.2471068  57.1987758 104.6374262
  29.7435863  57.1617893 103.8242067  30.5401674  58.1080501 104.6970919
  26.4913953  57.2826488 103.6440444  27.3566950  57.0869296 103.2846333
  26.5591462  57.0536839 104.5709801  36.1059084  67.5724068  97.1150637
  35.3288527  67.2335228  96.6705800  36.7850565  67.5776692  96.4405603
  30.9211113  62.6918806  97.0057245  30.6161249  63.0064955  97.8567388
  31.8741555  62.7700226  97.0484578  29.3657545  68.8509029  98.6550199
  28.8378907  68.1161789  98.3423437  28.8645048  69.6283706  98.4090168
  34.3450391  67.0458050 103.7717245  33.6874065  67.7357311 103.8597374
  35.1490790  67.4354482 104.1151232  24.0976273  59.5128695 101.0156811
  24.6720024  59.2903877 100.2830004  24.6847255  59.5817390 101.7685412
  33.1555850  65.4002422 101.8221187  33.6687732  66.0332414 102.3242897
  33.8057074  64.8003618 101.4564547  24.4245860  61.5433157  95.0352696
  23.5883172  61.8807843  95.3561971  24.2850629  61.4082136  94.0979833
  26.3998940  56.3869944  99.7431880  25.7463353  56.0718962  99.1188495
  26.3579414  55.7645685 100.4691703  27.5110145  66.6689239  91.6585172
  26.6037207  66.4378493  91.8576321  28.0081177  65.8726859  91.8459154
  30.4178224  75.3786747  94.5781858  29.7439923  75.6818443  95.1866816
  30.8044046  76.1815827  94.2287315  29.6336681  62.8751878 104.0679528
  28.7159242  63.0966825 103.9101216  30.0496824  62.9498188 103.2091235
  30.4171728  64.2743294  99.1982208  31.1643547  64.7864691  98.8889330
  30.6863318  63.9527346 100.0586602  28.6898379  66.7701834  96.1809162
  27.7809598  66.4860867  96.2781632  28.7193462  67.1900913  95.3212469
  33.9217646  70.3808424  99.9500330  33.4679973  69.5399334 100.0065520
  33.2911613  71.0169822 100.2875110  32.8650566  61.3100410 101.1800997
  32.1273322  60.7977796 101.5111240  33.1177339  60.8700791 100.3684274
  32.3650585  72.2184921 100.8850148  32.6573560  72.7789978 100.1662514
  32.8749206  72.5113482 101.6403307  32.9662193  54.0876662 101.7742767
  33.2721070  53.2274025 101.4868682  33.6914798  54.6794282 101.5741760
  27.2383273  64.3830455 102.2818958  27.2931882  63.4304291 102.2061434
  26.4274475  64.5389894 102.7660256  28.3874466  68.3110578  93.5197241
  27.9493896  67.5946437  93.0602878  29.1284907  68.5386693  92.9582332
  25.1775633  63.0007515 100.0409337  24.3643498  63.3001685 100.4474529
  25.6734627  62.6063203 100.7583819  36.5047581  66.5867775  99.5773559
  36.3665480  66.7769371  98.6494749  36.1483800  67.3487158 100.0341611
  36.5316961  68.6544302 104.5884831  36.9653467  68.5619591 105.4367885
  37.2448541  68.6301803 103.9504847  21.7532775  64.0171382  97.8465317
  20.8230363  63.9555838  98.0635279  21.8490247  63.4947335  97.0501958
  21.6718324  60.5426195 100.4343558  21.9325141  61.4571528 100.3252719
  22.4935496  60.0750638 100.5840171  28.6169439  75.5466419  96.7928938
  28.7921195  75.0754462  97.6074560  27.9302227  76.1732185  97.0210198
  32.5085694  67.1694960  93.1129298  31.8914865  66.4441788  93.0162351
  32.0402182  67.9304320  92.7696373  24.2984240  61.3880384  92.2350603
  23.4213706  61.2669185  91.8712849  24.7741993  60.5966462  91.9829491
  30.7944816  59.5501304 102.1247329  31.2913516  58.7971266 101.8048399
  30.0231798  59.5865620 101.5590538  38.6474573  65.2541669 103.7665620
  38.6364450  66.1366385 103.3959553  37.7791953  64.9013220 103.5720157
  31.8774597  68.3072991  99.6985752  30.9430875  68.4274453  99.5290456
  32.0551265  67.4045458  99.4345762  27.3779785  61.6918687 101.8519013
  27.0077572  61.1389727 102.5399919  27.8738877  61.0876820 101.2994013
  35.2647148  64.1490310 100.2335786  35.7307600  64.9818302 100.1596089
  35.7154649  63.6835292 100.9381045  33.3323379  70.4934132  97.2321938
  33.6083223  70.3790726  98.1415812  32.4627878  70.0951616  97.1934111
  33.2363811  56.5170897 104.2726688  32.3226891  56.7475124 104.4408894
  33.6656912  56.6009341 105.1240720  33.0070269  64.7060789 106.7726582
  32.3541720  64.9536697 106.1179034  33.3850649  63.8924927 106.4389059
  29.9677443  74.7420482 100.8754752  30.1499838  73.9242138 101.3382504
  30.7910429  74.9588175 100.4379642  30.3019609  73.6688668  98.1369800
  30.8307375  73.1581122  97.5239962  30.5647828  73.3531198  99.0015333
  19.0262934  62.9822239  97.6763508  19.3216375  62.0732918  97.6230562
  18.1250970  62.9609979  97.3544511  20.7550775  60.6636337  97.8002834
  20.4263481  59.7833716  97.6177939  21.1090146  60.6084006  98.6879223
  30.0030354  72.2991240 102.3097819  29.8555317  71.3707947 102.4905389
  30.8283848  72.3211330 101.8254894  23.8692598  60.9509307  98.1678311
  24.2088671  61.4795228  97.4456920  24.3164719  61.2889713  98.9436878
  33.6064476  73.1219798 103.3962692  34.5311024  72.9162660 103.2587143
  33.4379779  72.8736199 104.3052033  25.8560746  59.4483928  96.3671604
  26.5769108  59.8265181  95.8635321  25.2326050  60.1672805  96.4706582
  29.9991869  60.1529077  97.3029936  30.2155483  61.0353715  97.0018764
  29.5185936  59.7615291  96.5735578  26.5987473  60.1017338 103.9281570
  26.5849042  59.2058432 103.5913868  27.3159901  60.1088002 104.5619857
  28.4513603  60.5354679 105.9734698  28.1931381  61.4571749 105.9719028
  27.9198644  60.1385113 106.6635162  33.3959792  73.6405466  98.7524783
  33.5696670  73.0751888  97.9998636  33.8888683  74.4406361  98.5704273
  26.0024369  58.9831719  99.1969141  26.1240280  58.0548365  99.3960028
  25.7126411  58.9970405  98.2847456  28.8715559  56.6686629 102.3335860
  28.8937256  56.7325962 101.3787840  29.2883618  55.8291138 102.5276367
  39.2499183  66.4041889 100.3715083  39.6930329  65.6549214  99.9734206
  38.3725694  66.3952025  99.9888815  34.3834965  72.9572230  95.8521682
  35.0785869  73.5778923  96.0708996  34.7258115  72.1067581  96.1274059
  36.2826388  70.4071936  97.3809012  36.8077712  70.7459208  96.6558332
  36.1948740  69.4718951  97.1972147  24.9754428  70.5685851  97.2885028
  25.1242548  71.2521316  96.6351700  25.7820871  70.5490941  97.8034483
  38.7932048  67.8747127 102.7637531  39.6278940  68.3136931 102.9275091
  38.9291177  67.3985780 101.9445776  22.7307061  66.5951029  98.2946097
  22.4853103  65.6913359  98.4926307  22.9002975  66.5968179  97.3525575
  22.0002708  62.3279387  95.7932258  21.3071953  62.4023742  95.1372294
  21.7554460  61.5639730  96.3153775  30.6716365  53.8874988 103.1971749
  30.9518118  53.2198177 103.8232175  31.4566972  54.0804084 102.6846413
  28.4749833  73.0633982  94.7596775  27.9023800  73.6824169  94.3067247
  29.0482627  73.6133344  95.2936697  34.5425223  62.3092622 106.9443324
  35.4942646  62.4090720 106.9655548  34.3728673  61.5170890 107.4541408
  32.5639603  59.3948205 107.1302725  31.9689535  59.6753218 106.4349214
  32.2789299  59.8842106 107.9019466  31.6947093  73.3471132  95.8905357
  32.6277766  73.2816694  96.0938233  31.6070306  74.1827399  95.4319890
  34.3235110  72.6637002  92.8509305  34.2448741  72.3296866  93.7445063
  35.1444776  73.1558770  92.8500777  37.0213301  65.5298742 106.0585624
  36.9889621  64.5914742 106.2445307  37.6313924  65.6082778 105.3251448
  28.8596632  64.3994795  92.1012828  29.8055736  64.2701003  92.1701246
  28.4810877  63.6609456  92.5782256  37.1707789  62.3209785 106.1043907
  36.6546838  61.5368242 105.9173836  38.0547738  61.9928502 106.2690426
  34.8318516  56.0650801 102.0639719  34.6343337  55.7565889 102.9483051
  35.4418222  56.7912440 102.1937649  40.9205148  64.7322611 105.7966112
  40.1938311  64.5978576 105.1882603  40.5052435  65.0399440 106.6022830
  27.0439549  62.3244771  92.0367713  26.1371004  62.0277884  92.1130426
  27.3215530  62.0274589  91.1701999  28.6601615  56.8681661  98.1911954
  27.8502343  56.5228746  98.5667200  29.3486032  56.5589204  98.7799566
  30.5892163  55.9459707  99.8136251  31.1423201  56.3655161 100.4726274
  30.8262249  55.0195456  99.8559207  25.8138333  59.1831706  92.1779692
  26.6757497  59.5086605  92.4375509  25.9988678  58.3963202  91.6652758
  33.9670970  58.0560233  99.3214915  33.3869639  58.7145037  98.9392967
  33.7006903  57.2337577  98.9102333  32.4174536  57.4565290 101.5236235
  32.9174315  57.5681825 100.7150554  33.0610144  57.1526343 102.1637044
  32.7495848  60.2160323  98.3771263  31.8621703  60.5009974  98.1591458
  33.1649837  60.0554086  97.5298540  36.1010384  60.2406844 102.0925603
  36.8770774  60.7303296 102.3650219  35.3758518  60.6664898 102.5497472
  38.5382943  60.9534463 103.1499543  39.1327434  60.7130199 102.4392851
  38.6109526  60.2341594 103.7773079  31.8939061  69.9804998  92.4719283
  32.5974912  70.1855000  93.0876939  31.1701710  70.5481760  92.7368367
  32.7236872  65.7314859  98.5921553  32.6672073  66.1883410  97.7529186
  33.2765214  64.9705544  98.4144396  36.5341678  61.5204591  99.4171673
  36.2778612  61.1201226 100.2479881  35.9094546  62.2348385  99.2921812
  40.8454015  64.2600664 101.9242964  40.2853573  64.3293853 102.6974526
  40.2397519  64.0841649 101.2042461  33.8025759  70.4187527  94.5217743
  34.6371363  69.9868725  94.3395218  33.6410102  70.2469541  95.4494638
  33.4571651  66.9219640  95.8874083  33.4020455  66.7563912  94.9462527
  32.8317706  67.6295673  96.0436272  26.7667776  56.4227749  95.4659401
  26.7546446  57.3669589  95.6227672  27.6591198  56.2397895  95.1718862
  30.5819896  53.0170526  99.7205338  29.8152292  52.4629013  99.8662020
  30.9930601  53.0892395 100.5819489  34.6041742  83.4980187  96.2532935
  35.3772618  82.9509174  96.1145811  34.9567141  84.3624437  96.4647396
  36.9408020  79.6572854  93.8851385  37.1933540  79.1354375  93.1234848
  36.0032579  79.4938999  93.9878069  36.6604308  81.5600959  96.0875760
  36.5440566  80.8845863  96.7556844  36.7706568  81.0733333  95.2707913
  38.6441336  76.0501006  94.7883798  38.8115739  76.9181243  95.1554269
  38.4538505  76.2128288  93.8645087  38.6230557  78.5058664  95.7730464
  38.5030182  78.9515715  96.6115945  37.9283146  78.8543981  95.2144003
  44.3215623  78.9780137  96.6010799  45.2333479  79.2107524  96.4258496
  43.8125270  79.5617181  96.0385877  37.4182054  79.8203516  98.0664030
  38.1206097  80.2724560  98.5337957  37.0862682  79.1787335  98.6943923
  41.9718564  80.1483631  95.1797464  41.4565188  80.9188236  95.4185851
  41.6995873  79.4748768  95.8030525  39.5565675  74.9933332 100.2382702
  38.7007272  74.6040183 100.0588341  39.9692627  75.0725293  99.3782488
  41.7604868  78.0210724  97.0057245  41.4555003  78.3356873  97.8567388
  42.7135310  78.0992143  97.0484578  34.9370027  74.8420613 101.0156811
  35.5113779  74.6195795 100.2830004  35.5241010  74.9109308 101.7685412
  35.2639614  76.8725074  95.0352696  34.4276926  77.2099761  95.3561971
  35.1244384  76.7374054  94.0979833  37.2392695  71.7161862  99.7431880
  36.5857107  71.4010879  99.1188495  37.1973169  71.0937603 100.4691703
  38.3503900  81.9981157  91.6585172  37.4430961  81.7670411  91.8576321
  38.8474932  81.2018776  91.8459154  39.5292133  82.0993752  96.1809162
  38.6203352  81.8152785  96.2781632  39.5587217  82.5192831  95.3212469
  43.8055947  69.4168580 101.7742767  44.1114824  68.5565943 101.4868682
  44.5308552  70.0086200 101.5741760  39.2268221  83.6402496  93.5197241
  38.7887651  82.9238355  93.0602878  39.9678662  83.8678610  92.9582332
  36.0169387  78.3299432 100.0409337  35.2037253  78.6293603 100.4474529
  36.5128381  77.9355121 100.7583819  32.5926529  79.3463300  97.8465317
  31.6624117  79.2847756  98.0635279  32.6884001  78.8239253  97.0501958
  32.5112078  75.8718113 100.4343558  32.7718896  76.7863446 100.3252719
  33.3329251  75.4042555 100.5840171  43.3479448  82.4986877  93.1129298
  42.7308619  81.7733705  93.0162351  42.8795937  83.2596238  92.7696373
  35.1377994  76.7172302  92.2350603  34.2607461  76.5961102  91.8712849
  35.6135747  75.9258380  91.9829491  29.8656688  78.3114157  97.6763508
  30.1610129  77.4024835  97.6230562  28.9644724  78.2901896  97.3544511
  31.5944530  75.9928255  97.8002834  31.2657236  75.1125633  97.6177939
  31.9483901  75.9375923  98.6879223  34.7086353  76.2801224  98.1678311
  35.0482425  76.8087146  97.4456920  35.1558473  76.6181630  98.9436878
  36.6954500  74.7775846  96.3671604  37.4162863  75.1557099  95.8635321
  36.0719804  75.4964723  96.4706582  40.8385623  75.4820995  97.3029936
  41.0549237  76.3645633  97.0018764  40.3579690  75.0907208  96.5735578
  36.8418123  74.3123636  99.1969141  36.9634034  73.3840283  99.3960028
  36.5520166  74.3262322  98.2847456  39.7109314  71.9978547 102.3335860
  39.7331010  72.0617880 101.3787840  40.1277373  71.1583055 102.5276367
  33.5700815  81.9242947  98.2946097  33.3246857  81.0205277  98.4926307
  33.7396730  81.9260097  97.3525575  32.8396463  77.6571304  95.7932258
  32.1465708  77.7315659  95.1372294  32.5948215  76.8931648  96.3153775
  41.5110119  69.2166906 103.1971749  41.7911873  68.5490095 103.8232175
  42.2960726  69.4096001 102.6846413  39.6990386  79.7286712  92.1012828
  40.6449491  79.5992920  92.1701246  39.3204631  78.9901374  92.5782256
  37.8833303  77.6536689  92.0367713  36.9764759  77.3569801  92.1130426
  38.1609284  77.3566507  91.1701999  39.4995369  72.1973578  98.1911954
  38.6896097  71.8520663  98.5667200  40.1879786  71.8881122  98.7799566
  36.6532088  74.5123624  92.1779692  37.5151252  74.8378522  92.4375509
  36.8382432  73.7255120  91.6652758  44.8064724  73.3852150  99.3214915
  44.2263393  74.0436954  98.9392967  44.5400657  72.5629495  98.9102333
  43.5889602  75.5452241  98.3771263  42.7015457  75.8301891  98.1591458
  44.0043592  75.3846004  97.5298540  42.7332816  85.3096915  92.4719283
  43.4368666  85.5146918  93.0876939  42.0095465  85.8773677  92.7368367
  37.6061531  71.7519667  95.4659401  37.5940201  72.6961507  95.6227672
  38.4984953  71.5689812  95.1718862  41.4213650  68.3462444  99.7205338
  40.6546046  67.7920930  99.8662020  41.8324355  68.4184312 100.5819489
  18.9998607  32.7569337  82.5791107  18.3486587  33.3423418  82.1925121
  19.7942970  33.2875532  82.6386145  12.9254234  29.8458475  82.9778242
  13.6985110  29.2987462  82.8391117  13.2779633  30.7102724  83.1892703
  15.2620512  26.0051141  80.6096692  15.5146033  25.4832662  79.8480155
  14.3245071  25.8417286  80.7123375  20.4773872  30.4459769  83.1160092
  19.8419705  30.5194396  83.8280996  20.1471278  31.0353368  82.4379171
  14.7049942  37.6240593  86.1465902  14.6273971  38.5748418  86.2254383
  14.1011585  37.2786465  86.8040829  22.6428116  25.3258424  83.3256105
  23.5545972  25.5585811  83.1503803  22.1337763  25.9095468  82.7631184
  25.1286930  31.2438680  88.0714050  24.4437968  31.6237582  87.5211084
  25.2130779  31.8534007  88.8045998  31.5889682  28.1109343  89.1916723
  30.8353391  27.5416741  89.0360727  31.7237224  28.0772008  90.1387357
  16.9788310  32.9822746  84.8671442  16.8433985  33.8274281  85.2956290
  17.5198123  33.1842023  84.1037376  20.2931057  26.4961919  81.9042771
  19.7777680  27.2666523  82.1431158  20.0208365  25.8227055  82.5275832
  25.2665331  29.2494273  83.8395944  24.4894774  28.9105433  83.3951106
  25.9456812  29.2546897  83.1650909  18.5263792  30.5279234  85.3795506
  17.9985153  29.7931994  85.0668743  18.0251294  31.3053910  85.1335474
  16.6716392  28.3459444  78.3830479  15.7643454  28.1148698  78.5821628
  17.1687424  27.5497064  78.5704460  19.5784471  37.0556952  81.3027165
  18.9046170  37.3588648  81.9112123  19.9650293  37.8586032  80.9532622
  17.8504625  28.4472039  82.9054469  16.9415845  28.1631072  83.0026939
  17.8799709  28.8671118  82.0457776  23.0823893  32.0578629  86.6745637
  22.6286220  31.2169539  86.7310827  22.4517859  32.6940027  87.0120417
  21.5256832  33.8955125  87.6095455  21.8179806  34.4560183  86.8907820
  22.0355453  34.1883686  88.3648614  17.5480713  29.9880783  80.2442548
  17.1100143  29.2716642  79.7848185  18.2891154  30.2156898  79.6827639
  25.6653828  28.2637980  86.3018866  25.5271727  28.4539576  85.3740055
  25.3090047  29.0257363  86.7586917  17.7775686  37.2236624  83.5174244
  17.9527442  36.7524667  84.3319867  17.0908474  37.8502390  83.7455505
  21.6691941  28.8465165  79.8374605  21.0521111  28.1211993  79.7407658
  21.2008429  29.6074525  79.4941679  13.4590487  23.0650589  78.9595909
  12.5819953  22.9439390  78.5958156  13.9348240  22.2736667  78.7074798
  16.6454413  35.4176879  86.2058430  15.8621935  35.9598559  86.2996654
  17.3447158  35.9350859  86.6052671  21.0380844  29.9843196  86.4231059
  20.1037122  30.1044658  86.2535763  21.2157512  29.0815663  86.1591069
  22.4929626  32.1704336  83.9567245  22.7689470  32.0560931  84.8661119
  21.6234125  31.7721821  83.9179418  19.1283690  36.4190687  87.6000058
  19.3106085  35.6012343  88.0627811  19.9516676  36.6358380  87.1624948
  19.4625855  35.3458872  84.8615107  19.9913622  34.8351327  84.2485269
  19.7254075  35.0301403  85.7260640  22.5566039  35.3175671  85.4770090
  22.7302917  34.7522093  84.7243942  23.0494930  36.1176566  85.2949580
  28.4105430  28.0812094  87.0960390  28.8536576  27.3319419  86.6979513
  27.5331940  28.0722230  86.7134122  23.5441212  34.6342435  82.5766988
  24.2392116  35.2549128  82.7954303  23.8864362  33.7837786  82.8519366
  25.4432635  32.0842141  84.1054319  25.9683959  32.4229413  83.3803639
  25.3554987  31.1489156  83.9217454  17.1273295  38.1514124  88.4649572
  16.6878286  37.6590503  89.1582429  17.8781412  37.6087092  88.2241647
  14.1360674  32.2456056  84.0130334  14.2848795  32.9291521  83.3597007
  14.9427118  32.2261146  84.5279790  27.9538295  29.5517332  89.4882837
  28.7885186  29.9907136  89.6520398  28.0897424  29.0755985  88.6691083
  17.6356080  34.7404187  81.4842082  17.0630047  35.3594374  81.0312554
  18.2088874  35.2903548  82.0182004  20.8553340  35.0241337  82.6150664
  21.7884013  34.9586899  82.8183540  20.7676553  35.8597604  82.1565197
  23.4841356  34.3407207  79.5754612  23.4054988  34.0067071  80.4690370
  24.3051023  34.8328975  79.5746084  18.0202878  26.0765000  78.8258134
  18.9661983  25.9471208  78.8946552  17.6417123  25.3379661  79.3027562
  16.2045796  24.0014976  78.7613020  15.2977251  23.7048089  78.8375733
  16.4821777  23.7044794  77.8947306  14.9744580  20.8601911  78.9024999
  15.8363744  21.1856809  79.1620816  15.1594924  20.0733407  78.3898065
  21.0545308  31.6575203  79.1964590  21.7581158  31.8625205  79.8122246
  20.3307957  32.2251965  79.4613673  21.8843118  27.4085064  85.3166860
  21.8278320  27.8653615  84.4774493  22.4371461  26.6475748  85.1389703
  22.9632006  32.0957732  81.2463050  23.7977610  31.6638930  81.0640525
  22.8016349  31.9239746  82.1739944  22.6177898  28.5989845  82.6119389
  22.5626702  28.4334117  81.6707833  21.9923953  29.3065878  82.7681579
  31.5916281  42.6127383  91.3418227  32.2294691  42.4934130  90.6381567
  31.4737124  43.5608227  91.4006179  28.4005987  42.5654811  91.2779751
  28.0624499  42.4495876  90.3900286  29.2695755  42.1645976  91.2580758
  24.2592803  44.4190287  87.2676642  23.6957668  44.3280224  86.4992930
  24.1445198  43.5990192  87.7479135  28.8825770  43.7189663  97.2365957
  28.8714411  43.3242461  96.3646461  29.0446409  42.9855735  97.8299728
  21.8057235  45.9141479  90.1060863  22.5978527  45.5732304  89.6907162
  22.0453885  46.0236454  91.0263016  29.8392361  48.0861255  82.5791107
  29.1880341  48.6715336  82.1925121  30.6336724  48.6167450  82.6386145
  23.7647989  45.1750392  82.9778242  24.5378865  44.6279379  82.8391117
  24.1173387  46.0394642  83.1892703  25.6033031  46.5026775  96.1845141
  25.3122897  47.4072405  96.0691807  26.2390015  46.5443302  96.8989211
  26.5289238  43.8803623  92.7746501  27.1252810  43.6559645  92.0603464
  26.5864210  43.1388369  93.3771948  26.1014266  41.3343058  80.6096692
  26.3539787  40.8124580  79.8480155  25.1638825  41.1709204  80.7123375
  31.1457549  40.3378837  88.4171435  31.9320638  39.9198260  88.0661852
  31.4096254  41.2424929  88.5853083  31.3167627  45.7751687  83.1160092
  30.6813460  45.8486314  83.8280996  30.9865033  46.3645286  82.4379171
  36.5465976  40.2754070  89.3204413  37.2791148  39.7053287  89.5542243
  35.7905332  39.8875670  89.7610919  25.8210555  43.2371164  82.8121067
  25.7046813  42.5616068  83.4802151  25.9312815  42.7503538  81.9953220
  28.1642096  42.6981311  86.5167756  27.8000303  42.1711932  87.2280677
  29.0209212  42.3079781  86.3434241  34.0691397  33.9875644  93.7799022
  33.7374721  34.8571055  93.5560237  33.4737010  33.6711928  94.4593052
  27.8047583  37.7271211  81.5129104  27.9721985  38.5951448  81.8799575
  27.6144752  37.8898493  80.5890394  30.5622916  46.1888190  93.1794935
  30.2623639  47.0913229  93.0710742  30.2173976  45.9220373  94.0316088
  24.0135398  42.6401987  89.2131639  23.0885894  42.5078201  89.4209331
  24.2619811  43.4196206  89.7101581  33.9620060  38.7070730  90.8592372
  33.0536937  38.6386139  90.5651133  33.9107656  39.1842675  91.6874197
  27.7836804  40.1828869  82.4975771  27.6636429  40.6285919  83.3361251
  27.0889392  40.5314186  81.9389309  21.3744209  42.2835260  90.0475428
  21.5036590  42.5369739  90.9614840  20.6941660  42.8762968  89.7280083
  25.5443696  52.9532510  86.1465902  25.4667726  53.9040336  86.2254383
  24.9405340  52.6078383  86.8040829  35.8281706  36.9087169  92.6370246
  35.1856087  37.2019702  91.9910040  35.3236635  36.7940089  93.4423443
  33.4821870  40.6550342  83.3256105  34.3939726  40.8877729  83.1503803
  32.9731517  41.2387386  82.7631184  31.7662638  45.0774970  96.9617398
  32.1745994  44.6357380  96.2172030  31.0439899  44.5027597  97.2151591
  28.1193708  40.0147576  94.3350955  28.9654903  40.4386990  94.4785604
  28.0592345  39.3581201  95.0289518  32.0891452  45.6376160  90.7169687
  31.4600315  45.8021874  90.0145754  31.7017114  46.0517770  91.4880651
  35.9680684  46.5730598  88.0714050  35.2831722  46.9529500  87.5211084
  36.0524534  47.1825925  88.8045998  33.2231616  44.2190557  94.6709394
  33.4348511  44.8622317  93.9943775  33.1761364  43.3852874  94.2031324
  30.8257845  36.8308378  91.5745966  29.9642324  37.1289631  91.8662704
  30.8520279  37.0478777  90.6426999  27.6419414  45.3750568  87.9819772
  28.1057760  45.6538271  87.1924394  27.3776212  44.4734013  87.7992862
  24.5343495  44.9222050  90.9199535  25.1044852  45.3509318  90.2817019
  25.1251607  44.6404635  91.6183721  26.5788300  41.4973721  84.7909337
  27.2812344  41.9494764  85.2583263  26.2468929  40.8557540  85.4189230
  20.3213634  39.7557273  90.0926470  19.5312688  40.0114802  89.6166581
  20.8124882  40.5705611  90.1978511  34.3377444  47.0962513  92.8431751
  35.1594888  46.6942700  92.5614433  34.3339847  46.9930747  93.7947867
  22.2728380  40.1201853  87.0509947  21.4759543  40.2320547  87.5693443
  22.0453972  40.4588505  86.1850838  28.1034047  46.6446556  94.9992462
  28.1678480  47.1066963  95.8350634  27.3944971  46.0143921  95.1274772
  42.4283437  43.4401261  89.1916723  41.6747145  42.8708659  89.0360727
  42.5630978  43.4063926  90.1387357  27.8182065  48.3114663  84.8671442
  27.6827740  49.1566199  85.2956290  28.3591877  48.5133941  84.1037376
  21.2711462  45.8290101  85.4399367  21.7835983  46.6233352  85.5904932
  21.9234175  45.1316392  85.3732969  23.0806347  48.9455858  87.5222120
  23.2572975  49.8673822  87.3343104  23.8763181  48.6314277  87.9516500
  29.4450541  48.9338230  98.9971784  29.0014395  48.1474608  98.6792689
  30.1067755  49.1217380  98.3315675  24.2037662  50.4634031  93.5232463
  24.7545088  50.3351095  92.7509457  23.3649138  50.7628921  93.1727355
  31.5431779  49.2141030  97.0253185  31.5250255  50.0349911  96.5333455
  32.4651699  49.0895105  97.2503327  28.0004834  46.7285159  97.8676694
  28.5333170  45.9673447  97.6376002  27.4718915  46.4358811  98.6100848
  19.2360379  44.1578756  86.2158938  20.0735601  44.5675764  85.9992645
  19.4138647  43.2178198  86.1859132  31.1324811  41.8253836  81.9042771
  30.6171435  42.5958441  82.1431158  30.8602120  41.1518973  82.5275832
  28.7171922  36.6703537  86.9628009  27.8613519  36.2810388  86.7833648
  29.1298874  36.7495498  86.1027795  30.2471069  34.2049880  91.3619569
  29.7435864  34.1680016  90.5487374  30.5401676  35.1142623  91.4216225
  26.4913955  34.2888610  90.3685751  27.3566952  34.0931419  90.0091640
  26.5591464  34.0598962  91.2955107  36.1059085  44.5786191  83.8395944
  35.3288528  44.2397351  83.3951106  36.7850566  44.5838814  83.1650909
  30.9211114  39.6980928  83.7302552  30.6161250  40.0127078  84.5812695
  31.8741557  39.7762348  83.7729885  29.3657546  45.8571152  85.3795506
  28.8378908  45.1223911  85.0668743  28.8645049  46.6345828  85.1335474
  34.3450392  44.0520172  90.4962552  33.6874067  44.7419434  90.5842681
  35.1490791  44.4416604  90.8396538  24.0976274  36.5190818  87.7402117
  24.6720026  36.2966000  87.0075310  24.6847256  36.5879513  88.4930719
  33.1555851  42.4064545  88.5466494  33.6687733  43.0394537  89.0488204
  33.8057075  41.8065740  88.1809854  24.4245861  38.5495279  81.7598003
  23.5883173  38.8869966  82.0807277  24.2850631  38.4144259  80.8225140
  26.3998942  33.3932067  86.4677187  25.7463354  33.0781084  85.8433802
  26.3579416  32.7707807  87.1937010  27.5110146  43.6751362  78.3830479
  26.6037208  43.4440616  78.5821628  28.0081178  42.8788981  78.5704460
  30.4178225  52.3848869  81.3027165  29.7439924  52.6880566  81.9112123
  30.8044047  53.1877950  80.9532622  29.6336682  39.8814001  90.7924834
  28.7159243  40.1028948  90.6346522  30.0496826  39.9560311  89.9336542
  30.4171730  41.2805416  85.9227515  31.1643549  41.7926813  85.6134637
  30.6863319  40.9589469  86.7831908  28.6898380  43.7763957  82.9054469
  27.7809599  43.4922990  83.0026939  28.7193464  44.1963035  82.0457776
  33.9217647  47.3870546  86.6745637  33.4679974  46.5461456  86.7310827
  33.2911614  48.0231945  87.0120417  32.8650567  38.3162532  87.9046304
  32.1273324  37.8039919  88.2356547  33.1177340  37.8762914  87.0929581
  32.3650586  49.2247043  87.6095455  32.6573561  49.7852100  86.8907820
  32.8749207  49.5175604  88.3648614  32.9662194  31.0938784  88.4988073
  33.2721071  30.2336148  88.2113988  33.6914799  31.6856405  88.2987067
  19.2586550  41.4969471  86.8869671  19.0610950  40.9038832  86.1620738
  18.7033214  41.1921681  87.6045610  27.2383274  41.3892578  89.0064264
  27.2931884  40.4366414  88.9306741  26.4274476  41.5452017  89.4905563
  28.3874468  45.3172701  80.2442548  27.9493898  44.6008560  79.7848185
  29.1284909  45.5448815  79.6827639  25.1775634  40.0069637  86.7654643
  24.3643499  40.3063808  87.1719835  25.6734628  39.6125326  87.4829125
  27.3284212  50.0027394  88.6988908  27.2860390  50.2288241  87.7697440
  28.2446911  49.7690769  88.8474709  30.7749845  40.4711462  95.5969537
  31.1299233  40.6982935  96.4564003  31.4221977  40.8029839  94.9746792
  36.5047582  43.5929898  86.3018866  36.3665481  43.7831494  85.3740055
  36.1483801  44.3549280  86.7586917  24.6689709  37.5787993  92.3815878
  25.3089088  37.4376752  91.6838841  23.8367239  37.2922506  92.0054480
  36.5316962  45.6606425  91.3130138  36.9653469  45.5681714  92.1613192
  37.2448543  45.6363925  90.6750154  25.4450012  46.8790423  88.4950871
  26.2390611  46.3840743  88.2933446  24.7341705  46.3508286  88.1318576
  30.2644857  49.2608519  92.8463238  30.3181879  49.8299455  93.6140954
  29.3959638  49.4310404  92.4817275  21.7532776  41.0233505  84.5710623
  20.8230364  40.9617960  84.7880585  21.8490248  40.5009458  83.7747265
  21.6718325  37.5488318  87.1588865  21.9325142  38.4633651  87.0498025
  22.4935497  37.0812760  87.3085478  37.3932512  45.7030125  93.8463023
  37.5868402  46.6075936  94.0922298  37.2933130  45.2437544  94.6801608
  32.4547620  45.8536868  99.4203904  32.3033127  45.6247420  98.5033987
  32.4452300  46.8107469  99.4335249  29.2232957  43.4268781  94.4050170
  30.1525017  43.5779940  94.2319137  28.8023987  43.5152802  93.5498817
  28.0221288  47.4519445  92.1748708  27.8832374  47.0838230  93.0474646
  27.2335885  47.9667085  92.0032665  28.6169440  52.5528542  83.5174244
  28.7921196  52.0816585  84.3319867  27.9302228  53.1794308  83.7455505
  29.5726504  46.8301048  89.5637545  29.2376336  46.7901818  90.4595195
  29.0730449  46.1645764  89.0907956  32.5085695  44.1757082  79.8374605
  31.8914866  43.4503910  79.7407658  32.0402184  44.9366443  79.4941679
  26.1753048  41.9488637  94.5773806  26.8852667  41.3081829  94.5360425
  26.1322356  42.2001532  95.4999987  34.1639827  48.8855991  97.4980385
  34.1052373  48.2015211  96.8310968  34.5659345  49.6274981  97.0461011
  23.1830526  55.7017904  90.2914104  23.4227124  56.3336429  90.9693123
  22.3399722  55.3505944  90.5779464  24.2984241  38.3942507  78.9595909
  23.4213707  38.2731307  78.5958156  24.7741994  37.6028585  78.7074798
  34.1657234  46.8495575  95.7294365  33.2784013  46.5121496  95.8520764
  34.7355785  46.1178606  95.9663131  15.8186381  43.1819666  89.0537417
  16.5057421  42.8681396  88.4658432  15.6634510  44.0861031  88.7804668
  27.6958388  51.5097027  92.6955608  27.6228559  52.3151998  93.2074913
  27.2535781  51.7088993  91.8703630  27.4848167  50.7468797  86.2058430
  26.7015689  51.2890477  86.2996654  28.1840912  51.2642777  86.6052671
  30.7944817  36.5563426  88.8492635  31.2913517  35.8033389  88.5293706
  30.0231799  36.5927743  88.2835845  38.6474575  42.2603792  90.4910927
  38.6364451  43.1428507  90.1204860  37.7791954  41.9075343  90.2965464
  30.1557071  51.4083861  94.8513767  30.8685043  52.0431326  94.7789668
  29.6647100  51.5047727  94.0353769  31.8774598  45.3135114  86.4231059
  30.9430877  45.4336576  86.2535763  32.0551266  44.4107580  86.1591069
  27.3779786  38.6980809  88.5764320  27.0077574  38.1451850  89.2645225
  27.8738879  38.0938943  88.0239320  35.2647149  41.1552433  86.9581093
  35.7307602  41.9880424  86.8841395  35.7154650  40.6897414  87.6626351
  25.2068985  49.1578304  95.6719338  25.9078444  49.7914787  95.8248732
  24.7364100  49.4993036  94.9114977  33.3323380  47.4996254  83.9567245
  33.6083224  47.3852849  84.8661119  32.4627879  47.1013739  83.9179418
  33.2363812  33.5233020  90.9971994  32.3226892  33.7537247  91.1654201
  33.6656914  33.6071464  91.8486027  33.0070271  41.7122912  93.4971888
  32.3541721  41.9598819  92.8424341  33.3850650  40.8987050  93.1634365
  29.9677444  51.7482605  87.6000058  30.1499839  50.9304261  88.0627811
  30.7910430  51.9650297  87.1624948  30.3019610  50.6750790  84.8615107
  30.8307376  50.1643245  84.2485269  30.5647830  50.3593320  85.7260640
  20.8036703  48.6914659  92.6050441  21.3890140  47.9458347  92.7378345
  20.6061541  49.0018616  93.4887104  23.6575358  51.7265907  87.6212883
  22.9885733  52.2112034  87.1376923  23.5188228  51.9735127  88.5356261
  32.6491501  48.5870908 100.0744196  33.1931405  49.2000866  99.5799150
  32.0678346  49.1450486 100.5911209  19.0262935  39.9884362  84.4008815
  19.3216376  39.0795040  84.3475869  18.1250971  39.9672101  84.0789817
  30.9349014  51.7091626  91.2059223  30.8100153  50.9081366  90.6970169
  31.5928105  52.2037819  90.7173193  22.5557182  38.0640358  90.3836364
  21.8343768  38.6776326  90.2443837  23.3450438  38.5998123  90.3053010
  32.9983922  49.5100646  92.8338773  32.0514258  49.3905997  92.7617100
  33.3466695  48.6223144  92.9165035  20.7550777  37.6698459  84.5248140
  20.4263483  36.7895838  84.3423246  21.1090147  37.6146128  85.4124529
  30.0030355  49.3053362  89.0343126  29.8555318  48.3770070  89.2150696
  30.8283849  49.3273453  88.5500201  23.8692600  37.9571429  84.8923618
  24.2088672  38.4857350  84.1702226  24.3164720  38.2951835  85.6682184
  33.6064477  50.1281921  90.1207998  34.5311025  49.9224782  89.9832450
  33.4379781  49.8798322  91.0297340  25.8560747  36.4546051  83.0916911
  26.5769109  36.8327304  82.5880627  25.2326051  37.1734928  83.1951889
  29.9991870  37.1591200  84.0275243  30.2155484  38.0415838  83.7264071
  29.5185937  36.7677413  83.2980885  24.7391091  40.1176913  90.6045988
  24.5935672  40.4317216  91.4970269  24.2616295  40.7361813  90.0516886
  26.5987474  37.1079461  90.6526877  26.5849043  36.2120554  90.3159175
  27.3159902  37.1150125  91.2865163  28.4513605  37.5416801  92.6980005
  28.1931383  38.4633872  92.6964335  27.9198645  37.1447236  93.3880469
  33.3959794  50.6467588  85.4770090  33.5696671  50.0814011  84.7243942
  33.8888685  51.4468483  85.2949580  19.2136753  42.6582257  93.5433649
  18.6690221  43.4342065  93.6753923  20.0916103  43.0053062  93.3852770
  26.0024370  35.9893841  85.9214447  26.1240281  35.0610487  86.1205335
  25.7126412  36.0032527  85.0092763  28.8715560  33.6748752  89.0581167
  28.8937257  33.7388085  88.1033147  29.2883619  32.8353260  89.2521673
  39.2499185  43.4104011  87.0960390  39.6930331  42.6611336  86.6979513
  38.3725695  43.4014148  86.7134122  34.3834966  49.9634353  82.5766988
  35.0785871  50.5841045  82.7954303  34.7258116  49.1129704  82.8519366
  36.2826389  47.4134058  84.1054319  36.8077713  47.7521331  83.3803639
  36.1948742  46.4781074  83.9217454  27.9446438  51.3268132  96.2344196
  28.2533564  51.0817279  97.1066895  28.7421920  51.5314770  95.7463066
  27.9667050  53.4806042  88.4649572  27.5272040  52.9882420  89.1582429
  28.7175167  52.9379009  88.2241647  20.4459389  49.6717582  88.4674200
  21.2717409  49.3721354  88.0872844  20.0953441  48.9025205  88.9163989
  25.4140922  49.0244051  90.5371874  24.7920931  48.3614756  90.2374102
  26.0845789  49.0505183  89.8545522  18.6467994  47.5903909  89.4263134
  17.8099902  47.1626083  89.2447135  18.6191639  47.7836352  90.3633925
  35.9720295  48.0466962  99.4105517  35.1815839  48.0291101  98.8710016
  35.7353650  48.5855256 100.1654554  36.0918170  44.8959428  96.7238245
  36.1416175  44.7309436  97.6653768  35.9832094  44.0286687  96.3336126
  24.9754429  47.5747974  84.0130334  25.1242549  48.2583438  83.3597007
  25.7820872  47.5553064  84.5279790  37.5936367  47.3156370  96.9680267
  37.3021175  47.6786350  97.8043728  36.9808498  46.6023378  96.7893599
  38.7932049  44.8809250  89.4882837  39.6278941  45.3199054  89.6520398
  38.9291178  44.4047903  88.6691083  35.8423555  42.4388984  95.4360325
  36.3177677  42.6316631  94.6279176  34.9189121  42.4948170  95.1903709
  22.7307062  43.6013152  85.0191403  22.4853104  42.6975482  85.2171613
  22.9002976  43.6030302  84.0770881  22.0002709  39.3341509  82.5177565
  21.3071954  39.4085864  81.8617601  21.7554461  38.5701853  83.0399082
  30.6716366  30.8937111  89.9217056  30.9518120  30.2260300  90.5477482
  31.4566973  31.0866206  89.4091719  28.4749834  50.0696104  81.4842082
  27.9023802  50.6886292  81.0312554  29.0482628  50.6195466  82.0182004
  34.5425224  39.3154745  93.6688631  35.4942647  39.4152842  93.6900855
  34.3728675  38.5233013  94.1786715  32.5639604  36.4010328  93.8548032
  31.9689536  36.6815340  93.1594520  32.2789300  36.8904229  94.6264773
  31.6947094  50.3533255  82.6150664  32.6277767  50.2878816  82.8183540
  31.6070307  51.1889521  82.1565197  34.3235111  49.6699125  79.5754612
  34.2448742  49.3358989  80.4690370  35.1444778  50.1620893  79.5746084
  37.0213302  42.5360864  92.7830930  36.9889622  41.5976865  92.9690614
  37.6313926  42.6144901  92.0496755  28.8596633  41.4056917  78.8258134
  29.8055738  41.2763125  78.8946552  28.4810878  40.6671579  79.3027562
  37.1707791  39.3271908  92.8289213  36.6546839  38.5430364  92.6419142
  38.0547739  38.9990624  92.9935733  34.8318517  33.0712923  88.7885026
  34.6343339  32.7628011  89.6728358  35.4418223  33.7974562  88.9182956
  42.8389852  43.5976871  91.9236967  43.5693240  43.3362159  92.4844670
  42.2296797  42.8605593  91.9639035  40.9205149  41.7384734  92.5211418
  40.1938313  41.6040699  91.9127910  40.5052436  42.0461562  93.3268136
  27.0439550  39.3306894  78.7613020  26.1371006  39.0340006  78.8375733
  27.3215531  39.0336712  77.8947306  17.9617490  40.6513257  89.2112066
  17.6420275  39.7978565  88.9186440  17.4150919  40.8661835  89.9670033
  28.6601616  33.8743783  84.9157261  27.8502344  33.5290868  85.2912507
  29.3486033  33.5651327  85.5044872  30.5892164  32.9521830  86.5381557
  31.1423203  33.3717284  87.1971581  30.8262250  32.0257578  86.5804513
  25.8138335  36.1893829  78.9024999  26.6757499  36.5148727  79.1620816
  25.9988679  35.4025325  78.3898065  17.8305750  44.2716168  91.1805188
  17.1369222  43.8570121  90.6675142  18.5778741  44.3136705  90.5838606
  33.9670971  35.0622355  86.0460222  33.3869640  35.7207159  85.6638274
  33.7006904  34.2399700  85.6347639  32.4174538  34.4627413  88.2481542
  32.9174316  34.5743947  87.4395861  33.0610146  34.1588466  88.8882350
  19.7442493  44.2034422  89.0571202  19.7213181  44.3022110  88.1053085
  20.0543130  45.0499573  89.3788369  22.4029871  46.2610577  93.1717817
  23.3573124  46.2294520  93.1047748  22.2042394  45.8001201  93.9868043
  22.9929253  44.8311693  95.7388614  23.8122142  45.3255772  95.7623452
  23.2666061  43.9143661  95.7106182  32.7495849  37.2222446  85.1016570
  31.8621704  37.5072096  84.8836765  33.1649838  37.0616209  84.2543847
  36.1010385  37.2468967  88.8170909  36.8770775  37.7365419  89.0895526
  35.3758520  37.6727021  89.2742779  38.5382944  37.9596586  89.8744850
  39.1327435  37.7192322  89.1638158  38.6109528  37.2403716  90.5018386
  20.7580100  51.8030197  90.1888015  20.6234568  51.0430598  89.6226013
  20.3412162  52.5271097  89.7216804  31.8939063  46.9867120  79.1964590
  32.5974913  47.1917123  79.8122246  31.1701711  47.5543882  79.4613673
  32.7236873  42.7376982  85.3166860  32.6672074  43.1945533  84.4774493
  33.2765215  41.9767666  85.1389703  36.5341679  38.5266713  86.1416980
  36.2778613  38.1263349  86.9725187  35.9094547  39.2410507  86.0167119
  40.8454017  41.2662787  88.6488271  40.2853575  41.3355976  89.4219833
  40.2397520  41.0903771  87.9287767  23.9149226  52.6999514  90.4006457
  23.7981610  53.6444946  90.2985148  23.0941672  52.3973075  90.7892257
  33.8025760  47.4249649  81.2463050  34.6371364  46.9930848  81.0640525
  33.6410103  47.2531663  82.1739944  33.4571652  43.9281763  82.6119389
  33.4020456  43.7626034  81.6707833  32.8317708  44.6357796  82.7681579
  26.7667778  33.4289872  82.1904708  26.7546448  34.3731712  82.3472979
  27.6591200  33.2460017  81.8964169  24.9403740  53.3527776  93.6162386
  25.8430986  53.3851386  93.9328881  24.7141110  52.4228227  93.6308722
  26.6957342  52.1058762  90.2772464  25.7452973  52.1060624  90.1636837
  26.9989828  51.3591497  89.7608499  30.5819897  30.0232648  86.4450645
  29.8152293  29.4691135  86.5907327  30.9930602  30.0954517  87.3064796
  42.4310035  57.9419301  91.3418227  43.0688445  57.8226048  90.6381567
  42.3130878  58.8900145  91.4006179  39.2399741  57.8946729  91.2779751
  38.9018253  57.7787793  90.3900286  40.1089510  57.4937894  91.2580758
  35.0986557  59.7482205  87.2676642  34.5351422  59.6572142  86.4992930
  34.9838952  58.9282110  87.7479135  39.7219524  59.0481580  97.2365957
  39.7108165  58.6534379  96.3646461  39.8840164  58.3147653  97.8299728
  32.6450989  61.2433397  90.1060863  33.4372281  60.9024221  89.6907162
  32.8847639  61.3528372  91.0263016  36.4426786  61.8318692  96.1845141
  36.1516652  62.7364323  96.0691807  37.0783770  61.8735220  96.8989211
  37.3682992  59.2095541  92.7746501  37.9646565  58.9851563  92.0603464
  37.4257964  58.4680286  93.3771948  41.9851304  55.6670754  88.4171435
  42.7714393  55.2490178  88.0661852  42.2490008  56.5716847  88.5853083
  47.3859731  55.6045988  89.3204413  48.1184903  55.0345204  89.5542243
  46.6299087  55.2167588  89.7610919  36.6604310  58.5663082  82.8121067
  36.5440568  57.8907985  83.4802151  36.7706569  58.0795456  81.9953220
  39.0035851  58.0273229  86.5167756  38.6394058  57.5003850  87.2280677
  39.8602966  57.6371698  86.3434241  44.9085151  49.3167562  93.7799022
  44.5768476  50.1862973  93.5560237  44.3130765  49.0003846  94.4593052
  38.6441338  53.0563129  81.5129104  38.8115740  53.9243365  81.8799575
  38.4538507  53.2190411  80.5890394  41.4016671  61.5180108  93.1794935
  41.1017394  62.4205147  93.0710742  41.0567730  61.2512291  94.0316088
  34.8529152  57.9693905  89.2131639  33.9279649  57.8370119  89.4209331
  35.1013565  58.7488124  89.7101581  44.8013814  54.0362648  90.8592372
  43.8930692  53.9678056  90.5651133  44.7501410  54.5134593  91.6874197
  38.6230558  55.5120786  82.4975771  38.5030184  55.9577837  83.3361251
  37.9283147  55.8606104  81.9389309  32.2137963  57.6127178  90.0475428
  32.3430344  57.8661657  90.9614840  31.5335415  58.2054886  89.7280083
  36.3837450  68.2824428  86.1465902  36.3061480  69.2332253  86.2254383
  35.7799094  67.9370301  86.8040829  38.8754680  55.4552294  98.8027269
  38.0988014  56.0146214  98.7930134  39.5145243  55.9409077  99.3242139
  46.6675461  52.2379086  92.6370246  46.0249841  52.5311620  91.9910040
  46.1630389  52.1232007  93.4423443  44.3215625  55.9842260  83.3256105
  45.2333481  56.2169646  83.1503803  43.8125272  56.5679304  82.7631184
  37.1301053  58.2637747  98.3645236  37.8715737  58.8022791  98.0880060
  36.4238038  58.8904036  98.5216788  42.6056392  60.4066887  96.9617398
  43.0139748  59.9649298  96.2172030  41.8833654  59.8319515  97.2151591
  38.9587462  55.3439494  94.3350955  39.8048657  55.7678908  94.4785604
  38.8986100  54.6873118  95.0289518  42.9285207  60.9668078  90.7169687
  42.2994069  61.1313792  90.0145754  42.5410869  61.3809688  91.4880651
  46.8074439  61.9022516  88.0714050  46.1225477  62.2821417  87.5211084
  46.8918288  62.5117842  88.8045998  42.1086908  53.0043862  95.9932128
  41.8647839  53.7585923  95.4566404  42.3846838  53.3829210  96.8279375
  44.0625370  59.5482475  94.6709394  44.2742266  60.1914235  93.9943775
  44.0155119  58.7144791  94.2031324  41.6651599  52.1600296  91.5745966
  40.8036078  52.4581549  91.8662704  41.6914034  52.3770694  90.6426999
  38.4813169  60.7042486  87.9819772  38.9451514  60.9830189  87.1924394
  38.2169967  59.8025931  87.7992862  37.4182055  56.8265638  84.7909337
  38.1206098  57.2786682  85.2583263  37.0862683  56.1849457  85.4189230
  35.8662416  55.4177395  99.1660546  35.2361077  56.0993676  99.3995943
  35.7598504  55.3060477  98.2213685  31.1607389  55.0849191  90.0926470
  30.3706443  55.3406720  89.6166581  31.6518636  55.8997529  90.1978511
  45.1771198  62.4254430  92.8431751  45.9988642  62.0234618  92.5614433
  45.1733601  62.3222664  93.7947867  33.1122134  55.4493770  87.0509947
  32.3153297  55.5612465  87.5693443  32.8847726  55.7880423  86.1850838
  38.9427802  61.9738474  94.9992462  39.0072234  62.4358881  95.8350634
  38.2338726  61.3435838  95.1274772  29.4445092  55.3379682  92.5241461
  29.6953130  56.2226691  92.7899037  29.9804640  55.1584283  91.7516553
  53.2677191  58.7693179  89.1916723  52.5140900  58.2000577  89.0360727
  53.4024733  58.7355843  90.1387357  35.1443159  49.7198161 101.5285797
  34.7510105  49.1664359 102.2033442  35.9609299  50.0308739 101.9192315
  33.9200101  64.2747775  87.5222120  34.0966730  65.1965740  87.3343104
  34.7156935  63.9606195  87.9516500  38.0611120  51.1356040  99.1206054
  38.8020833  51.7363193  99.0410516  38.2929043  50.3933678  98.5624096
  33.2052458  56.3212407  97.3984284  33.0905973  55.4197665  97.6991382
  32.3496976  56.5676104  97.0469100  40.2844296  64.2630148  98.9971784
  39.8408150  63.4766526  98.6792689  40.9461509  64.4509298  98.3315675
  35.0431417  65.7925949  93.5232463  35.5938842  65.6643013  92.7509457
  34.2042893  66.0920838  93.1727355  42.3825534  64.5432948  97.0253185
  42.3644009  65.3641829  96.5333455  43.3045454  64.4187023  97.2503327
  38.8398588  62.0577077  97.8676694  39.3726925  61.2965365  97.6376002
  38.3112669  61.7650729  98.6100848  42.0068283  47.1637143  93.3970336
  41.6632552  48.0538785  93.3209446  42.3747246  46.9738801  92.5339921
  30.0754134  59.4870673  86.2158938  30.9129356  59.8967682  85.9992645
  30.2532401  58.5470116  86.1859132  41.9718566  57.1545754  81.9042771
  41.4565189  57.9250359  82.1431158  41.6995874  56.4810890  82.5275832
  39.5565677  51.9995455  86.9628009  38.7007273  51.6102305  86.7833648
  39.9692628  52.0787416  86.1027795  41.0864823  49.5341798  91.3619569
  40.5829619  49.4971933  90.5487374  41.3795430  50.4434541  91.4216225
  37.3307709  49.6180528  90.3685751  38.1960706  49.4223337  90.0091640
  37.3985218  49.3890880  91.2955107  46.9452840  59.9078109  83.8395944
  46.1682283  59.5689268  83.3951106  47.6244321  59.9130732  83.1650909
  41.7604869  55.0272846  83.7302552  41.4555004  55.3418995  84.5812695
  42.7135311  55.1054266  83.7729885  45.1844147  59.3812090  90.4962552
  44.5267821  60.0711351  90.5842681  45.9884546  59.7708522  90.8396538
  34.9370028  51.8482736  87.7402117  35.5113780  51.6257917  87.0075310
  35.5241011  51.9171430  88.4930719  43.9949606  57.7356463  88.5466494
  44.5081487  58.3686454  89.0488204  44.6450829  57.1357658  88.1809854
  35.2639615  53.8787197  81.7598003  34.4276928  54.2161883  82.0807277
  35.1244385  53.7436177  80.8225140  37.2392696  48.7223985  86.4677187
  36.5857108  48.4073002  85.8433802  37.1973170  48.0999725  87.1937010
  40.4730436  55.2105918  90.7924834  39.5552998  55.4320865  90.6346522
  40.8890580  55.2852229  89.9336542  41.2565484  56.6097334  85.9227515
  42.0037303  57.1218731  85.6134637  41.5257074  56.2881387  86.7831908
  43.7044321  53.6454450  87.9046304  42.9667078  53.1331836  88.2356547
  43.9571095  53.2054832  87.0929581  43.8055949  46.4230702  88.4988073
  44.1114825  45.5628066  88.2113988  44.5308553  47.0148322  88.2987067
  30.0980305  56.8261389  86.8869671  29.9004705  56.2330749  86.1620738
  29.5426969  56.5213599  87.6045610  38.0777028  56.7184495  89.0064264
  38.1325638  55.7658332  88.9306741  37.2668230  56.8743934  89.4905563
  36.0169388  55.3361555  86.7654643  35.2037254  55.6355725  87.1719835
  36.5128382  54.9417244  87.4829125  38.1677966  65.3319312  88.6988908
  38.1254145  65.5580158  87.7697440  39.0840665  65.0982686  88.8474709
  41.6143600  55.8003379  95.5969537  41.9692988  56.0274853  96.4564003
  42.2615731  56.1321756  94.9746792  47.3441337  58.9221815  86.3018866
  47.2059236  59.1123411  85.3740055  46.9877556  59.6841198  86.7586917
  35.5083463  52.9079910  92.3815878  36.1482842  52.7668670  91.6838841
  34.6760994  52.6214424  92.0054480  47.3710717  60.9898342  91.3130138
  47.8047223  60.8973631  92.1613192  48.0842297  60.9655843  90.6750154
  36.2843767  62.2082341  88.4950871  37.0784365  61.7132661  88.2933446
  35.5735459  61.6800204  88.1318576  41.1038611  64.5900436  92.8463238
  41.1575634  65.1591373  93.6140954  40.2353393  64.7602321  92.4817275
  32.5926530  56.3525423  84.5710623  31.6624119  56.2909878  84.7880585
  32.6884002  55.8301375  83.7747265  32.5112079  52.8780235  87.1588865
  32.7718897  53.7925569  87.0498025  33.3329252  52.4104678  87.3085478
  33.9837005  54.2917993  94.3287689  34.6560058  54.0835355  93.6800338
  33.1566791  54.0940079  93.8892922  48.2326266  61.0322043  93.8463023
  48.4262156  61.9367853  94.0922298  48.1326884  60.5729462  94.6801608
  39.8862577  50.9179934  96.3453350  39.2390492  51.6169883  96.2517827
  40.6563592  51.3516077  96.7129599  43.2941375  61.1828786  99.4203904
  43.1426881  60.9539337  98.5033987  43.2846054  62.1399387  99.4335249
  40.0626711  58.7560698  94.4050170  40.9918771  58.9071858  94.2319137
  39.6417741  58.8444719  93.5498817  38.8615043  62.7811363  92.1748708
  38.7226129  62.4130147  93.0474646  38.0729639  63.2959002  92.0032665
  40.4120258  62.1592966  89.5637545  40.0770091  62.1193736  90.4595195
  39.9124204  61.4937681  89.0907956  34.3864502  57.5660596  95.0890127
  34.2484300  56.8340834  95.6901666  35.2969426  57.4769496  94.8074314
  37.0146803  57.2780555  94.5773806  37.7246421  56.6373747  94.5360425
  36.9716111  57.5293450  95.4999987  45.0033581  64.2147908  97.4980385
  44.9446128  63.5307128  96.8310968  45.4053100  64.9566898  97.0461011
  35.7275737  54.2645773  96.3969446  35.1913094  53.8136511  97.0491042
  35.1392445  54.3991682  95.6539910  34.0224280  71.0309822  90.2914104
  34.2620878  71.6628346  90.9693123  33.1793477  70.6797862  90.5779464
  35.1377996  53.7234424  78.9595909  34.2607462  53.6023225  78.5958156
  35.6135749  52.9320503  78.7074798  45.0050989  62.1787492  95.7294365
  44.1177767  61.8413414  95.8520764  45.5749540  61.4470523  95.9663131
  26.6580136  58.5111584  89.0537417  27.3451176  58.1973314  88.4658432
  26.5028264  59.4152949  88.7804668  38.5352142  66.8388945  92.6955608
  38.4622314  67.6443916  93.2074913  38.0929535  67.0380910  91.8703630
  41.6338572  51.8855344  88.8492635  42.1307271  51.1325306  88.5293706
  40.8625553  51.9219661  88.2835845  49.4868329  57.5895710  90.4910927
  49.4758205  58.4720425  90.1204860  48.6185709  57.2367260  90.2965464
  40.9950826  66.7375779  94.8513767  41.7078798  67.3723243  94.7789668
  40.5040854  66.8339645  94.0353769  38.2173541  54.0272727  88.5764320
  37.8471328  53.4743767  89.2645225  38.7132633  53.4230861  88.0239320
  46.1040904  56.4844351  86.9581093  46.5701356  57.3172342  86.8841395
  46.5548404  56.0189332  87.6626351  36.0462739  64.4870222  95.6719338
  36.7472199  65.1206705  95.8248732  35.5757854  64.8284954  94.9114977
  44.0757567  48.8524938  90.9971994  43.1620646  49.0829164  91.1654201
  44.5050668  48.9363382  91.8486027  43.8464025  57.0414829  93.4971888
  43.1935475  57.2890737  92.8424341  44.2244405  56.2278968  93.1634365
  39.8951598  57.7834641  99.9837925  39.2192235  57.6828770 100.6540300
  40.7179232  57.6273854 100.4473922  31.6430457  64.0206577  92.6050441
  32.2283894  63.2750265  92.7378345  31.4455296  64.3310534  93.4887104
  34.4969112  67.0557824  87.6212883  33.8279488  67.5403952  87.1376923
  34.3581982  67.3027045  88.5356261  26.2348112  56.5912177  91.3254884
  26.2732211  56.0575768  92.1192002  25.7288405  56.0647383  90.7065861
  38.6374381  69.0901568  94.2195541  39.1892689  69.2533190  94.9844626
  38.9780574  69.6806006  93.5475566  33.6138874  51.4376718  94.8217426
  33.6780201  52.2991549  94.4094824  33.5505994  50.8250719  94.0889784
  33.0891147  53.5099850  98.4690460  33.7163186  53.1276928  99.0827985
  32.2319066  53.2914052  98.8346153  43.4885255  63.9162826 100.0744196
  44.0325159  64.5292784  99.5799150  42.9072100  64.4742404 100.5911209
  29.8656690  55.3176279  84.4008815  30.1610131  54.4086958  84.3475869
  28.9644725  55.2964019  84.0789817  41.7742768  67.0383544  91.2059223
  41.6493908  66.2373283  90.6970169  42.4321859  67.5329737  90.7173193
  33.3950937  53.3932276  90.3836364  32.6737522  54.0068244  90.2443837
  34.1844192  53.9290041  90.3053010  43.8377677  64.8392564  92.8338773
  42.8908012  64.7197915  92.7617100  44.1860450  63.9515062  92.9165035
  36.1977250  50.7286703  96.6577015  36.7211652  50.9748999  97.4203325
  35.9789583  51.5606737  96.2380153  31.5944531  52.9990377  84.5248140
  31.2657237  52.1187756  84.3423246  31.9483902  52.9438046  85.4124529
  34.7086354  53.2863347  84.8923618  35.0482427  53.8149268  84.1702226
  35.1558475  53.6243753  85.6682184  44.4458232  65.4573839  90.1207998
  45.3704779  65.2516700  89.9832450  44.2773535  65.2090240  91.0297340
  37.4029795  51.6700398  94.3426686  37.0626615  50.8708211  94.7447366
  36.6968801  51.9702108  93.7703519  38.0546267  48.7549710  92.7954009
  38.8772336  48.2810188  92.6732899  38.2984330  49.5340194  93.2952695
  36.6954501  51.7837969  83.0916911  37.4162864  52.1619221  82.5880627
  36.0719806  52.5026845  83.1951889  40.8385624  52.4883117  84.0275243
  41.0549239  53.3707755  83.7264071  40.3579691  52.0969331  83.2980885
  35.5784846  55.4468831  90.6045988  35.4329426  55.7609134  91.4970269
  35.1010049  56.0653731  90.0516886  37.4381229  52.4371379  90.6526877
  37.4242797  51.5412472  90.3159175  38.1553657  52.4442042  91.2865163
  39.2907359  52.8708719  92.6980005  39.0325137  53.7925790  92.6964335
  38.7592400  52.4739153  93.3880469  30.0530508  57.9874175  93.5433649
  29.5083976  58.7633983  93.6753923  30.9309858  58.3344980  93.3852770
  36.8418124  51.3185759  85.9214447  36.9634036  50.3902405  86.1205335
  36.5520167  51.3324445  85.0092763  39.7109315  49.0040669  89.0581167
  39.7331012  49.0680002  88.1033147  40.1277374  48.1645178  89.2521673
  50.0892939  58.7395929  87.0960390  50.5324085  57.9903254  86.6979513
  49.2119449  58.7306065  86.7134122  30.8396530  57.1144071  96.4363806
  30.0978266  57.2626707  97.0228436  30.5189274  57.3752337  95.5730555
  38.7840192  66.6560050  96.2344196  39.0927319  66.4109196  97.1066895
  39.5815674  66.8606688  95.7463066  38.8060804  68.8097959  88.4649572
  38.3665795  68.3174338  89.1582429  39.5568921  68.2670927  88.2241647
  31.2853143  65.0009500  88.4674200  32.1111163  64.7013272  88.0872844
  30.9347195  64.2317123  88.9163989  36.2534677  64.3535968  90.5371874
  35.6314686  63.6906673  90.2374102  36.9239543  64.3797100  89.8545522
  29.4861748  62.9195827  89.4263134  28.6493657  62.4918001  89.2447135
  29.4585394  63.1128270  90.3633925  36.3259204  52.8317756 100.1304380
  36.3747359  53.7079879  99.7482149  36.8681718  52.2895149  99.5576023
  46.8114050  63.3758880  99.4105517  46.0209593  63.3583018  98.8710016
  46.5747404  63.9147173 100.1654554  46.9311925  60.2251346  96.7238245
  46.9809930  60.0601353  97.6653768  46.8225848  59.3578605  96.3336126
  35.8148183  62.9039892  84.0130334  35.9636304  63.5875356  83.3597007
  36.6214627  62.8844982  84.5279790  44.2215687  56.2082274  98.0397552
  45.1225550  56.0688739  97.7481550  44.2963662  56.3736729  98.9795730
  38.5558492  53.5849129  96.8850739  37.6861802  53.8782695  96.6133327
  38.7917973  54.1689574  97.6058002  48.4330122  62.6448287  96.9680267
  48.1414930  63.0078268  97.8043728  47.8202253  61.9315296  96.7893599
  49.6325804  60.2101167  89.4882837  50.4672695  60.6490971  89.6520398
  49.7684933  59.7339820  88.6691083  46.6817310  57.7680902  95.4360325
  47.1571431  57.9608548  94.6279176  45.7582875  57.8240088  95.1903709
  41.2597526  49.8028746  94.4016159  41.7779470  50.5389773  94.0762647
  40.9052659  50.1092739  95.2362918  32.8396464  54.6633427  82.5177565
  32.1465709  54.7377782  81.8617601  32.5948216  53.8993770  83.0399082
  41.5110120  46.2229028  89.9217056  41.7911874  45.5552217  90.5477482
  42.2960727  46.4158124  89.4091719  45.3818979  54.6446662  93.6688631
  46.3336402  54.7444760  93.6900855  45.2122429  53.8524931  94.1786715
  43.4033358  51.7302245  93.8548032  42.8083290  52.0107258  93.1594520
  43.1183055  52.2196146  94.6264773  47.8607057  57.8652782  92.7830930
  47.8283377  56.9268783  92.9690614  48.4707680  57.9436819  92.0496755
  48.0101545  54.6563825  92.8289213  47.4940594  53.8722282  92.6419142
  48.8941494  54.3282542  92.9935733  45.6712272  48.4004841  88.7885026
  45.4737093  48.0919929  89.6728358  46.2811978  49.1266480  88.9182956
  53.6783606  58.9268789  91.9236967  54.4086995  58.6654077  92.4844670
  53.0690552  58.1897511  91.9639035  51.7598904  57.0676651  92.5211418
  51.0332067  56.9332616  91.9127910  51.3446190  57.3753480  93.3268136
  39.5829080  60.7866581 100.2858791  40.5032089  60.9645180 100.4798838
  39.5478663  59.8422626 100.1338491  28.8011245  55.9805175  89.2112066
  28.4814029  55.1270483  88.9186440  28.2544673  56.1953753  89.9670033
  32.5791153  58.6967616  92.9281572  32.7977162  59.6284723  92.9469606
  32.9916926  58.3375590  93.7136376  39.4995370  49.2035701  84.9157261
  38.6896099  48.8582786  85.2912507  40.1879787  48.8943245  85.5044872
  41.4285919  48.2813748  86.5381557  41.9816957  48.7009201  87.1971581
  41.6656005  47.3549496  86.5804513  37.4519018  54.2700821 102.3184321
  37.3515745  55.2195178 102.2496412  37.2340560  53.9419060 101.4460391
  36.6532089  51.5185746  78.9024999  37.5151253  51.8440645  79.1620816
  36.8382433  50.7317242  78.3898065  28.6699505  59.6008086  91.1805188
  27.9762976  59.1862039  90.6675142  29.4172496  59.6428623  90.5838606
  44.8064726  50.3914273  86.0460222  44.2263395  51.0499077  85.6638274
  44.5400658  49.5691618  85.6347639  43.2568292  49.7919331  88.2481542
  43.7568070  49.9035865  87.4395861  43.9003900  49.4880383  88.8882350
  37.3150288  57.6997960 101.1349383  36.8317370  58.4998320 101.3413272
  37.4011227  57.7105905 100.1816827  30.5836248  59.5326340  89.0571202
  30.5606936  59.6314027  88.1053085  30.8936884  60.3791491  89.3788369
  33.2423625  61.5902495  93.1717817  34.1966879  61.5586437  93.1047748
  33.0436149  61.1293119  93.9868043  33.8323008  60.1603611  95.7388614
  34.6515897  60.6547690  95.7623452  34.1059815  59.2435579  95.7106182
  43.5889604  52.5514363  85.1016570  42.7015459  52.8364014  84.8836765
  44.0043593  52.3908127  84.2543847  46.9404140  52.5760884  88.8170909
  47.7164530  53.0657337  89.0895526  46.2152274  53.0018938  89.2742779
  49.3776698  53.2888504  89.8744850  49.9721189  53.0484239  89.1638158
  49.4503282  52.5695634  90.5018386  31.5973854  67.1322114  90.1888015
  31.4628322  66.3722515  89.6226013  31.1805916  67.8563014  89.7216804
  43.5630627  58.0668899  85.3166860  43.5065829  58.5237451  84.4774493
  44.1158970  57.3059584  85.1389703  47.3735433  53.8558631  86.1416980
  47.1172368  53.4555267  86.9725187  46.7488301  54.5702425  86.0167119
  51.6847771  56.5954704  88.6488271  51.1247329  56.6647894  89.4219833
  51.0791275  56.4195689  87.9287767  34.7542980  68.0291431  90.4006457
  34.6375364  68.9736864  90.2985148  33.9335426  67.7264993  90.7892257
  29.0857922  54.4941745  96.4380812  29.7316785  53.9840699  96.9268037
  28.8775073  55.2310427  97.0124237  41.6111314  61.5622592 101.9372952
  42.4802474  61.7363245 101.5759587  41.1318065  62.3817009 101.8148681
  37.6061532  48.7581789  82.1904708  37.5940202  49.7023629  82.3472979
  38.4984954  48.5751935  81.8964169  35.7797494  68.6819693  93.6162386
  36.6824741  68.7143304  93.9328881  35.5534864  67.7520144  93.6308722
  37.5351096  67.4350680  90.2772464  36.5846727  67.4352542  90.1636837
  37.8383582  66.6883414  89.7608499  41.4213652  45.3524566  86.4450645
  40.6546047  44.7983053  86.5907327  41.8324357  45.4246435  87.3064796
  33.4255413  51.6409362 100.5355826  34.2886874  51.2846167 100.7459150
  32.8520823  51.3023257 101.2231230  53.2703790  73.2711218  91.3418227
  53.9082200  73.1517966  90.6381567  53.1524633  74.2192062  91.4006179
  50.0793496  73.2238646  91.2779751  49.7412007  73.1079711  90.3900286
  50.9483264  72.8229811  91.2580758  45.9380312  75.0774123  87.2676642
  45.3745177  74.9864060  86.4992930  45.8232707  74.2574027  87.7479135
  43.4844744  76.5725314  90.1060863  44.2766036  76.2316139  89.6907162
  43.7241394  76.6820289  91.0263016  51.5179870  78.7445091  82.5791107
  50.8667850  79.3299171  82.1925121  52.3124233  79.2751285  82.6386145
  48.2076747  74.5387458  92.7746501  48.8040319  74.3143481  92.0603464
  48.2651718  73.7972204  93.3771948  52.8245058  70.9962672  88.4171435
  53.6108147  70.5782095  88.0661852  53.0883762  71.9008764  88.5853083
  52.9955136  76.4335522  83.1160092  52.3600969  76.5070149  83.8280996
  52.6652542  77.0229121  82.4379171  58.2253485  70.9337905  89.3204413
  58.9578657  70.3637122  89.5542243  57.4692841  70.5459506  89.7610919
  47.4998064  73.8955000  82.8121067  47.3834322  73.2199903  83.4802151
  47.6100324  73.4087374  81.9953220  49.8429605  73.3565147  86.5167756
  49.4787812  72.8295768  87.2280677  50.6996721  72.9663616  86.3434241
  55.7478906  64.6459479  93.7799022  55.4162230  65.5154890  93.5560237
  55.1524519  64.3295763  94.4593052  45.6922907  73.2985822  89.2131639
  44.7673403  73.1662036  89.4209331  45.9407320  74.0780042  89.7101581
  55.6407569  69.3654566  90.8592372  54.7324446  69.2969974  90.5651133
  55.5895165  69.8426511  91.6874197  49.4624313  70.8412704  82.4975771
  49.3423938  71.2869755  83.3361251  48.7676901  71.1898022  81.9389309
  43.0531718  72.9419096  90.0475428  43.1824099  73.1953575  90.9614840
  42.3729169  73.5346804  89.7280083  47.2231205  83.6116346  86.1465902
  47.1455235  84.5624171  86.2254383  46.6192849  83.2662218  86.8040829
  57.5069215  67.5671004  92.6370246  56.8643596  67.8603537  91.9910040
  57.0024144  67.4523924  93.4423443  55.1609379  71.3134177  83.3256105
  56.0727235  71.5461564  83.1503803  54.6519026  71.8971221  82.7631184
  47.9694807  73.5929665  98.3645236  48.7109491  74.1314709  98.0880060
  47.2631793  74.2195953  98.5216788  49.7981217  70.6731412  94.3350955
  50.6442412  71.0970825  94.4785604  49.7379854  70.0165036  95.0289518
  53.7678961  76.2959996  90.7169687  53.1387824  76.4605710  90.0145754
  53.3804623  76.7101605  91.4880651  57.6468193  77.2314434  88.0714050
  56.9619231  77.6113335  87.5211084  57.7312043  77.8409760  88.8045998
  52.9480662  68.3335780  95.9932128  52.7041594  69.0877841  95.4566404
  53.2240593  68.7121128  96.8279375  54.9019125  74.8774393  94.6709394
  55.1136020  75.5206152  93.9943775  54.8548873  74.0436709  94.2031324
  52.5045354  67.4892213  91.5745966  51.6429833  67.7873467  91.8662704
  52.5307788  67.7062612  90.6426999  49.3206923  76.0334404  87.9819772
  49.7845269  76.3122107  87.1924394  49.0563721  75.1317848  87.7992862
  46.2131004  75.5805885  90.9199535  46.7832361  76.0093154  90.2817019
  46.8039116  75.2988470  91.6183721  48.2575809  72.1557556  84.7909337
  48.9599853  72.6078600  85.2583263  47.9256438  71.5141375  85.4189230
  46.7056171  70.7469313  99.1660546  46.0754831  71.4285594  99.3995943
  46.5992259  70.6352394  98.2213685  42.0001143  70.4141109  90.0926470
  41.2100197  70.6698637  89.6166581  42.4912391  71.2289447  90.1978511
  43.9515889  70.7785688  87.0509947  43.1547052  70.8904382  87.5693443
  43.7241481  71.1172340  86.1850838  40.2838846  70.6671599  92.5241461
  40.5346885  71.5518609  92.7899037  40.8198395  70.4876201  91.7516553
  64.1070946  74.0985096  89.1916723  63.3534654  73.5292495  89.0360727
  64.2418487  74.0647761  90.1387357  49.4969574  78.9698499  84.8671442
  49.3615249  79.8150034  85.2956290  50.0379386  79.1717776  84.1037376
  45.9836914  65.0490079 101.5285797  45.5903859  64.4956277 102.2033442
  46.8003054  65.3600657 101.9192315  44.7593856  79.6039693  87.5222120
  44.9360484  80.5257658  87.3343104  45.5550690  79.2898112  87.9516500
  48.9004875  66.4647958  99.1206054  49.6414588  67.0655111  99.0410516
  49.1322797  65.7225595  98.5624096  44.0446213  71.6504325  97.3984284
  43.9299728  70.7489582  97.6991382  43.1890730  71.8968022  97.0469100
  45.8825171  81.1217867  93.5232463  46.4332597  80.9934930  92.7509457
  45.0436647  81.4212756  93.1727355  52.8462037  62.4929061  93.3970336
  52.5026307  63.3830702  93.3209446  53.2141000  62.3030718  92.5339921
  52.8112320  72.4837672  81.9042771  52.2958944  73.2542276  82.1431158
  52.5389629  71.8102808  82.5275832  50.3959431  67.3287373  86.9628009
  49.5401028  66.9394223  86.7833648  50.8086383  67.4079333  86.1027795
  51.9258578  64.8633716  91.3619569  51.4223373  64.8263851  90.5487374
  52.2189185  65.7726458  91.4216225  48.1701464  64.9472445  90.3685751
  49.0354461  64.7515254  90.0091640  48.2378973  64.7182797  91.2955107
  57.7846594  75.2370026  83.8395944  57.0076037  74.8981186  83.3951106
  58.4638075  75.2422650  83.1650909  52.5998623  70.3564764  83.7302552
  52.2948759  70.6710913  84.5812695  53.5529065  70.4346184  83.7729885
  51.0445055  76.5154987  85.3795506  50.5166417  75.7807747  85.0668743
  50.5432558  77.2929663  85.1335474  56.0237901  74.7104008  90.4962552
  55.3661576  75.4003269  90.5842681  56.8278300  75.1000440  90.8396538
  45.7763783  67.1774653  87.7402117  46.3507535  66.9549835  87.0075310
  46.3634765  67.2463348  88.4930719  54.8343360  73.0648380  88.5466494
  55.3475242  73.6978372  89.0488204  55.4844584  72.4649576  88.1809854
  48.0786451  64.0515902  86.4677187  47.4250863  63.7364919  85.8433802
  48.0366925  63.4291643  87.1937010  52.0965734  83.0432705  81.3027165
  51.4227433  83.3464401  81.9112123  52.4831556  83.8461785  80.9532622
  51.3124191  70.5397836  90.7924834  50.3946752  70.7612783  90.6346522
  51.7284335  70.6144146  89.9336542  52.0959239  71.9389252  85.9227515
  52.8431058  72.4510649  85.6134637  52.3650828  71.6173304  86.7831908
  50.3685889  74.4347792  82.9054469  49.4597108  74.1506825  83.0026939
  50.3980973  74.8546871  82.0457776  55.6005156  78.0454382  86.6745637
  55.1467483  77.2045292  86.7310827  54.9699123  78.6815780  87.0120417
  54.5438076  68.9746368  87.9046304  53.8060833  68.4623754  88.2356547
  54.7964849  68.5346749  87.0929581  54.0438095  79.8830878  87.6095455
  54.3361070  80.4435936  86.8907820  54.5536716  80.1759439  88.3648614
  54.6449703  61.7522620  88.4988073  54.9508580  60.8919983  88.2113988
  55.3702308  62.3440240  88.2987067  40.9374059  72.1553306  86.8869671
  40.7398459  71.5622667  86.1620738  40.3820723  71.8505517  87.6045610
  48.9170783  72.0476413  89.0064264  48.9719393  71.0950249  88.9306741
  48.1061985  72.2035852  89.4905563  46.8563143  70.6653473  86.7654643
  46.0431008  70.9647643  87.1719835  47.3522137  70.2709161  87.4829125
  49.0071721  80.6611230  88.6988908  48.9647899  80.8872076  87.7697440
  49.9234420  80.4274604  88.8474709  52.4537354  71.1295297  95.5969537
  52.8086742  71.3566770  96.4564003  53.1009486  71.4613674  94.9746792
  58.1835091  74.2513733  86.3018866  58.0452990  74.4415329  85.3740055
  57.8271310  75.0133116  86.7586917  46.3477218  68.2371828  92.3815878
  46.9876597  68.0960587  91.6838841  45.5154748  67.9506342  92.0054480
  58.2104471  76.3190260  91.3130138  58.6440978  76.2265549  92.1613192
  58.9236052  76.2947760  90.6750154  47.1237521  77.5374259  88.4950871
  47.9178120  77.0424579  88.2933446  46.4129214  77.0092122  88.1318576
  43.4320285  71.6817340  84.5710623  42.5017873  71.6201796  84.7880585
  43.5277757  71.1593293  83.7747265  44.8230759  69.6209910  94.3287689
  45.4953813  69.4127272  93.6800338  43.9960546  69.4231996  93.8892922
  50.7256331  66.2471851  96.3453350  50.0784246  66.9461801  96.2517827
  51.4957347  66.6807995  96.7129599  50.9020466  74.0852616  94.4050170
  51.8312526  74.2363776  94.2319137  50.4811496  74.1736637  93.5498817
  49.7008797  78.1103281  92.1748708  49.5619883  77.7422065  93.0474646
  48.9123394  78.6250920  92.0032665  50.2956949  83.2112377  83.5174244
  50.4708705  82.7400420  84.3319867  49.6089737  83.8378143  83.7455505
  51.2514013  77.4884883  89.5637545  50.9163845  77.4485653  90.4595195
  50.7517958  76.8229599  89.0907956  45.2258257  72.8952513  95.0890127
  45.0878054  72.1632752  95.6901666  46.1363180  72.8061413  94.8074314
  54.1873204  74.8340918  79.8374605  53.5702375  74.1087746  79.7407658
  53.7189693  75.5950278  79.4941679  47.8540557  72.6072473  94.5773806
  48.5640176  71.9665665  94.5360425  47.8109865  72.8585367  95.4999987
  46.5669491  69.5937690  96.3969446  46.0306848  69.1428429  97.0491042
  45.9786200  69.7283599  95.6539910  44.8618035  86.3601740  90.2914104
  45.1014633  86.9920264  90.9693123  44.0187231  86.0089780  90.5779464
  37.4973890  73.8403502  89.0537417  38.1844930  73.5265232  88.4658432
  37.3422019  74.7444866  88.7804668  42.3008612  68.7293698  93.4822440
  42.2166801  68.1219368  92.7472850  41.4791319  69.2202716  93.4831937
  49.1635676  81.4052632  86.2058430  48.3803198  81.9474312  86.2996654
  49.8628421  81.9226612  86.6052671  52.4732326  67.2147262  88.8492635
  52.9701026  66.4617224  88.5293706  51.7019308  67.2511578  88.2835845
  60.3262084  72.9187627  90.4910927  60.3151960  73.8012343  90.1204860
  59.4579463  72.5659178  90.2965464  53.5562107  75.9718949  86.4231059
  52.6218386  76.0920411  86.2535763  53.7338775  75.0691416  86.1591069
  49.0567295  69.3564645  88.5764320  48.6865083  68.8035685  89.2645225
  49.5526388  68.7522778  88.0239320  56.9434658  71.8136268  86.9581093
  57.4095111  72.6464260  86.8841395  57.3942159  71.3481250  87.6626351
  55.0110889  78.1580090  83.9567245  55.2870733  78.0436684  84.8661119
  54.1415388  77.7597574  83.9179418  54.9151321  64.1816855  90.9971994
  54.0014401  64.4121082  91.1654201  55.3444423  64.2655299  91.8486027
  54.6857780  72.3706747  93.4971888  54.0329230  72.6182655  92.8424341
  55.0638159  71.5570885  93.1634365  51.6464953  82.4066440  87.6000058
  51.8287348  81.5888096  88.0627811  52.4697939  82.6234133  87.1624948
  51.9807119  81.3334625  84.8615107  52.5094885  80.8227080  84.2485269
  52.2435339  81.0177156  85.7260640  42.4824212  79.3498495  92.6050441
  43.0677648  78.6042183  92.7378345  42.2849050  79.6602451  93.4887104
  45.3362867  82.3849742  87.6212883  44.6673242  82.8695870  87.1376923
  45.1975737  82.6318963  88.5356261  37.0741866  71.9204095  91.3254884
  37.1125966  71.3867686  92.1192002  36.5682159  71.3939300  90.7065861
  44.4532629  66.7668635  94.8217426  44.5173955  67.6283466  94.4094824
  44.3899749  66.1542637  94.0889784  43.9284901  68.8391768  98.4690460
  44.5556940  68.4568845  99.0827985  43.0712820  68.6205970  98.8346153
  40.7050444  70.6468197  84.4008815  41.0003885  69.7378876  84.3475869
  39.8038480  70.6255937  84.0789817  52.6136523  82.3675461  91.2059223
  52.4887662  81.5665201  90.6970169  53.2715614  82.8621655  90.7173193
  44.2344691  68.7224194  90.3836364  43.5131277  69.3360161  90.2443837
  45.0237947  69.2581959  90.3053010  47.0371005  66.0578620  96.6577015
  47.5605406  66.3040917  97.4203325  46.8183338  66.8898655  96.2380153
  51.6817864  79.9637198  89.0343126  51.5342827  79.0353905  89.2150696
  52.5071358  79.9857288  88.5500201  55.2851986  80.7865756  90.1207998
  56.2098534  80.5808618  89.9832450  55.1167290  80.5382157  91.0297340
  48.2423550  66.9992315  94.3426686  47.9020370  66.2000128  94.7447366
  47.5362556  67.2994026  93.7703519  48.8940021  64.0841628  92.7954009
  49.7166091  63.6102106  92.6732899  49.1378085  64.8632111  93.2952695
  51.6779379  67.8175035  84.0275243  51.8942993  68.6999673  83.7264071
  51.1973446  67.4261249  83.2980885  46.4178600  70.7760748  90.6045988
  46.2723181  71.0901051  91.4970269  45.9403804  71.3945649  90.0516886
  48.2774983  67.7663296  90.6526877  48.2636552  66.8704390  90.3159175
  48.9947411  67.7733960  91.2865163  50.1301114  68.2000637  92.6980005
  49.8718892  69.1217707  92.6964335  49.5986154  67.8031071  93.3880469
  55.0747303  81.3051424  85.4770090  55.2484180  80.7397846  84.7243942
  55.5676194  82.1052319  85.2949580  40.8924262  73.3166093  93.5433649
  40.3477730  74.0925901  93.6753923  41.7703612  73.6636897  93.3852770
  47.6811879  66.6477677  85.9214447  47.8027790  65.7194323  86.1205335
  47.3913921  66.6616363  85.0092763  50.5503069  64.3332587  89.0581167
  50.5724766  64.3971920  88.1033147  50.9671128  63.4937096  89.2521673
  60.9286694  74.0687847  87.0960390  61.3717840  73.3195172  86.6979513
  60.0513204  74.0597983  86.7134122  56.0622475  80.6218188  82.5766988
  56.7573380  81.2424881  82.7954303  56.4045625  79.7713539  82.8519366
  41.6790284  72.4435989  96.4363806  40.9372020  72.5918624  97.0228436
  41.3583028  72.7044255  95.5730555  57.9613898  78.0717894  84.1054319
  58.4865222  78.4105166  83.3803639  57.8736251  77.1364909  83.9217454
  49.6454559  84.1389877  88.4649572  49.2059549  83.6466256  89.1582429
  50.3962676  83.5962845  88.2241647  42.1246898  80.3301418  88.4674200
  42.9504918  80.0305190  88.0872844  41.7740950  79.5609040  88.9163989
  47.0928431  79.6827886  90.5371874  46.4708440  79.0198591  90.2374102
  47.7633298  79.7089018  89.8545522  40.3255503  78.2487744  89.4263134
  39.4887411  77.8209919  89.2447135  40.2979148  78.4420188  90.3633925
  47.1652958  68.1609674 100.1304380  47.2141114  69.0371797  99.7482149
  47.7075473  67.6187067  99.5576023  46.6541938  78.2331809  84.0130334
  46.8030058  78.9167274  83.3597007  47.4608381  78.2136899  84.5279790
  49.3952247  68.9141046  96.8850739  48.5255556  69.2074612  96.6133327
  49.6311727  69.4981491  97.6058002  60.4719558  75.5393085  89.4882837
  61.3066450  75.9782889  89.6520398  60.6078687  75.0631738  88.6691083
  44.4094571  74.2596987  85.0191403  44.1640613  73.3559317  85.2171613
  44.5790485  74.2614137  84.0770881  52.0991281  65.1320663  94.4016159
  52.6173225  65.8681690  94.0762647  51.7446414  65.4384657  95.2362918
  52.3503875  61.5520946  89.9217056  52.6305629  60.8844135  90.5477482
  53.1354482  61.7450041  89.4091719  50.1537343  80.7279940  81.4842082
  49.5811311  81.3470127  81.0312554  50.7270137  81.2779301  82.0182004
  56.2212733  69.9738580  93.6688631  57.1730156  70.0736678  93.6900855
  56.0516184  69.1816848  94.1786715  54.2427113  67.0594163  93.8548032
  53.6477045  67.3399176  93.1594520  53.9576809  67.5488064  94.6264773
  53.3734603  81.0117090  82.6150664  54.3065276  80.9462652  82.8183540
  53.2857816  81.8473357  82.1565197  58.7000811  73.1944700  92.7830930
  58.6677131  72.2560700  92.9690614  59.3101435  73.2728736  92.0496755
  58.8495300  69.9855743  92.8289213  58.3334348  69.2014200  92.6419142
  59.7335248  69.6574460  92.9935733  56.5106026  63.7296759  88.7885026
  56.3130848  63.4211847  89.6728358  57.1205732  64.4558397  88.9182956
  62.5992658  72.3968569  92.5211418  61.8725822  72.2624534  91.9127910
  62.1839945  72.7045398  93.3268136  39.6404999  71.3097092  89.2112066
  39.3207784  70.4562401  88.9186440  39.0938428  71.5245670  89.9670033
  43.4184907  74.0259533  92.9281572  43.6370917  74.9576641  92.9469606
  43.8310681  73.6667508  93.7136376  50.3389125  64.5327619  84.9157261
  49.5289853  64.1874704  85.2912507  51.0273542  64.2235162  85.5044872
  52.2679673  63.6105665  86.5381557  52.8210712  64.0301119  87.1971581
  52.5049759  62.6841414  86.5804513  39.5093259  74.9300004  91.1805188
  38.8156731  74.5153957  90.6675142  40.2566250  74.9720540  90.5838606
  55.6458480  65.7206191  86.0460222  55.0657149  66.3790995  85.6638274
  55.3794413  64.8983535  85.6347639  54.0962047  65.1211248  88.2481542
  54.5961825  65.2327783  87.4395861  54.7397654  64.8172301  88.8882350
  41.4230002  74.8618258  89.0571202  41.4000690  74.9605945  88.1053085
  41.7330638  75.7083408  89.3788369  44.0817380  76.9194413  93.1717817
  45.0360633  76.8878355  93.1047748  43.8829903  76.4585036  93.9868043
  44.6716762  75.4895529  95.7388614  45.4909651  75.9839607  95.7623452
  44.9453570  74.5727497  95.7106182  54.4283358  67.8806281  85.1016570
  53.5409213  68.1655932  84.8836765  54.8437347  67.7200044  84.2543847
  57.7797894  67.9052802  88.8170909  58.5558284  68.3949254  89.0895526
  57.0546029  68.3310856  89.2742779  60.2170453  68.6180421  89.8744850
  60.8114944  68.3776157  89.1638158  60.2897037  67.8987552  90.5018386
  42.4367609  82.4614032  90.1888015  42.3022077  81.7014433  89.6226013
  42.0199671  83.1854932  89.7216804  54.4024382  73.3960817  85.3166860
  54.3459583  73.8529368  84.4774493  54.9552724  72.6351502  85.1389703
  58.2129188  69.1850549  86.1416980  57.9566122  68.7847184  86.9725187
  57.5882056  69.8994343  86.0167119  62.5241526  71.9246622  88.6488271
  61.9641084  71.9939811  89.4219833  61.9185029  71.7487607  87.9287767
  45.5936735  83.3583349  90.4006457  45.4769119  84.3028782  90.2985148
  44.7729181  83.0556911  90.7892257  55.4813269  78.0833485  81.2463050
  56.3158873  77.6514683  81.0640525  55.3197612  77.9115499  82.1739944
  55.1359161  74.5865598  82.6119389  55.0807965  74.4209870  81.6707833
  54.5105217  75.2941631  82.7681579  39.9251676  69.8233663  96.4380812
  40.5710540  69.3132617  96.9268037  39.7168827  70.5602344  97.0124237
  48.3744851  82.7642598  90.2772464  47.4240482  82.7644459  90.1636837
  48.6777337  82.0175332  89.7608499  52.2607406  60.6816484  86.4450645
  51.4939802  60.1274971  86.5907327  52.6718111  60.7538353  87.3064796
  44.2649167  66.9701280 100.5355826  45.1280629  66.6138084 100.7459150
  43.6914578  66.6315174 101.2231230  56.2829252  91.1626145  82.9778242
  57.0560128  90.6155132  82.8391117  56.6354651  92.0270395  83.1892703
  58.6195530  87.3218811  80.6096692  58.8721051  86.8000333  79.8480155
  57.6820089  87.1584957  80.7123375  58.3391819  89.2246917  82.8121067
  58.2228077  88.5491821  83.4802151  58.4494078  88.7379291  81.9953220
  60.3228846  83.7146964  81.5129104  60.4903249  84.5827201  81.8799575
  60.1326016  83.8774246  80.5890394  60.3018067  86.1704622  82.4975771
  60.1817693  86.6161672  83.3361251  59.6070656  86.5189939  81.9389309
  66.0003134  86.6426095  83.3256105  66.9120990  86.8753482  83.1503803
  65.4912781  87.2263139  82.7631184  59.0969564  87.4849474  84.7909337
  59.7993607  87.9370517  85.2583263  58.7650192  86.8433293  85.4189230
  54.7909643  86.1077606  87.0509947  53.9940806  86.2196300  87.5693443
  54.5635235  86.4464258  86.1850838  51.7541643  90.1454509  86.2158938
  52.5916865  90.5551517  85.9992645  51.9319910  89.2053951  86.1859132
  63.6506075  87.8129589  81.9042771  63.1352698  88.5834194  82.1431158
  63.3783383  87.1394726  82.5275832  61.2353186  82.6579290  86.9628009
  60.3794782  82.2686141  86.7833648  61.6480137  82.7371251  86.1027795
  63.4392378  85.6856682  83.7302552  63.1342513  86.0002831  84.5812695
  64.3922820  85.7638101  83.7729885  56.6157537  82.5066571  87.7402117
  57.1901289  82.2841753  87.0075310  57.2028520  82.5755266  88.4930719
  56.9427124  84.5371032  81.7598003  56.1064437  84.8745719  82.0807277
  56.8031894  84.4020012  80.8225140  58.9180205  79.3807820  86.4677187
  58.2644617  79.0656837  85.8433802  58.8760679  78.7583560  87.1937010
  60.0291410  89.6627115  78.3830479  59.1218472  89.4316369  78.5821628
  60.5262442  88.8664734  78.5704460  61.2079643  89.7639710  82.9054469
  60.2990863  89.4798743  83.0026939  61.2374727  90.1838789  82.0457776
  65.4843458  77.0814537  88.4988073  65.7902334  76.2211901  88.2113988
  66.2096062  77.6732158  88.2987067  51.7767814  87.4845224  86.8869671
  51.5792214  86.8914585  86.1620738  51.2214478  87.1797434  87.6045610
  60.9055731  91.3048454  80.2442548  60.4675161  90.5884313  79.7848185
  61.6466172  91.5324568  79.6827639  57.6956897  85.9945390  86.7654643
  56.8824763  86.2939561  87.1719835  58.1915891  85.6001079  87.4829125
  54.2714039  87.0109258  84.5710623  53.3411627  86.9493713  84.7880585
  54.3671511  86.4885211  83.7747265  54.1899588  83.5364071  87.1588865
  54.4506406  84.4509404  87.0498025  55.0116761  83.0688513  87.3085478
  65.0266959  90.1632835  79.8374605  64.4096129  89.4379663  79.7407658
  64.5583447  90.9242196  79.4941679  56.8165505  84.3818260  78.9595909
  55.9394971  84.2607060  78.5958156  57.2923258  83.5904338  78.7074798
  48.3367645  89.1695419  89.0537417  49.0238685  88.8557149  88.4658432
  48.1815773  90.0736784  88.7804668  51.5444198  85.9760115  84.4008815
  51.8397640  85.0670793  84.3475869  50.6432234  85.9547854  84.0789817
  53.2732040  83.6574212  84.5248140  52.9444746  82.7771591  84.3423246
  53.6271411  83.6021881  85.4124529  56.3873863  83.9447182  84.8923618
  56.7269936  84.4733104  84.1702226  56.8345984  84.2827588  85.6682184
  58.3742010  82.4421804  83.0916911  59.0950373  82.8203057  82.5880627
  57.7507314  83.1610681  83.1951889  62.5173133  83.1466953  84.0275243
  62.7336748  84.0291591  83.7264071  62.0367200  82.7553166  83.2980885
  58.5205633  81.9769594  85.9214447  58.6421545  81.0486240  86.1205335
  58.2307676  81.9908280  85.0092763  61.3896824  79.6624505  89.0581167
  61.4118521  79.7263838  88.1033147  61.8064883  78.8229013  89.2521673
  55.2488325  89.5888905  85.0191403  55.0034367  88.6851235  85.2171613
  55.4184240  89.5906055  84.0770881  54.5183973  85.3217262  82.5177565
  53.8253218  85.3961617  81.8617601  54.2735725  84.5577606  83.0399082
  63.1897629  76.8812864  89.9217056  63.4699383  76.2136053  90.5477482
  63.9748236  77.0741959  89.4091719  61.3777896  87.3932670  78.8258134
  62.3237001  87.2638878  78.8946552  60.9992141  86.6547332  79.3027562
  59.5620814  85.3182647  78.7613020  58.6552269  85.0215759  78.8375733
  59.8396795  85.0212465  77.8947306  50.4798754  86.6389010  89.2112066
  50.1601538  85.7854318  88.9186440  49.9332182  86.8537588  89.9670033
  61.1782879  79.8619536  84.9157261  60.3683608  79.5166621  85.2912507
  61.8667296  79.5527080  85.5044872  63.1073428  78.9397583  86.5381557
  63.6604466  79.3593037  87.1971581  63.3443514  78.0133331  86.5804513
  66.4852235  81.0498108  86.0460222  65.9050904  81.7082912  85.6638274
  66.2188167  80.2275453  85.6347639  65.2677113  83.2098199  85.1016570
  64.3802968  83.4947849  84.8836765  65.6831102  83.0491962  84.2543847
  64.4120326  92.9742873  79.1964590  65.1156176  93.1792876  79.8122246
  63.6882975  93.5419635  79.4613673  59.2849041  79.4165625  82.1904708
  59.2727711  80.3607465  82.3472979  60.1772463  79.2335770  81.8964169
  63.1001161  76.0108401  86.4450645  62.3333556  75.4566888  86.5907327
  63.5111866  76.0830270  87.3064796  18.9998608   9.7631460  69.3036414
  18.3486588  10.3485540  68.9170428  19.7942971  10.2937655  69.3631451
  12.9254235   6.8520597  69.7023548  13.6985111   6.3049584  69.5636424
  13.2779634   7.7164847  69.9138010  20.4773873   7.4521892  69.8405398
  19.8419706   7.5256519  70.5526303  20.1471280   8.0415491  69.1624478
  14.7049943  14.6302715  72.8711209  14.6273972  15.5810540  72.9499690
  14.1011586  14.2848588  73.5286135  22.6428117   2.3320547  70.0501412
  23.5545973   2.5647934  69.8749109  22.1337764   2.9157591  69.4876490
  25.1286931   8.2500803  74.7959357  24.4437969   8.6299704  74.2456390
  25.2130780   8.8596130  75.5291305  31.5889684   5.1171466  75.9162029
  30.8353392   4.5478864  75.7606034  31.7237225   5.0834131  76.8632664
  16.9788312   9.9884868  71.5916749  16.8433986  10.8336404  72.0201597
  17.5198124  10.1904146  70.8282683  20.2931058   3.5024041  68.6288077
  19.7777681   4.2728646  68.8676465  20.0208366   2.8289177  69.2521139
  25.2665332   6.2556396  70.5641251  24.4894775   5.9167555  70.1196413
  25.9456813   6.2609019  69.8896216  18.5263793   7.5341357  72.1040812
  17.9985155   6.7994116  71.7914050  18.0251296   8.3116033  71.8580781
  16.6716393   5.3521567  65.1075785  15.7643455   5.1210820  65.3066934
  17.1687425   4.5559186  65.2949767  19.5784472  14.0619074  68.0272472
  18.9046171  14.3650771  68.6357429  19.9650294  14.8648155  67.6777929
  17.8504627   5.4534162  69.6299776  16.9415846   5.1693195  69.7272245
  17.8799710   5.8733240  68.7703082  23.0823894   9.0640751  73.3990943
  22.6286221   8.2231661  73.4556134  22.4517861   9.7002150  73.7365723
  21.5256833  10.9017248  74.3340761  21.8179808  11.4622305  73.6153127
  22.0355454  11.1945809  75.0893920  17.5480714   6.9942906  66.9687854
  17.1100144   6.2778764  66.5093491  18.2891155   7.2219020  66.4072946
  25.6653829   5.2700103  73.0264173  25.5271728   5.4601699  72.0985362
  25.3090048   6.0319485  73.4832224  17.7775687  14.2298747  70.2419551
  17.9527443  13.7586790  71.0565174  17.0908475  14.8564513  70.4700812
  21.6691942   5.8527287  66.5619912  21.0521113   5.1274115  66.4652964
  21.2008430   6.6136647  66.2186986  16.6454414  12.4239002  72.9303737
  15.8621936  12.9660682  73.0241961  17.3447159  12.9412981  73.3297978
  21.0380845   6.9905319  73.1476365  20.1037124   7.1106781  72.9781070
  21.2157513   6.0877785  72.8836375  22.4929627   9.1766459  70.6812551
  22.7689471   9.0623054  71.5906426  21.6234126   8.7783944  70.6424725
  19.1283691  13.4252810  74.3245365  19.3106086  12.6074466  74.7873117
  19.9516677  13.6420502  73.8870255  19.4625857  12.3520995  71.5860414
  19.9913623  11.8413450  70.9730576  19.7254076  12.0363525  72.4505947
  22.5566040  12.3237793  72.2015397  22.7302918  11.7584216  71.4489249
  23.0494932  13.1238688  72.0194887  28.4105431   5.0874216  73.8205696
  28.8536577   4.3381541  73.4224820  27.5331942   5.0784353  73.4379428
  23.5441213  11.6404558  69.3012295  24.2392117  12.2611250  69.5199609
  23.8864363  10.7899909  69.5764673  25.4432636   9.0904263  70.8299626
  25.9683960   9.4291536  70.1048946  25.3554988   8.1551279  70.6462760
  17.1273297  15.1576246  75.1894879  16.6878287  14.6652625  75.8827736
  17.8781414  14.6149214  74.9486954  14.1360676   9.2518179  70.7375641
  14.2848796   9.9353643  70.0842314  14.9427119   9.2323269  71.2525097
  27.9538296   6.5579455  76.2128144  28.7885188   6.9969259  76.3765704
  28.0897425   6.0818108  75.3936390  17.6356081  11.7466309  68.2087388
  17.0630048  12.3656496  67.7557860  18.2088875  12.2965671  68.7427310
  20.8553341  12.0303459  69.3395971  21.7884014  11.9649021  69.5428846
  20.7676554  12.8659726  68.8810503  23.4841358  11.3469330  66.2999918
  23.4054989  11.0129193  67.1935676  24.3051024  11.8391098  66.2991391
  21.0545309   8.6637325  65.9209897  21.7581160   8.8687328  66.5367552
  20.3307958   9.2314087  66.1858980  21.8843120   4.4147186  72.0412167
  21.8278321   4.8715738  71.2019799  22.4371462   3.6537871  71.8635010
  22.9632007   9.1019854  67.9708357  23.7977611   8.6701053  67.7885831
  22.8016350   8.9301868  68.8985251  22.6177899   5.6051968  69.3364696
  22.5626703   5.4396239  68.3953140  21.9923954   6.3128001  69.4926886
  31.5916282  19.6189506  78.0663533  32.2294692  19.4996253  77.3626873
  31.4737125  20.5670349  78.1251486  28.4005988  19.5716934  78.0025058
  28.0624500  19.4557998  77.1145593  29.2695756  19.1708099  77.9826064
  24.2592804  21.4252410  73.9921949  23.6957669  21.3342347  73.2238237
  24.1445199  20.6052315  74.4724442  28.8825771  20.7251785  83.9611264
  28.8714412  20.3304584  83.0891767  29.0446411  19.9917858  84.5545035
  29.8392363  25.0923378  69.3036414  29.1880342  25.6777458  68.9170428
  30.6336725  25.6229573  69.3631451  23.7647990  22.1812515  69.7023548
  24.5378866  21.6341502  69.5636424  24.1173389  23.0456764  69.9138010
  25.6033032  23.5088897  82.9090448  25.3122898  24.4134528  82.7937114
  26.2390017  23.5505425  83.6234517  26.5289239  20.8865746  79.4991807
  27.1252811  20.6621768  78.7848770  26.5864211  20.1450491  80.1017255
  26.1014268  18.3405181  67.3341998  26.3539788  17.8186702  66.5725461
  25.1638827  18.1771326  67.4368682  31.1457550  17.3440959  75.1416741
  31.9320640  16.9260383  74.7907158  31.4096255  18.2487052  75.3098390
  31.3167628  22.7813810  69.8405398  30.6813461  22.8548436  70.5526303
  30.9865034  23.3707409  69.1624478  36.5465978  17.2816193  76.0449720
  37.2791150  16.7115409  76.2787549  35.7905333  16.8937793  76.4856226
  25.8210556  20.2433287  69.5366373  25.7046814  19.5678190  70.2047457
  25.9312816  19.7565661  68.7198526  28.1642097  19.7043434  73.2413062
  27.8000305  19.1774055  73.9525984  29.0209213  19.3141903  73.0679548
  34.0691398  10.9937767  80.5044329  33.7374723  11.8633178  80.2805544
  33.4737011  10.6774051  81.1838359  27.8047584  14.7333334  68.2374411
  27.9721987  15.6013570  68.6044882  27.6144753  14.8960615  67.3135700
  30.5622917  23.1950313  79.9040241  30.2623641  24.0975351  79.7956049
  30.2173977  22.9282496  80.7561394  24.0135399  19.6464110  75.9376946
  23.0885895  19.5140324  76.1454637  24.2619812  20.4258329  76.4346888
  33.9620061  15.7132853  77.5837679  33.0536939  15.6448261  77.2896440
  33.9107657  16.1904798  78.4119504  27.7836805  17.1890991  69.2221078
  27.6636430  17.6348042  70.0606558  27.0889394  17.5376309  68.6634616
  21.3744210  19.2897383  76.7720735  21.5036591  19.5431862  77.6860147
  20.6941661  19.8825091  76.4525390  25.5443697  29.9594633  72.8711209
  25.4667727  30.9102458  72.9499690  24.9405341  29.6140506  73.5286135
  35.8281708  13.9149291  79.3615553  35.1856088  14.2081824  78.7155347
  35.3236636  13.8002212  80.1668749  33.4821871  17.6612464  70.0501412
  34.3939727  17.8939851  69.8749109  32.9731518  18.2449509  69.4876490
  31.7662639  22.0837092  83.6862704  32.1745995  21.6419503  82.9417337
  31.0439900  21.5089720  83.9396897  28.1193709  17.0209699  81.0596261
  28.9654904  17.4449113  81.2030910  28.0592347  16.3643323  81.7534824
  32.0891454  22.6438283  77.4414993  31.4600316  22.8083997  76.7391061
  31.7017116  23.0579892  78.2125957  35.9680686  23.5792721  74.7959357
  35.2831724  23.9591622  74.2456390  36.0524535  24.1888047  75.5291305
  33.2231617  21.2252680  81.3954701  33.4348512  21.8684440  80.7189082
  33.1761365  20.3914996  80.9276631  30.8257846  13.8370500  78.2991273
  29.9642325  14.1351754  78.5908010  30.8520281  14.0540899  77.3672305
  27.6419415  22.3812691  74.7065078  28.1057761  22.6600394  73.9169701
  27.3776214  21.4796136  74.5238169  24.5343497  21.9284173  77.6444842
  25.1044854  22.3571441  77.0062326  25.1251608  21.6466757  78.3429027
  26.5788302  18.5035843  71.5154643  27.2812345  18.9556887  71.9828570
  26.2468930  17.8619662  72.1434537  20.3213636  16.7619396  76.8171777
  19.5312689  17.0176925  76.3411888  20.8124883  17.5767734  76.9223818
  34.3377445  24.1024635  79.5677058  35.1594889  23.7004822  79.2859740
  34.3339848  23.9992869  80.5193174  22.2728381  17.1263975  73.7755254
  21.4759544  17.2382670  74.2938749  22.0453973  17.4650627  72.9096144
  28.1034049  23.6508678  81.7237768  28.1678481  24.1129086  82.5595940
  27.3944972  23.0206043  81.8520078  42.4283438  20.4463384  75.9162029
  41.6747147  19.8770782  75.7606034  42.5630979  20.4126048  76.8632664
  27.8182066  25.3176786  71.5916749  27.6827741  26.1628322  72.0201597
  28.3591879  25.5196064  70.8282683  21.2711464  22.8352224  72.1644674
  21.7835984  23.6295474  72.3150238  21.9234176  22.1378514  72.0978275
  23.0806348  25.9517980  74.2467427  23.2572977  26.8735945  74.0588411
  23.8763182  25.6376400  74.6761807  29.4450543  25.9400352  85.7217091
  29.0014397  25.1536731  85.4037995  30.1067756  26.1279503  85.0560982
  24.2037664  27.4696154  80.2477769  24.7545089  27.3413217  79.4754763
  23.3649140  27.7691043  79.8972662  31.5431781  26.2203152  83.7498492
  31.5250256  27.0412033  83.2578761  32.4651701  26.0957228  83.9748633
  28.0004835  23.7347282  84.5922000  28.5333172  22.9735570  84.3621308
  27.4718916  23.4420934  85.3346155  19.2360380  21.1640878  72.9404244
  20.0735602  21.5737887  72.7237952  19.4138648  20.2240320  72.9104438
  31.1324812  18.8315959  68.6288077  30.6171436  19.6020564  68.8676465
  30.8602121  18.1581095  69.2521139  28.7171923  13.6765660  73.6873316
  27.8613520  13.2872510  73.5078954  29.1298875  13.7557621  72.8273101
  30.2471070  11.2112003  78.0864875  29.7435866  11.1742138  77.2732681
  30.5401677  12.1204746  78.1461532  26.4913956  11.2950733  77.0931057
  27.3566953  11.0993541  76.7336947  26.5591465  11.0661085  78.0200414
  30.9211116  16.7043051  70.4547858  30.6161251  17.0189200  71.3058002
  31.8741558  16.7824471  70.4975191  29.3657547  22.8633274  72.1040812
  28.8378909  22.1286034  71.7914050  28.8645050  23.6407951  71.8580781
  34.3450393  21.0582295  77.2207859  33.6874068  21.7481556  77.3087987
  35.1490793  21.4478727  77.5641845  24.0976275  13.5252941  74.4647424
  24.6720027  13.3028122  73.7320617  24.6847258  13.5941635  75.2176025
  33.1555852  19.4126668  75.2711801  33.6687734  20.0456659  75.7733510
  33.8057076  18.8127863  74.9055161  24.4245862  15.5557402  68.4843309
  23.5883174  15.8932088  68.8052584  24.2850632  15.4206381  67.5470446
  26.3998943  10.3994190  73.1922493  25.7463355  10.0843207  72.5679108
  26.3579417   9.7769930  73.9182316  27.5110148  20.6813485  65.1075785
  26.6037209  20.4502738  65.3066934  28.0081180  19.8851104  65.2949767
  30.4178227  29.3910992  68.0272472  29.7439925  29.6942689  68.6357429
  30.8044049  30.1940072  67.6777929  29.6336683  16.8876123  77.5170141
  28.7159245  17.1091070  77.3591829  30.0496827  16.9622434  76.6581848
  30.4171731  18.2867539  72.6472821  31.1643550  18.7988936  72.3379943
  30.6863320  17.9651592  73.5077215  28.6898381  20.7826080  69.6299776
  27.7809600  20.4985112  69.7272245  28.7193465  21.2025158  68.7703082
  33.9217649  24.3932669  73.3990943  33.4679976  23.5523579  73.4556134
  33.2911615  25.0294067  73.7365723  32.8650568  15.3224655  74.6291611
  32.1273325  14.8102041  74.9601853  33.1177342  14.8825037  73.8174887
  32.3650588  26.2309166  74.3340761  32.6573562  26.7914223  73.6153127
  32.8749208  26.5237727  75.0893920  32.9662195   8.1000907  75.2233380
  33.2721072   7.2398270  74.9359295  33.6914800   8.6918527  75.0232374
  19.2586551  18.5031594  73.6114978  19.0610951  17.9100954  72.8866044
  18.7033215  18.1983804  74.3290917  27.2383275  18.3954700  75.7309571
  27.2931885  17.4428537  75.6552048  26.4274477  18.5514139  76.2150869
  28.3874469  22.3234823  66.9687854  27.9493899  21.6070682  66.5093491
  29.1284910  22.5510938  66.4072946  25.1775635  17.0131760  73.4899950
  24.3643501  17.3125930  73.8965142  25.6734629  16.6187449  74.2074432
  27.3284213  27.0089517  75.4234214  27.2860392  27.2350363  74.4942747
  28.2446912  26.7752891  75.5720016  30.7749847  17.4773584  82.3214844
  31.1299234  17.7045057  83.1809309  31.4221978  17.8091961  81.6992099
  36.5047584  20.5992020  73.0264173  36.3665482  20.7893616  72.0985362
  36.1483802  21.3611403  73.4832224  24.6689710  14.5850115  79.1061185
  25.3089089  14.4438874  78.4084148  23.8367240  14.2984629  78.7299787
  36.5316963  22.6668547  78.0375444  36.9653470  22.5743836  78.8858498
  37.2448544  22.6426048  77.3995460  25.4450014  23.8852546  75.2196177
  26.2390612  23.3902866  75.0178752  24.7341706  23.3570409  74.8563883
  30.2644858  26.2670641  79.5708545  30.3181880  26.8361578  80.3386261
  29.3959640  26.4372526  79.2062582  21.7532777  18.0295628  71.2955930
  20.8230365  17.9680083  71.5125892  21.8490249  17.5071580  70.4992571
  21.6718326  14.5550440  73.8834172  21.9325144  15.4695774  73.7743332
  22.4935499  14.0874883  74.0330784  37.3932513  22.7092248  80.5708330
  37.5868403  23.6138058  80.8167605  37.2933131  22.2499667  81.4046915
  32.4547622  22.8598991  86.1449210  32.3033128  22.6309542  85.2279294
  32.4452301  23.8169592  86.1580555  29.2232958  20.4330903  81.1295477
  30.1525018  20.5842063  80.9564444  28.8023988  20.5214924  80.2744123
  28.0221290  24.4581568  78.8994014  27.8832375  24.0900352  79.7719952
  27.2335886  24.9729207  78.7277972  28.6169442  29.5590664  70.2419551
  28.7921197  29.0878707  71.0565174  27.9302230  30.1856430  70.4700812
  29.5726505  23.8363170  76.2882852  29.2376337  23.7963940  77.1840502
  29.0730451  23.1707886  75.8153262  32.5085697  21.1819205  66.5619912
  31.8914867  20.4566033  66.4652964  32.0402185  21.9428565  66.2186986
  26.1753049  18.9550760  81.3019113  26.8852668  18.3143952  81.2605731
  26.1322358  19.2063655  82.2245294  34.1639828  25.8918113  84.2225692
  34.1052374  25.2077333  83.5556275  34.5659347  26.6337103  83.7706318
  23.1830527  32.7080027  77.0159411  23.4227125  33.3398551  77.6938430
  22.3399723  32.3568067  77.3024770  24.2984242  15.4004629  65.6841216
  23.4213709  15.2793430  65.3203463  24.7741995  14.6090707  65.4320105
  34.1657235  23.8557697  82.4539672  33.2784014  23.5183619  82.5766071
  34.7355787  23.1240728  82.6908437  15.8186383  20.1881789  75.7782723
  16.5057422  19.8743519  75.1903738  15.6634511  21.0923154  75.5049975
  27.6958389  28.5159149  79.4200915  27.6228560  29.3214121  79.9320220
  27.2535782  28.7151115  78.5948936  27.4848168  27.7530919  72.9303737
  26.7015690  28.2952600  73.0241961  28.1840914  28.2704899  73.3297978
  30.7944819  13.5625549  75.5737942  31.2913518  12.8095511  75.2539012
  30.0231800  13.5989866  75.0081151  38.6474576  19.2665914  77.2156233
  38.6364452  20.1490630  76.8450167  37.7791955  18.9137465  77.0210770
  30.1557072  28.4145983  81.5759074  30.8685045  29.0493448  81.5034975
  29.6647101  28.5109849  80.7599075  31.8774599  22.3197236  73.1476365
  30.9430878  22.4398699  72.9781070  32.0551268  21.4169703  72.8836375
  27.3779787  15.7042932  75.3009627  27.0077575  15.1513972  75.9890532
  27.8738880  15.1001065  74.7484627  35.2647151  18.1614555  73.6826399
  35.7307603  18.9942547  73.6086702  35.7154651  17.6959537  74.3871658
  25.2068986  26.1640427  82.3964644  25.9078445  26.7976910  82.5494039
  24.7364101  26.5055159  81.6360284  33.3323382  24.5058377  70.6812551
  33.6083226  24.3914971  71.5906426  32.4627880  24.1075862  70.6424725
  33.2363813  10.5295142  77.7217301  32.3226893  10.7599369  77.8899508
  33.6656915  10.6133587  78.5731333  33.0070272  18.7185034  80.2217195
  32.3541722  18.9660942  79.5669648  33.3850652  17.9049173  79.8879672
  29.9677446  28.7544728  74.3245365  30.1499840  27.9366384  74.7873117
  30.7910432  28.9712420  73.8870255  30.3019611  27.6812913  71.5860414
  30.8307378  27.1705367  70.9730576  30.5647831  27.3655443  72.4505947
  20.8036704  25.6976782  79.3295747  21.3890141  24.9520470  79.4623651
  20.6061542  26.0080739  80.2132411  23.6575359  28.7328029  74.3458190
  22.9885734  29.2174157  73.8622230  23.5188229  28.9797250  75.2601568
  27.7980628  30.7671773  80.9440848  28.3498936  30.9303394  81.7089933
  28.1386821  31.3576211  80.2720873  32.6491502  25.5933030  86.7989502
  33.1931406  26.2062989  86.3044457  32.0678347  26.1512609  87.3156515
  19.0262936  16.9946484  71.1254122  19.3216377  16.0857163  71.0721175
  18.1250972  16.9734224  70.8035124  30.9349015  28.7153748  77.9304530
  30.8100154  27.9143488  77.4215476  31.5928106  29.2099942  77.4418500
  22.5557183  15.0702481  77.1081670  21.8343769  15.6838449  76.9689144
  23.3450439  15.6060246  77.0298316  32.9983923  26.5162769  79.5584080
  32.0514259  26.3968120  79.4862407  33.3466697  25.6285267  79.6410342
  20.7550778  14.6760582  71.2493447  20.4263484  13.7957961  71.0668553
  21.1090149  14.6208251  72.1369836  30.0030357  26.3115485  75.7588432
  29.8555319  25.3832192  75.9396002  30.8283850  26.3335575  75.2745508
  23.8692601  14.9633552  71.6168925  24.2088674  15.4919473  70.8947533
  24.3164721  15.3013958  72.3927491  33.6064479  27.1344043  76.8453305
  34.5311026  26.9286905  76.7077756  33.4379782  26.8860445  77.7542647
  25.8560748  13.4608173  69.8162217  26.5769111  13.8389426  69.3125934
  25.2326052  14.1797050  69.9197195  29.9991871  14.1653322  70.7520550
  30.2155485  15.0477960  70.4509378  29.5185938  13.7739536  70.0226192
  24.7391092  17.1239036  77.3291294  24.5935673  17.4379339  78.2215576
  24.2616296  17.7423936  76.7762193  26.5987475  14.1141584  77.3772184
  26.5849044  13.2182677  77.0404482  27.3159903  14.1212247  78.0110470
  28.4513606  14.5478924  79.4225311  28.1931384  15.4695994  79.4209642
  27.9198646  14.1509358  80.1125775  33.3959795  27.6529711  72.2015397
  33.5696672  27.0876133  71.4489249  33.8888686  28.4530606  72.0194887
  19.2136755  19.6644380  80.2678955  18.6690223  20.4404188  80.3999230
  20.0916104  20.0115184  80.1098077  26.0024371  12.9955964  72.6459754
  26.1240282  12.0672610  72.8450641  25.7126414  13.0094650  71.7338069
  28.8715562  10.6810874  75.7826474  28.8937258  10.7450207  74.8278453
  29.2883621   9.8415383  75.9766980  34.3834967  26.9696475  69.3012295
  35.0785872  27.5903168  69.5199609  34.7258117  26.1191827  69.5764673
  36.2826390  24.4196181  70.8299626  36.8077714  24.7583454  70.1048946
  36.1948743  23.4843196  70.6462760  27.9446439  28.3330255  82.9589502
  28.2533566  28.0879401  83.8312202  28.7421921  28.5376893  82.4708372
  27.9667051  30.4868164  75.1894879  27.5272041  29.9944543  75.8827736
  28.7175168  29.9441132  74.9486954  20.4459390  26.6779705  75.1919507
  21.2717410  26.3783477  74.8118150  20.0953442  25.9087327  75.6409296
  25.4140923  26.0306173  77.2617180  24.7920933  25.3676878  76.9619408
  26.0845790  26.0567305  76.5790828  18.6467995  24.5966031  76.1508440
  17.8099903  24.1688206  75.9692442  18.6191641  24.7898475  77.0879232
  35.9720296  25.0529085  86.1350824  35.1815840  25.0353223  85.5955323
  35.7353651  25.5917378  86.8899860  36.0918171  21.9021551  83.4483552
  36.1416176  21.7371558  84.3899075  35.9832095  21.0348810  83.0581433
  24.9754430  24.5810097  70.7375641  25.1242551  25.2645561  70.0842314
  25.7820874  24.5615187  71.2525097  37.5936368  24.3218492  83.6925574
  37.3021177  24.6848473  84.5289035  36.9808500  23.6085501  83.5138906
  38.7932051  21.8871372  76.2128144  39.6278942  22.3261176  76.3765704
  38.9291179  21.4110025  75.3936390  35.8423557  19.4451107  82.1605632
  36.3177678  19.6378753  81.3524483  34.9189122  19.5010293  81.9149015
  22.7307063  20.6075274  71.7436710  22.4853105  19.7037604  71.9416920
  22.9002978  20.6092425  70.8016188  22.0002711  16.3403632  69.2422871
  21.3071956  16.4147987  68.5862907  21.7554463  15.5763975  69.7644388
  30.6716367   7.8999233  76.6462362  30.9518121   7.2322422  77.2722789
  31.4566974   8.0928329  76.1337026  28.4749836  27.0758227  68.2087388
  27.9023803  27.6948414  67.7557860  29.0482629  27.6257589  68.7427310
  34.5425226  16.3216867  80.3933937  35.4942648  16.4214965  80.4146161
  34.3728676  15.5295136  80.9032022  32.5639605  13.4072450  80.5793338
  31.9689537  13.6877463  79.8839827  32.2789302  13.8966351  81.3510079
  31.6947095  27.3595377  69.3395971  32.6277769  27.2940939  69.5428846
  31.6070308  28.1951644  68.8810503  34.3235112  26.6761247  66.2999918
  34.2448744  26.3421111  67.1935676  35.1444779  27.1683015  66.2991391
  37.0213303  19.5422987  79.5076237  36.9889623  18.6038988  79.6935921
  37.6313927  19.6207024  78.7742062  28.8596634  18.4119040  65.5503441
  29.8055739  18.2825248  65.6191859  28.4810879  17.6733702  66.0272869
  37.1707792  16.3334030  79.5534520  36.6546840  15.5492487  79.3664449
  38.0547740  16.0052747  79.7181040  34.8318519  10.0775046  75.5130333
  34.6343340   9.7690134  76.3973665  35.4418224  10.8036685  75.6428263
  42.8389853  20.6038994  78.6482274  43.5693242  20.3424282  79.2089977
  42.2296799  19.8667716  78.6884342  40.9205150  18.7446856  79.2456725
  40.1938314  18.6102821  78.6373216  40.5052437  19.0523685  80.0513443
  27.0439551  16.3369016  65.4858326  26.1371007  16.0402129  65.5621040
  27.3215532  16.0398834  64.6192612  17.9617492  17.6575380  75.9357373
  17.6420276  16.8040688  75.6431747  17.4150920  17.8723958  76.6915340
  21.7397399  20.3737821  79.6526879  21.9583409  21.3054928  79.6714913
  22.1523173  20.0145795  80.4381683  28.6601617  10.8805906  71.6402567
  27.8502345  10.5352991  72.0157814  29.3486034  10.5713450  72.2290179
  30.5892165   9.9583953  73.2626864  31.1423204  10.3779406  73.9216887
  30.8262252   9.0319701  73.3049820  25.8138336  13.1955951  65.6270305
  26.6757500  13.5210850  65.8866123  25.9988680  12.4087447  65.1143371
  17.8305752  21.2778291  77.9050494  17.1369223  20.8632244  77.3920449
  18.5778743  21.3198828  77.3083913  33.9670972  12.0684478  72.7705528
  33.3869642  12.7269282  72.3883581  33.7006905  11.2461822  72.3592946
  32.4174539  11.4689536  74.9726849  32.9174317  11.5806070  74.1641168
  33.0610147  11.1650588  75.6127657  19.7442494  21.2096545  75.7816509
  19.7213182  21.3084232  74.8298392  20.0543131  22.0561696  76.1033675
  22.4029872  23.2672700  79.8963123  23.3573126  23.2356642  79.8293055
  22.2042396  22.8063324  80.7113349  22.9929254  21.8373816  82.4633921
  23.8122143  22.3317895  82.4868758  23.2666062  20.9205784  82.4351489
  32.7495850  14.2284568  71.8261877  31.8621706  14.5134219  71.6082071
  33.1649840  14.0678332  70.9789154  36.1010387  14.2531089  75.5416216
  36.8770777  14.7427542  75.8140833  35.3758521  14.6789143  75.9988085
  38.5382945  14.9658708  76.5990157  39.1327436  14.7254444  75.8883465
  38.6109529  14.2465839  77.2263693  20.7580101  28.8092319  76.9133321
  20.6234569  28.0492720  76.3471319  20.3412163  29.5333219  76.4462110
  31.8939064  23.9929243  65.9209897  32.5974914  24.1979245  66.5367552
  31.1701713  24.5606005  66.1858980  32.7236874  19.7439104  72.0412167
  32.6672076  20.2007656  71.2019799  33.2765217  18.9829789  71.8635010
  36.5341680  15.5328836  72.8662286  36.2778614  15.1325472  73.6970494
  35.9094548  16.2472630  72.7412425  40.8454018  18.2724909  75.3733578
  40.2853576  18.3418099  76.1465140  40.2397521  18.0965894  74.6533074
  23.9149227  29.7061636  77.1251764  23.7981611  30.6507069  77.0230454
  23.0941673  29.4035198  77.5137563  33.8025761  24.4311772  67.9708357
  34.6371365  23.9992971  67.7885831  33.6410104  24.2593786  68.8985251
  33.4571654  20.9343885  69.3364696  33.4020457  20.7688157  68.3953140
  32.8317709  21.6419918  69.4926886  26.7667779  10.4351994  68.9150014
  26.7546449  11.3793834  69.0718285  27.6591201  10.2522140  68.6209476
  24.9403741  30.3589898  80.3407692  25.8430988  30.3913509  80.6574187
  24.7141111  29.4290349  80.3554028  26.6957343  29.1120885  77.0017771
  25.7452974  29.1122746  76.8882143  26.9989829  28.3653619  76.4853806
  30.5819898   7.0294771  73.1695951  29.8152294   6.4753258  73.3152634
  30.9930603   7.1016640  74.0310103  42.4310036  34.9481423  78.0663533
  43.0688446  34.8288171  77.3626873  42.3130879  35.8962267  78.1251486
  39.2399743  34.9008851  78.0025058  38.9018254  34.7849916  77.1145593
  40.1089511  34.5000016  77.9826064  35.0986558  36.7544328  73.9921949
  34.5351424  36.6634265  73.2238237  34.9838953  35.9344232  74.4724442
  39.7219526  36.0543703  83.9611264  39.7108166  35.6596501  83.0891767
  39.8840165  35.3209776  84.5545035  32.6450990  38.2495519  76.8306170
  33.4372282  37.9086344  76.4152469  32.8847641  38.3590494  77.7508323
  34.6041744  37.5104433  69.7023548  35.3772620  36.9633420  69.5636424
  34.9567143  38.3748682  69.9138010  36.4426787  38.8380815  82.9090448
  36.1516653  39.7426446  82.7937114  37.0783771  38.8797342  83.6234517
  37.3682994  36.2157663  79.4991807  37.9646566  35.9913686  78.7848770
  37.4257965  35.4742409  80.1017255  41.9851305  32.6732877  75.1416741
  42.7714394  32.2552300  74.7907158  42.2490009  33.5778969  75.3098390
  47.3859732  32.6108110  76.0449720  48.1184904  32.0407327  76.2787549
  46.6299088  32.2229711  76.4856226  36.6604311  35.5725205  69.5366373
  36.5440569  34.8970108  70.2047457  36.7706571  35.0857579  68.7198526
  44.9085152  26.3229684  80.5044329  44.5768477  27.1925095  80.2805544
  44.3130766  26.0065968  81.1838359  41.4016672  38.5242230  79.9040241
  41.1017395  39.4267269  79.7956049  41.0567731  38.2574414  80.7561394
  34.8529153  34.9756027  75.9376946  33.9279650  34.8432241  76.1454637
  35.1013567  35.7550246  76.4346888  44.8013816  31.0424771  77.5837679
  43.8930693  30.9740179  77.2896440  44.7501412  31.5196715  78.4119504
  32.2137964  34.6189301  76.7720735  32.3430346  34.8723780  77.6860147
  31.5335416  35.2117009  76.4525390  36.3837452  45.2886551  72.8711209
  36.3061481  46.2394376  72.9499690  35.7799095  44.9432423  73.5286135
  38.8754682  32.4614416  85.5272576  38.0988016  33.0208336  85.5175441
  39.5145245  32.9471199  86.0487446  46.6675462  29.2441209  79.3615553
  46.0249842  29.5373742  78.7155347  46.1630391  29.1294129  80.1668749
  37.1301054  35.2699869  85.0890543  37.8715738  35.8084913  84.8125367
  36.4238039  35.8966158  85.2462095  42.6056393  37.4129010  83.6862704
  43.0139749  36.9711420  82.9417337  41.8833655  36.8381637  83.9396897
  38.9587464  32.3501617  81.0596261  39.8048659  32.7741030  81.2030910
  38.8986101  31.6935241  81.7534824  42.9285208  37.9730201  77.4414993
  42.2994071  38.1375915  76.7391061  42.5410870  38.3871810  78.2125957
  46.8074440  38.9084638  74.7959357  46.1225478  39.2883540  74.2456390
  46.8918289  39.5179965  75.5291305  42.1086909  30.0105985  82.7177435
  41.8647841  30.7648046  82.1811711  42.3846839  30.3891333  83.5524682
  44.0625372  36.5544597  81.3954701  44.2742267  37.1976357  80.7189082
  44.0155120  35.7206914  80.9276631  41.6651601  29.1662418  78.2991273
  40.8036080  29.4643672  78.5908010  41.6914035  29.3832817  77.3672305
  35.3737251  37.2576090  77.6444842  35.9438608  37.6863359  77.0062326
  35.9645363  36.9758675  78.3429027  35.8662418  32.4239518  85.8905853
  35.2361078  33.1055799  86.1241250  35.7598505  32.3122599  84.9458991
  31.1607390  32.0911314  76.8171777  30.3706444  32.3468842  76.3411888
  31.6518637  32.9059652  76.9223818  45.1771200  39.4316553  79.5677058
  45.9988643  39.0296740  79.2859740  45.1733602  39.3284787  80.5193174
  33.1122135  32.4555893  73.7755254  32.3153299  32.5674587  74.2938749
  32.8847728  32.7942545  72.9096144  38.9427803  38.9800596  81.7237768
  39.0072236  39.4421003  82.5595940  38.2338727  38.3497961  81.8520078
  29.4445093  32.3441804  79.2486768  29.6953131  33.2288814  79.5144344
  29.9804641  32.1646406  78.4761860  35.1443160  26.7260284  88.2531104
  34.7510106  26.1726482  88.9278748  35.9609301  27.0370862  88.6437621
  32.1105218  38.1644142  72.1644674  32.6229739  38.9587392  72.3150238
  32.7627931  37.4670432  72.0978275  33.9200103  41.2809898  74.2467427
  34.0966731  42.2027863  74.0588411  34.7156936  40.9668317  74.6761807
  38.0611121  28.1418163  85.8451360  38.8020835  28.7425316  85.7655823
  38.2929044  27.3995800  85.2869403  33.2052459  33.3274530  84.1229590
  33.0905974  32.4259787  84.4236689  32.3496977  33.5738227  83.7714407
  40.2844297  41.2692270  85.7217091  39.8408151  40.4828649  85.4037995
  40.9461511  41.4571421  85.0560982  35.0431418  42.7988072  80.2477769
  35.5938843  42.6705135  79.4754763  34.2042894  43.0982961  79.8972662
  42.3825535  41.5495070  83.7498492  42.3644010  42.3703951  83.2578761
  43.3045455  41.4249145  83.9748633  38.8398589  39.0639200  84.5922000
  39.3726926  38.3027488  84.3621308  38.3112670  38.7712851  85.3346155
  42.0068284  24.1699266  80.1215642  41.6632554  25.0600907  80.0454753
  42.3747247  23.9800923  79.2585227  30.0754135  36.4932796  72.9404244
  30.9129357  36.9029804  72.7237952  30.2532403  35.5532238  72.9104438
  39.5565678  29.0057577  73.6873316  38.7007274  28.6164428  73.5078954
  39.9692630  29.0849538  72.8273101  41.0864825  26.5403921  78.0864875
  40.5829620  26.5034056  77.2732681  41.3795431  27.4496663  78.1461532
  37.3307710  26.6242650  77.0931057  38.1960707  26.4285459  76.7336947
  37.3985219  26.3953002  78.0200414  45.1844148  36.3874213  77.2207859
  44.5267822  37.0773474  77.3087987  45.9884547  36.7770644  77.5641845
  34.9370030  28.8544858  74.4647424  35.5113781  28.6320040  73.7320617
  35.5241012  28.9233553  75.2176025  43.9949607  34.7418585  75.2711801
  44.5081489  35.3748577  75.7733510  44.6450831  34.1419781  74.9055161
  35.2639617  30.8849319  68.4843309  34.4276929  31.2224006  68.8052584
  35.1244386  30.7498299  67.5470446  37.2392697  25.7286107  73.1922493
  36.5857110  25.4135124  72.5679108  37.1973171  25.1061848  73.9182316
  40.4730438  32.2168041  77.5170141  39.5552999  32.4382988  77.3591829
  40.8890581  32.2914351  76.6581848  44.7611403  39.7224587  73.3990943
  44.3073730  38.8815497  73.4556134  44.1305370  40.3585985  73.7365723
  43.7044323  30.6516573  74.6291611  42.9667079  30.1393959  74.9601853
  43.9571096  30.2116954  73.8174887  43.2044342  41.5601083  74.3340761
  43.4967317  42.1206140  73.6153127  43.7142963  41.8529644  75.0893920
  30.0980306  33.8323511  73.6114978  29.9004706  33.2392872  72.8866044
  29.5426970  33.5275722  74.3290917  38.0777030  33.7246618  75.7309571
  38.1325639  32.7720454  75.6552048  37.2668232  33.8806057  76.2150869
  36.0169390  32.3423678  73.4899950  35.2037255  32.6417848  73.8965142
  36.5128384  31.9479366  74.2074432  38.1677967  42.3381434  75.4234214
  38.1254146  42.5642281  74.4942747  39.0840666  42.1044809  75.5720016
  41.6143601  32.8065502  82.3214844  41.9692989  33.0336975  83.1809309
  42.2615732  33.1383879  81.6992099  35.5083464  29.9142033  79.1061185
  36.1482844  29.7730792  78.4084148  34.6760995  29.6276546  78.7299787
  47.3710718  37.9960465  78.0375444  47.8047224  37.9035754  78.8858498
  48.0842298  37.9717965  77.3995460  36.2843768  39.2144463  75.2196177
  37.0784367  38.7194784  75.0178752  35.5735461  38.6862327  74.8563883
  41.1038613  41.5962559  79.5708545  41.1575635  42.1653495  80.3386261
  40.2353394  41.7664444  79.2062582  32.5926532  33.3587545  71.2955930
  31.6624120  33.2972001  71.5125892  32.6884004  32.8363498  70.4992571
  32.5112081  29.8842358  73.8834172  32.7718898  30.7987691  73.7743332
  33.3329253  29.4166801  74.0330784  33.9837006  31.2980115  81.0532996
  34.6560059  31.0897477  80.4045645  33.1566793  31.1002201  80.6138228
  48.2326267  38.0384166  80.5708330  48.4262157  38.9429976  80.8167605
  48.1326885  37.5791585  81.4046915  39.8862578  27.9242056  83.0698657
  39.2390493  28.6232006  82.9763133  40.6563593  28.3578200  83.4374905
  43.2941376  38.1890908  86.1449210  43.1426882  37.9601460  85.2279294
  43.2846055  39.1461510  86.1580555  40.0626712  35.7622821  81.1295477
  40.9918772  35.9133981  80.9564444  39.6417742  35.8506842  80.2744123
  38.8615044  39.7873485  78.8994014  38.7226130  39.4192270  79.7719952
  38.0729640  40.3021125  78.7277972  39.4563196  44.8882582  70.2419551
  39.6314952  44.4170625  71.0565174  38.7695984  45.5148348  70.4700812
  40.4120259  39.1655088  76.2882852  40.0770092  39.1255858  77.1840502
  39.9124205  38.4999804  75.8153262  34.3864503  34.5722718  81.8135433
  34.2484301  33.8402957  82.4146972  35.2969427  34.4831618  81.5319621
  37.0146804  34.2842678  81.3019113  37.7246423  33.6435870  81.2605731
  36.9716112  34.5355572  82.2245294  45.0033583  41.2210031  84.2225692
  44.9446129  40.5369251  83.5556275  45.4053101  41.9629021  83.7706318
  35.7275738  31.2707895  83.1214752  35.1913095  30.8198634  83.7736349
  35.1392446  31.4053804  82.3785217  34.0224281  48.0371945  77.0159411
  34.2620880  48.6690469  77.6938430  33.1793478  47.6859985  77.3024770
  45.0050990  39.1849615  82.4539672  44.1177769  38.8475537  82.5766071
  45.5749541  38.4532646  82.6908437  26.6580137  35.5173707  75.7782723
  27.3451177  35.2035437  75.1903738  26.5028266  36.4215071  75.5049975
  31.4614859  30.4063903  80.2067747  31.3773048  29.7989573  79.4718157
  30.6397566  30.8972921  80.2077243  38.5352143  43.8451067  79.4200915
  38.4622315  44.6506039  79.9320220  38.0929536  44.0443033  78.5948936
  38.3241923  43.0822837  72.9303737  37.5409445  43.6244517  73.0241961
  39.0234668  43.5996817  73.3297978  41.6338573  28.8917467  75.5737942
  42.1307273  28.1387429  75.2539012  40.8625555  28.9281783  75.0081151
  40.9950827  43.7437901  81.5759074  41.7078799  44.3785366  81.5034975
  40.5040855  43.8401767  80.7599075  38.2173542  31.0334850  75.3009627
  37.8471329  30.4805890  75.9890532  38.7132634  30.4292983  74.7484627
  36.0462740  41.4932345  82.3964644  36.7472200  42.1268828  82.5494039
  35.5757855  41.8347076  81.6360284  44.0757568  25.8587060  77.7217301
  43.1620648  26.0891287  77.8899508  44.5050669  25.9425504  78.5731333
  43.8464026  34.0476952  80.2217195  43.1935477  34.2952860  79.5669648
  44.2244406  33.2341090  79.8879672  40.8071200  44.0836645  74.3245365
  40.9893595  43.2658301  74.7873117  41.6304186  44.3004338  73.8870255
  41.1413366  43.0104830  71.5860414  41.6701132  42.4997285  70.9730576
  41.4041585  42.6947361  72.4505947  39.8951599  34.7896763  86.7083232
  39.2192236  34.6890892  87.3785607  40.7179233  34.6335977  87.1719229
  31.6430458  41.0268700  79.3295747  32.2283895  40.2812388  79.4623651
  31.4455297  41.3372656  80.2132411  34.4969114  44.0619947  74.3458190
  33.8279489  44.5466075  73.8622230  34.3581983  44.3089168  75.2601568
  26.2348113  33.5974300  78.0500190  26.2732213  33.0637891  78.8437308
  25.7288406  33.0709505  77.4311167  38.6374382  46.0963691  80.9440848
  39.1892690  46.2595312  81.7089933  38.9780576  46.6868128  80.2720873
  33.6138875  28.4438840  81.5462733  33.6780202  29.3053671  81.1340130
  33.5505996  27.8312842  80.8135091  33.0891148  30.5161973  85.1935767
  33.7163187  30.1339050  85.8073291  32.2319067  30.2976175  85.5591459
  43.4885257  40.9224948  86.7989502  44.0325161  41.5354906  86.3044457
  42.9072101  41.4804527  87.3156515  29.8656691  32.3238402  71.1254122
  30.1610132  31.4149080  71.0721175  28.9644727  32.3026141  70.8035124
  41.7742770  44.0445666  77.9304530  41.6493909  43.2435406  77.4215476
  42.4321861  44.5391859  77.4418500  33.3950938  30.3994399  77.1081670
  32.6737524  31.0130366  76.9689144  34.1844194  30.9352163  77.0298316
  43.8377678  41.8454686  79.5584080  42.8908013  41.7260037  79.4862407
  44.1860451  40.9577184  79.6410342  36.1977251  27.7348825  83.3822322
  36.7211653  27.9811122  84.1448631  35.9789585  28.5668860  82.9625459
  31.5944532  30.0052500  71.2493447  31.2657238  29.1249879  71.0668553
  31.9483903  29.9500168  72.1369836  40.8424111  41.6407402  75.7588432
  40.6949074  40.7124110  75.9396002  41.6677605  41.6627493  75.2745508
  34.7086355  30.2925470  71.6168925  35.0482428  30.8211391  70.8947533
  35.1558476  30.6305876  72.3927491  44.4458233  42.4635961  76.8453305
  45.3704781  42.2578822  76.7077756  44.2773536  42.2152362  77.7542647
  37.4029796  28.6762520  81.0671993  37.0626617  27.8770333  81.4692672
  36.6968803  28.9764231  80.4948826  38.0546268  25.7611833  79.5199316
  38.8772337  25.2872311  79.3978206  38.2984332  26.5402316  80.0198002
  36.6954503  28.7900091  69.8162217  37.4162865  29.1681344  69.3125934
  36.0719807  29.5088968  69.9197195  35.5784847  32.4530953  77.3291294
  35.4329428  32.7671256  78.2215576  35.1010051  33.0715854  76.7762193
  37.4381230  29.4433501  77.3772184  37.4242799  28.5474595  77.0404482
  38.1553658  29.4504165  78.0110470  39.2907361  29.8770841  79.4225311
  39.0325138  30.7987912  79.4209642  38.7592401  29.4801276  80.1125775
  30.0530509  34.9936298  80.2678955  29.5083977  35.7696106  80.3999230
  30.9309859  35.3407102  80.1098077  36.8418126  28.3247882  72.6459754
  36.9634037  27.3964528  72.8450641  36.5520168  28.3386568  71.7338069
  39.7109316  26.0102792  75.7826474  39.7331013  26.0742125  74.8278453
  40.1277375  25.1707301  75.9766980  30.8396531  34.1206194  83.1609112
  30.0978267  34.2688829  83.7473743  30.5189275  34.3814460  82.2975862
  38.7840194  43.6622172  82.9589502  39.0927320  43.4171319  83.8312202
  39.5815676  43.8668811  82.4708372  38.8060806  45.8160082  75.1894879
  38.3665796  45.3236461  75.8827736  39.5568923  45.2733049  74.9486954
  31.2853145  42.0071623  75.1919507  32.1111165  41.7075395  74.8118150
  30.9347197  41.2379245  75.6409296  36.2534678  41.3598091  77.2617180
  35.6314687  40.6968796  76.9619408  36.9239545  41.3859223  76.5790828
  29.4861750  39.9257949  76.1508440  28.6493658  39.4980123  75.9692442
  29.4585395  40.1190392  77.0879232  36.3259205  29.8379879  86.8549687
  36.3747361  30.7142002  86.4727456  36.8681719  29.2957272  86.2821330
  46.8114051  40.3821002  86.1350824  46.0209595  40.3645141  85.5955323
  46.5747406  40.9209296  86.8899860  46.9311926  37.2313469  83.4483552
  46.9809931  37.0663476  84.3899075  46.8225849  36.3640728  83.0581433
  44.2215688  33.2144397  84.7642859  45.1225551  33.0750861  84.4726857
  44.2963663  33.3798851  85.7041036  38.5558494  30.5911251  83.6096045
  37.6861803  30.8844817  83.3378634  38.7917974  31.1751696  84.3303309
  48.4330123  39.6510410  83.6925574  48.1414931  40.0140391  84.5289035
  47.8202254  38.9377418  83.5138906  46.6817311  34.7743025  82.1605632
  47.1571433  34.9670671  81.3524483  45.7582876  34.8302211  81.9149015
  33.5700818  35.9367192  71.7436710  33.3246860  35.0329522  71.9416920
  33.7396732  35.9384342  70.8016188  41.2597528  26.8090868  81.1261466
  41.7779471  27.5451895  80.8007954  40.9052660  27.1154862  81.9608225
  32.8396465  31.6695549  69.2422871  32.1465710  31.7439904  68.5862907
  32.5948217  30.9055893  69.7644388  45.3818980  31.6508785  80.3933937
  46.3336403  31.7506882  80.4146161  45.2122430  30.8587053  80.9032022
  43.4033360  28.7364368  80.5793338  42.8083292  29.0169381  79.8839827
  43.1183056  29.2258269  81.3510079  47.8607058  34.8714904  79.5076237
  47.8283378  33.9330905  79.6935921  48.4707681  34.9498941  78.7742062
  48.0101546  31.6625948  79.5534520  47.4940595  30.8784405  79.3664449
  48.8941495  31.3344665  79.7181040  45.6712273  25.4066963  75.5130333
  45.4737094  25.0982052  76.3973665  46.2811979  26.1328602  75.6428263
  53.6783608  35.9330911  78.6482274  54.4086996  35.6716199  79.2089977
  53.0690553  35.1959633  78.6884342  51.7598905  34.0738774  79.2456725
  51.0332068  33.9394739  78.6373216  51.3446192  34.3815603  80.0513443
  39.5829081  37.7928704  87.0104098  40.5032091  37.9707303  87.2044144
  39.5478664  36.8484749  86.8583797  28.8011246  32.9867297  75.9357373
  28.4814031  32.1332605  75.6431747  28.2544674  33.2015875  76.6915340
  32.5791154  35.7029738  79.6526879  32.7977164  36.6346846  79.6714913
  32.9916928  35.3437713  80.4381683  28.6699506  36.6070209  77.9050494
  27.9762978  36.1924162  77.3920449  29.4172497  36.6490745  77.3083913
  37.3150289  34.7060083  87.8594690  36.8317371  35.5060443  88.0658579
  37.4011228  34.7168028  86.9062134  30.5836249  36.5388463  75.7816509
  30.5606937  36.6376150  74.8298392  30.8936885  37.3853613  76.1033675
  33.2423627  38.5964618  79.8963123  34.1966880  38.5648560  79.8293055
  33.0436150  38.1355241  80.7113349  33.8323009  37.1665734  82.4633921
  34.6515898  37.6609812  82.4868758  34.1059816  36.2497702  82.4351489
  46.9404141  29.5823007  75.5416216  47.7164531  30.0719459  75.8140833
  46.2152275  30.0081061  75.9988085  31.5973855  44.1384237  76.9133321
  31.4628323  43.3784638  76.3471319  31.1805918  44.8625137  76.4462110
  34.7542981  45.0353554  77.1251764  34.6375365  45.9798987  77.0230454
  33.9335428  44.7327116  77.5137563  29.0857923  31.5003867  83.1626118
  29.7316787  30.9902821  83.6513343  28.8775074  32.2372549  83.7369543
  41.6111315  38.5684715  88.6618259  42.4802475  38.7425367  88.3004894
  41.1318067  39.3879132  88.5393988  37.6061533  25.7643912  68.9150014
  37.5940203  26.7085752  69.0718285  38.4984955  25.5814057  68.6209476
  35.7797495  45.6881816  80.3407692  36.6824742  45.7205426  80.6574187
  35.5534865  44.7582267  80.3554028  37.5351097  44.4412802  77.0017771
  36.5846728  44.4414664  76.8882143  37.8383584  43.6945537  76.4853806
  33.4255414  28.6471485  87.2601132  34.2886876  28.2908289  87.4704457
  32.8520825  28.3085379  87.9476537  53.2703791  50.2773341  78.0663533
  53.9082201  50.1580088  77.3626873  53.1524634  51.2254185  78.1251486
  50.0793497  50.2300769  78.0025058  49.7412009  50.1141834  77.1145593
  50.9483265  49.8291934  77.9826064  50.5613280  51.3835621  83.9611264
  50.5501921  50.9888419  83.0891767  50.7233920  50.6501693  84.5545035
  43.4844745  53.5787437  76.8306170  44.2766037  53.2378262  76.4152469
  43.7241395  53.6882412  77.7508323  47.2820541  54.1672733  82.9090448
  46.9910407  55.0718363  82.7937114  47.9177526  54.2089260  83.6234517
  48.2076748  51.5449581  79.4991807  48.8040320  51.3205603  78.7848770
  48.2651720  50.8034327  80.1017255  52.8245059  48.0024795  75.1416741
  53.6108149  47.5844218  74.7907158  53.0883764  48.9070887  75.3098390
  58.2253487  47.9400028  76.0449720  58.9578658  47.3699245  76.2787549
  57.4692842  47.5521628  76.4856226  49.8429606  50.3627269  73.2413062
  49.4787814  49.8357890  73.9525984  50.6996722  49.9725738  73.0679548
  55.7478907  41.6521602  80.5044329  55.4162232  42.5217013  80.2805544
  55.1524520  41.3357886  81.1838359  52.2410426  53.8534148  79.9040241
  51.9411150  54.7559187  79.7956049  51.8961486  53.5866331  80.7561394
  45.6922908  50.3047945  75.9376946  44.7673404  50.1724159  76.1454637
  45.9407321  51.0842164  76.4346888  55.6407570  46.3716688  77.5837679
  54.7324448  46.3032097  77.2896440  55.5895166  46.8488633  78.4119504
  43.0531719  49.9481218  76.7720735  43.1824100  50.2015697  77.6860147
  42.3729170  50.5408926  76.4525390  47.2231206  60.6178468  72.8711209
  47.1455236  61.5686293  72.9499690  46.6192850  60.2724341  73.5286135
  49.7148436  47.7906334  85.5272576  48.9381770  48.3500254  85.5175441
  50.3538999  48.2763117  86.0487446  57.5069217  44.5733127  79.3615553
  56.8643597  44.8665660  78.7155347  57.0024145  44.4586047  80.1668749
  47.9694808  50.5991787  85.0890543  48.7109493  51.1376831  84.8125367
  47.2631794  51.2258076  85.2462095  53.4450148  52.7420928  83.6862704
  53.8533504  52.3003338  82.9417337  52.7227409  52.1673555  83.9396897
  49.7981218  47.6793534  81.0596261  50.6442413  48.1032948  81.2030910
  49.7379856  47.0227159  81.7534824  53.7678963  53.3022118  77.4414993
  53.1387825  53.4667832  76.7391061  53.3804625  53.7163728  78.2125957
  57.6468194  54.2376556  74.7959357  56.9619233  54.6175457  74.2456390
  57.7312044  54.8471883  75.5291305  52.9480663  45.3397903  82.7177435
  52.7041595  46.0939963  82.1811711  53.2240594  45.7183250  83.5524682
  54.9019126  51.8836515  81.3954701  55.1136021  52.5268275  80.7189082
  54.8548874  51.0498832  80.9276631  52.5045355  44.4954336  78.2991273
  51.6429834  44.7935589  78.5908010  52.5307790  44.7124735  77.3672305
  46.2131006  52.5868008  77.6444842  46.7832363  53.0155276  77.0062326
  46.8039117  52.3050593  78.3429027  48.2575811  49.1619679  71.5154643
  48.9599854  49.6140722  71.9828570  47.9256439  48.5203498  72.1434537
  46.7056172  47.7531435  85.8905853  46.0754833  48.4347716  86.1241250
  46.5992260  47.6414517  84.9458991  42.0001144  47.4203231  76.8171777
  41.2100198  47.6760760  76.3411888  42.4912392  48.2351569  76.9223818
  56.0164954  54.7608471  79.5677058  56.8382398  54.3588658  79.2859740
  56.0127357  54.6576705  80.5193174  43.9515890  47.7847811  73.7755254
  43.1547053  47.8966505  74.2938749  43.7241482  48.1234463  72.9096144
  49.7821557  54.3092514  81.7237768  49.8465990  54.7712921  82.5595940
  49.0732481  53.6789879  81.8520078  40.2838847  47.6733722  79.2486768
  40.5346886  48.5580732  79.5144344  40.8198396  47.4938323  78.4761860
  64.1070947  51.1047219  75.9162029  63.3534655  50.5354617  75.7606034
  64.2418488  51.0709884  76.8632664  45.9836915  42.0552201  88.2531104
  45.5903860  41.5018400  88.9278748  46.8003055  42.3662780  88.6437621
  42.9498973  53.4936059  72.1644674  43.4623493  54.2879310  72.3150238
  43.6021685  52.7962350  72.0978275  48.9004876  43.4710080  85.8451360
  49.6414589  44.0717233  85.7655823  49.1322799  42.7287718  85.2869403
  44.0446214  48.6566448  84.1229590  43.9299729  47.7551705  84.4236689
  43.1890732  48.9030144  83.7714407  51.1238052  56.5984188  85.7217091
  50.6801906  55.8120566  85.4037995  51.7855265  56.7863338  85.0560982
  45.8825173  58.1279989  80.2477769  46.4332598  57.9997053  79.4754763
  45.0436649  58.4274878  79.8972662  53.2219290  56.8786988  83.7498492
  53.2037765  57.6995869  83.2578761  54.1439210  56.7541063  83.9748633
  49.6792344  54.3931117  84.5922000  50.2120681  53.6319405  84.3621308
  49.1506425  54.1004769  85.3346155  52.8462039  39.4991183  80.1215642
  52.5026308  40.3892825  80.0454753  53.2141001  39.3092841  79.2585227
  40.9147889  51.8224714  72.9404244  41.7523111  52.2321722  72.7237952
  41.0926157  50.8824156  72.9104438  51.9258579  41.8695838  78.0864875
  51.4223375  41.8325974  77.2732681  52.2189186  42.7788581  78.1461532
  48.1701465  41.9534568  77.0931057  49.0354462  41.7577377  76.7336947
  48.2378974  41.7244920  78.0200414  57.7846596  52.2432149  70.5641251
  57.0076038  51.9043308  70.1196413  58.4638077  52.2484772  69.8896216
  56.0237902  51.7166130  77.2207859  55.3661577  52.4065392  77.3087987
  56.8278302  52.1062562  77.5641845  45.7763784  44.1836776  74.4647424
  46.3507536  43.9611958  73.7320617  46.3634767  44.2525471  75.2176025
  54.8343361  50.0710503  75.2711801  55.3475243  50.7040495  75.7733510
  55.4844585  49.4711698  74.9055161  51.3124192  47.5459958  77.5170141
  50.3946754  47.7674905  77.3591829  51.7284336  47.6206269  76.6581848
  52.0959240  48.9451374  72.6472821  52.8431059  49.4572771  72.3379943
  52.3650829  48.6235427  73.5077215  55.6005157  55.0516504  73.3990943
  55.1467485  54.2107414  73.4556134  54.9699124  55.6877903  73.7365723
  54.5438077  45.9808490  74.6291611  53.8060834  45.4685877  74.9601853
  54.7964851  45.5408872  73.8174887  54.0438097  56.8893001  74.3340761
  54.3361071  57.4498058  73.6153127  54.5536717  57.1821562  75.0893920
  40.9374060  49.1615429  73.6114978  40.7398460  48.5684790  72.8866044
  40.3820724  48.8567639  74.3290917  48.9170784  49.0538535  75.7309571
  48.9719394  48.1012372  75.6552048  48.1061986  49.2097975  76.2150869
  46.8563144  47.6715595  73.4899950  46.0431010  47.9709766  73.8965142
  47.3522138  47.2771284  74.2074432  49.0071722  57.6673352  75.4234214
  48.9647901  57.8934198  74.4942747  49.9234421  57.4336727  75.5720016
  52.4537356  48.1357420  82.3214844  52.8086743  48.3628893  83.1809309
  53.1009487  48.4675796  81.6992099  58.1835093  51.2575856  73.0264173
  58.0452991  51.4477452  72.0985362  57.8271311  52.0195238  73.4832224
  46.3477219  45.2433951  79.1061185  46.9876598  45.1022710  78.4084148
  45.5154749  44.9568464  78.7299787  58.2104472  53.3252383  78.0375444
  58.6440979  53.2327672  78.8858498  58.9236053  53.3009883  77.3995460
  51.9432367  56.9254477  79.5708545  51.9969389  57.4945413  80.3386261
  51.0747149  57.0956362  79.2062582  43.4320286  48.6879463  71.2955930
  42.5017874  48.6263918  71.5125892  43.5277758  48.1655416  70.4992571
  43.3505835  45.2134276  73.8834172  43.6112653  46.1279609  73.7743332
  44.1723008  44.7458718  74.0330784  44.8230761  46.6272033  81.0532996
  45.4953814  46.4189395  80.4045645  43.9960547  46.4294119  80.6138228
  59.0720022  53.3676083  80.5708330  59.2655912  54.2721894  80.8167605
  58.9720640  52.9083502  81.4046915  50.7256333  43.2533974  83.0698657
  50.0784248  43.9523923  82.9763133  51.4957348  43.6870118  83.4374905
  54.1335131  53.5182826  86.1449210  53.9820637  53.2893378  85.2279294
  54.1239810  54.4753427  86.1580555  50.9020467  51.0914739  81.1295477
  51.8312527  51.2425898  80.9564444  50.4811497  51.1798760  80.2744123
  49.7008799  55.1165403  78.8994014  49.5619884  54.7484188  79.7719952
  48.9123395  55.6313043  78.7277972  51.2514014  54.4947006  76.2882852
  50.9163846  54.4547776  77.1840502  50.7517960  53.8291722  75.8153262
  45.2258258  49.9014636  81.8135433  45.0878056  49.1694875  82.4146972
  46.1363181  49.8123536  81.5319621  47.8540558  49.6134595  81.3019113
  48.5640177  48.9727787  81.2605731  47.8109867  49.8647490  82.2245294
  55.8427337  56.5501949  84.2225692  55.7839883  55.8661169  83.5556275
  56.2446856  57.2920939  83.7706318  46.5669492  46.5999813  83.1214752
  46.0306849  46.1490552  83.7736349  45.9786201  46.7345722  82.3785217
  55.8444744  54.5141532  82.4539672  54.9571523  54.1767454  82.5766071
  56.4143295  53.7824564  82.6908437  37.4973892  50.8465624  75.7782723
  38.1844931  50.5327354  75.1903738  37.3422020  51.7506989  75.5049975
  42.3008614  45.7355821  80.2067747  42.2166802  45.1281490  79.4718157
  41.4791320  46.2264839  80.2077243  49.3745898  59.1742985  79.4200915
  49.3016069  59.9797956  79.9320220  48.9323291  59.3734951  78.5948936
  60.3262085  49.9249750  77.2156233  60.3151961  50.8074465  76.8450167
  59.4579464  49.5721301  77.0210770  51.8344581  59.0729819  81.5759074
  52.5472554  59.7077284  81.5034975  51.3434610  59.1693685  80.7599075
  53.5562108  52.9781072  73.1476365  52.6218387  53.0982534  72.9781070
  53.7338777  52.0753538  72.8836375  49.0567296  46.3626767  75.3009627
  48.6865084  45.8097808  75.9890532  49.5526389  45.7584901  74.7484627
  56.9434660  48.8198391  73.6826399  57.4095112  49.6526382  73.6086702
  57.3942160  48.3543372  74.3871658  46.8856495  56.8224262  82.3964644
  47.5865954  57.4560745  82.5494039  46.4151610  57.1638994  81.6360284
  55.0110891  55.1642212  70.6812551  55.2870735  55.0498807  71.5906426
  54.1415389  54.7659697  70.6424725  54.9151322  41.1878978  77.7217301
  54.0014402  41.4183205  77.8899508  55.3444424  41.2717422  78.5731333
  54.6857781  49.3768870  80.2217195  54.0329231  49.6244777  79.5669648
  55.0638161  48.5633008  79.8879672  51.6464955  59.4128563  74.3245365
  51.8287349  58.5950219  74.7873117  52.4697941  59.6296255  73.8870255
  50.7345354  50.1188681  86.7083232  50.0585991  50.0182810  87.3785607
  51.5572988  49.9627895  87.1719229  45.3362868  59.3911865  74.3458190
  44.6673243  59.8757992  73.8622230  45.1975738  59.6381085  75.2601568
  37.0741868  48.9266218  78.0500190  37.1125967  48.3929808  78.8437308
  36.5682160  48.4001423  77.4311167  44.4532630  43.7730758  81.5462733
  44.5173956  44.6345589  81.1340130  44.3899750  43.1604760  80.8135091
  43.9284902  45.8453891  85.1935767  44.5556941  45.4630968  85.8073291
  43.0712821  45.6268093  85.5591459  54.3279011  56.2516866  86.7989502
  54.8718915  56.8646824  86.3044457  53.7465856  56.8096444  87.3156515
  40.7050445  47.6530320  71.1254122  41.0003886  46.7440998  71.0721175
  39.8038481  47.6318059  70.8035124  52.6136524  59.3737584  77.9304530
  52.4887663  58.5727324  77.4215476  53.2715615  59.8683777  77.4418500
  44.2344692  45.7286316  77.1081670  43.5131278  46.3422284  76.9689144
  45.0237948  46.2644081  77.0298316  54.6771432  57.1746604  79.5584080
  53.7301768  57.0551955  79.4862407  55.0254206  56.2869102  79.6410342
  47.0371006  43.0640743  83.3822322  47.5605408  43.3103039  84.1448631
  46.8183339  43.8960778  82.9625459  42.4338287  45.3344417  71.2493447
  42.1050993  44.4541796  71.0668553  42.7877658  45.2792086  72.1369836
  51.6817866  56.9699320  75.7588432  51.5342828  56.0416028  75.9396002
  52.5071359  56.9919411  75.2745508  45.5480110  45.6217387  71.6168925
  45.8876182  46.1503308  70.8947533  45.9952230  45.9597793  72.3927491
  55.2851988  57.7927879  76.8453305  56.2098535  57.5870740  76.7077756
  55.1167291  57.5444280  77.7542647  48.2423551  44.0054438  81.0671993
  47.9020371  43.2062251  81.4692672  47.5362557  44.3056149  80.4948826
  48.8940023  41.0903750  79.5199316  49.7166092  40.6164229  79.3978206
  49.1378086  41.8694234  80.0198002  46.4178601  47.7822871  77.3291294
  46.2723182  48.0963174  78.2215576  45.9403805  48.4007771  76.7762193
  48.2774984  44.7725419  77.3772184  48.2636553  43.8766512  77.0404482
  48.9947412  44.7796083  78.0110470  50.1301115  45.2062759  79.4225311
  49.8718893  46.1279830  79.4209642  49.5986155  44.8093194  80.1125775
  40.8924264  50.3228215  80.2678955  40.3477732  51.0988023  80.3999230
  41.7703613  50.6699020  80.1098077  47.6811880  43.6539799  72.6459754
  47.8027791  42.7256445  72.8450641  47.3913923  43.6678485  71.7338069
  60.9286695  51.0749969  73.8205696  61.3717841  50.3257294  73.4224820
  60.0513205  51.0660106  73.4379428  41.6790285  49.4498112  83.1609112
  40.9372021  49.5980747  83.7473743  41.3583030  49.7106377  82.2975862
  57.9613899  55.0780016  70.8299626  58.4865223  55.4167289  70.1048946
  57.8736252  54.1427032  70.6462760  49.6233948  58.9914090  82.9589502
  49.9321075  58.7463237  83.8312202  50.4209430  59.1960728  82.4708372
  42.1246899  57.3363540  75.1919507  42.9504919  57.0367312  74.8118150
  41.7740951  56.5671163  75.6409296  47.0928432  56.6890009  77.2617180
  46.4708442  56.0260714  76.9619408  47.7633299  56.7151140  76.5790828
  47.1652960  45.1671797  86.8549687  47.2141115  46.0433919  86.4727456
  47.7075474  44.6249190  86.2821330  57.6507805  55.7112920  86.1350824
  56.8603349  55.6937059  85.5955323  57.4141160  56.2501214  86.8899860
  57.7705680  52.5605386  83.4483552  57.8203685  52.3955394  84.3899075
  57.6619604  51.6932645  83.0581433  55.0609443  48.5436314  84.7642859
  55.9619306  48.4042779  84.4726857  55.1357417  48.7090769  85.7041036
  49.3952248  45.9203169  83.6096045  48.5255558  46.2136735  83.3378634
  49.6311729  46.5043614  84.3303309  59.2723877  54.9802328  83.6925574
  58.9808686  55.3432308  84.5289035  58.6596009  54.2669336  83.5138906
  60.4719560  52.5455208  76.2128144  61.3066451  52.9845012  76.3765704
  60.6078688  52.0693861  75.3936390  57.5211066  50.1034942  82.1605632
  57.9965187  50.2962589  81.3524483  56.5976631  50.1594128  81.9149015
  44.4094572  51.2659110  71.7436710  44.1640614  50.3621440  71.9416920
  44.5790487  51.2676260  70.8016188  52.0991282  42.1382786  81.1261466
  52.6173226  42.8743813  80.8007954  51.7446415  42.4446779  81.9608225
  56.2212735  46.9800702  80.3933937  57.1730157  47.0798800  80.4146161
  56.0516185  46.1878971  80.9032022  54.2427114  44.0656286  80.5793338
  53.6477046  44.3461298  79.8839827  53.9576811  44.5550187  81.3510079
  58.7000812  50.2006822  79.5076237  58.6677132  49.2622823  79.6935921
  59.3101436  50.2790859  78.7742062  58.8495301  46.9917866  79.5534520
  58.3334349  46.2076322  79.3664449  59.7335249  46.6636582  79.7181040
  64.5177362  51.2622829  78.6482274  65.2480751  51.0008117  79.2089977
  63.9084308  50.5251551  78.6884342  62.5992659  49.4030692  79.2456725
  61.8725823  49.2686657  78.6373216  62.1839946  49.7107520  80.0513443
  50.4222836  53.1220621  87.0104098  51.3425845  53.2999220  87.2044144
  50.3872419  52.1776667  86.8583797  39.6405001  48.3159215  75.9357373
  39.3207785  47.4624523  75.6431747  39.0938429  48.5307793  76.6915340
  43.4184908  51.0321656  79.6526879  43.6370918  51.9638764  79.6714913
  43.8310682  50.6729630  80.4381683  48.2912774  46.6054862  89.0429628
  48.1909500  47.5549219  88.9741719  48.0734316  46.2773101  88.1705698
  39.5093261  51.9362126  77.9050494  38.8156732  51.5216079  77.3920449
  40.2566252  51.9782663  77.3083913  48.1544044  50.0352001  87.8594690
  47.6711125  50.8352361  88.0658579  48.2404983  50.0459945  86.9062134
  41.4230003  51.8680380  75.7816509  41.4000691  51.9668067  74.8298392
  41.7330640  52.7145531  76.1033675  44.0817381  53.9256535  79.8963123
  45.0360635  53.8940478  79.8293055  43.8829905  53.4647159  80.7113349
  44.6716763  52.4957651  82.4633921  45.4909652  52.9901730  82.4868758
  44.9453571  51.5789619  82.4351489  57.7797896  44.9114925  75.5416216
  58.5558286  45.4011377  75.8140833  57.0546030  45.3372979  75.9988085
  60.2170454  45.6242544  76.5990157  60.8114945  45.3838280  75.8883465
  60.2897038  44.9049674  77.2263693  54.4024383  50.4022940  72.0412167
  54.3459585  50.8591491  71.2019799  54.9552726  49.6413624  71.8635010
  58.2129189  46.1912671  72.8662286  57.9566123  45.7909307  73.6970494
  57.5882057  46.9056465  72.7412425  62.5241527  48.9308745  75.3733578
  61.9641085  49.0001934  76.1465140  61.9185030  48.7549729  74.6533074
  45.5936736  60.3645472  77.1251764  45.4769120  61.3090904  77.0230454
  44.7729182  60.0619033  77.5137563  39.9251678  46.8295785  83.1626118
  40.5710541  46.3194739  83.6513343  39.7168829  47.5664467  83.7369543
  52.4505070  53.8976633  88.6618259  53.3196229  54.0717285  88.3004894
  51.9711821  54.7171049  88.5393988  48.3744852  59.7704720  77.0017771
  47.4240483  59.7706582  76.8882143  48.6777338  59.0237455  76.4853806
  44.2649169  43.9763402  87.2601132  45.1280630  43.6200207  87.4704457
  43.6914579  43.6377297  87.9476537  64.1097545  65.6065259  78.0663533
  64.7475955  65.4872006  77.3626873  63.9918388  66.5546103  78.1251486
  60.9187252  65.5592687  78.0025058  60.5805763  65.4433751  77.1145593
  61.7877020  65.1583852  77.9826064  61.4007035  66.7127538  83.9611264
  61.3895675  66.3180337  83.0891767  61.5627674  65.9793611  84.5545035
  58.1214296  69.4964650  82.9090448  57.8304162  70.4010281  82.7937114
  58.7571280  69.5381178  83.6234517  59.0470503  66.8741499  79.4991807
  59.6434075  66.6497521  78.7848770  59.1045474  66.1326244  80.1017255
  63.6638814  63.3316712  75.1416741  64.4501903  62.9136136  74.7907158
  63.9277518  64.2362805  75.3098390  69.0647241  63.2691946  76.0449720
  69.7972413  62.6991162  76.2787549  68.3086597  62.8813546  76.4856226
  60.6823361  65.6919187  73.2413062  60.3181568  65.1649808  73.9525984
  61.5390477  65.3017656  73.0679548  66.5872661  56.9813520  80.5044329
  66.2555986  57.8508931  80.2805544  65.9918275  56.6649804  81.1838359
  63.0804181  69.1826066  79.9040241  62.7804904  70.0851105  79.7956049
  62.7355240  68.9158249  80.7561394  66.4801325  61.7008606  77.5837679
  65.5718202  61.6324014  77.2896440  66.4288921  62.1780551  78.4119504
  60.5542190  63.1198251  85.5272576  59.7775525  63.6792172  85.5175441
  61.1932754  63.6055034  86.0487446  68.3462971  59.9025044  79.3615553
  67.7037351  60.1957577  78.7155347  67.8417900  59.7877965  80.1668749
  66.0003135  63.6488217  70.0501412  66.9120991  63.8815604  69.8749109
  65.4912782  64.2325262  69.4876490  58.8088563  65.9283705  85.0890543
  59.5503247  66.4668749  84.8125367  58.1025548  66.5549994  85.2462095
  64.2843902  68.0712845  83.6862704  64.6927258  67.6295256  82.9417337
  63.5621164  67.4965473  83.9396897  60.6374972  63.0085452  81.0596261
  61.4836168  63.4324866  81.2030910  60.5773610  62.3519076  81.7534824
  64.6072717  68.6314036  77.4414993  63.9781580  68.7959750  76.7391061
  64.2198379  69.0455645  78.2125957  68.4861949  69.5668474  74.7959357
  67.8012987  69.9467375  74.2456390  68.5705798  70.1763800  75.5291305
  63.7874418  60.6689820  82.7177435  63.5435350  61.4231881  82.1811711
  64.0634348  61.0475168  83.5524682  65.7412881  67.2128433  81.3954701
  65.9529776  67.8560193  80.7189082  65.6942629  66.3790749  80.9276631
  63.3439110  59.8246253  78.2991273  62.4823589  60.1227507  78.5908010
  63.3701544  60.0416652  77.3672305  57.0524760  67.9159926  77.6444842
  57.6226117  68.3447194  77.0062326  57.6432872  67.6342510  78.3429027
  57.5449927  63.0823353  85.8905853  56.9148587  63.7639634  86.1241250
  57.4386014  62.9706435  84.9458991  66.8558709  70.0900388  79.5677058
  67.6776152  69.6880576  79.2859740  66.8521111  69.9868622  80.5193174
  60.6215312  69.6384432  81.7237768  60.6859745  70.1004839  82.5595940
  59.9126236  69.0081796  81.8520078  74.9464702  66.4339137  75.9162029
  74.1928410  65.8646535  75.7606034  75.0812243  66.4001801  76.8632664
  56.8230669  57.3844119  88.2531104  56.4297615  56.8310317  88.9278748
  57.6396810  57.6954697  88.6437621  59.7398630  58.8001998  85.8451360
  60.4808344  59.4009151  85.7655823  59.9716553  58.0579636  85.2869403
  54.8839968  63.9858365  84.1229590  54.7693483  63.0843622  84.4236689
  54.0284486  64.2322062  83.7714407  61.9631806  71.9276106  85.7217091
  61.5195660  71.1412484  85.4037995  62.6249020  72.1155256  85.0560982
  56.7218927  73.4571907  80.2477769  57.2726352  73.3288970  79.4754763
  55.8830403  73.7566796  79.8972662  64.0613044  72.2078905  83.7498492
  64.0431519  73.0287786  83.2578761  64.9832964  72.0832981  83.9748633
  60.5186098  69.7223035  84.5922000  61.0514435  68.9611323  84.3621308
  59.9900179  69.4296687  85.3346155  63.6855793  54.8283101  80.1215642
  63.3420063  55.7184743  80.0454753  64.0534756  54.6384759  79.2585227
  63.6506076  64.8191712  68.6288077  63.1352699  65.5896317  68.8676465
  63.3783384  64.1456848  69.2521139  61.2353187  59.6641413  73.6873316
  60.3794783  59.2748263  73.5078954  61.6480139  59.7433374  72.8273101
  62.7652334  57.1987756  78.0864875  62.2617129  57.1617891  77.2732681
  63.0582940  58.1080499  78.1461532  59.0095219  57.2826486  77.0931057
  59.8748216  57.0869294  76.7336947  59.0772728  57.0536838  78.0200414
  63.4392379  62.6918804  70.4547858  63.1342515  63.0064953  71.3058002
  64.3922821  62.7700224  70.4975191  66.8631657  67.0458048  77.2207859
  66.2055331  67.7357309  77.3087987  67.6672056  67.4354480  77.5641845
  56.6157539  59.5128694  74.4647424  57.1901290  59.2903875  73.7320617
  57.2028521  59.5817388  75.2176025  65.6737116  65.4002421  75.2711801
  66.1868998  66.0332412  75.7733510  66.3238340  64.8003616  74.9055161
  58.9180206  56.3869943  73.1922493  58.2644619  56.0718960  72.5679108
  58.8760680  55.7645683  73.9182316  62.1517947  62.8751876  77.5170141
  61.2340508  63.0966823  77.3591829  62.5678090  62.9498187  76.6581848
  62.9352994  64.2743292  72.6472821  63.6824813  64.7864689  72.3379943
  63.2044584  63.9527345  73.5077215  66.4398912  70.3808422  73.3990943
  65.9861239  69.5399332  73.4556134  65.8092879  71.0169820  73.7365723
  65.3831832  61.3100408  74.6291611  64.6454588  60.7977794  74.9601853
  65.6358605  60.8700790  73.8174887  64.8831851  72.2184919  74.3340761
  65.1754826  72.7789976  73.6153127  65.3930472  72.5113480  75.0893920
  65.4843459  54.0876660  75.2233380  65.7902336  53.2274024  74.9359295
  66.2096064  54.6794280  75.0232374  59.7564539  64.3830453  75.7309571
  59.8113148  63.4304290  75.6552048  58.9455741  64.5389892  76.2150869
  57.6956899  63.0007513  73.4899950  56.8824764  63.3001683  73.8965142
  58.1915893  62.6063202  74.2074432  63.2931110  63.4649337  82.3214844
  63.6480498  63.6920811  83.1809309  63.9403241  63.7967714  81.6992099
  69.0228847  66.5867773  73.0264173  68.8846746  66.7769369  72.0985362
  68.6665066  67.3487156  73.4832224  57.1870973  60.5725868  79.1061185
  57.8270353  60.4314628  78.4084148  56.3548504  60.2860382  78.7299787
  69.0498227  68.6544300  78.0375444  69.4834733  68.5619589  78.8858498
  69.7629807  68.6301801  77.3995460  62.7826122  72.2546394  79.5708545
  62.8363144  72.8237331  80.3386261  61.9140903  72.4248279  79.2062582
  55.6624515  61.9563951  81.0532996  56.3347568  61.7481313  80.4045645
  54.8354302  61.7586037  80.6138228  69.9113776  68.6968001  80.5708330
  70.1049666  69.6013811  80.8167605  69.8114394  68.2375420  81.4046915
  61.5650087  58.5825891  83.0698657  60.9178002  59.2815841  82.9763133
  62.3351102  59.0162035  83.4374905  64.9728885  68.8474744  86.1449210
  64.8214391  68.6185295  85.2279294  64.9633564  69.8045345  86.1580555
  61.7414221  66.4206656  81.1295477  62.6706281  66.5717816  80.9564444
  61.3205251  66.5090677  80.2744123  60.5402553  70.4457321  78.8994014
  60.4013639  70.0776105  79.7719952  59.7517149  70.9604960  78.7277972
  62.0907768  69.8238924  76.2882852  61.7557601  69.7839693  77.1840502
  61.5911714  69.1583639  75.8153262  56.0652012  65.2306554  81.8135433
  55.9271810  64.4986792  82.4146972  56.9756936  65.1415454  81.5319621
  58.6934313  64.9426513  81.3019113  59.4033931  64.3019705  81.2605731
  58.6503621  65.1939408  82.2245294  66.6821092  71.8793866  84.2225692
  66.6233638  71.1953086  83.5556275  67.0840610  72.6212856  83.7706318
  57.4063247  61.9291731  83.1214752  56.8700604  61.4782469  83.7736349
  56.8179955  62.0637640  82.3785217  66.6838499  69.8433450  82.4539672
  65.7965278  69.5059372  82.5766071  67.2537050  69.1116481  82.6908437
  60.2139652  74.5034902  79.4200915  60.1409824  75.3089874  79.9320220
  59.7717045  74.7026868  78.5948936  63.3126082  59.5501302  75.5737942
  63.8094782  58.7971264  75.2539012  62.5413064  59.5865619  75.0081151
  71.1655839  65.2541668  77.2156233  71.1545716  66.1366383  76.8450167
  70.2973219  64.9013218  77.0210770  62.6738336  74.4021737  81.5759074
  63.3866308  75.0369201  81.5034975  62.1828364  74.4985603  80.7599075
  64.3955863  68.3072989  73.1476365  63.4612141  68.4274452  72.9781070
  64.5732531  67.4045456  72.8836375  59.8961051  61.6918685  75.3009627
  59.5258838  61.1389725  75.9890532  60.3920143  61.0876818  74.7484627
  67.7828414  64.1490308  73.6826399  68.2488866  64.9818300  73.6086702
  68.2335915  63.6835290  74.3871658  57.7250249  72.1516180  82.3964644
  58.4259709  72.7852663  82.5494039  57.2545364  72.4930912  81.6360284
  65.7545077  56.5170895  77.7217301  64.8408157  56.7475122  77.8899508
  66.1838178  56.6009340  78.5731333  65.5251535  64.7060787  80.2217195
  64.8722986  64.9536695  79.5669648  65.9031915  63.8924926  79.8879672
  61.5739108  65.4480598  86.7083232  60.8979745  65.3474728  87.3785607
  62.3966742  65.2919812  87.1719229  60.3161891  76.7547526  80.9440848
  60.8680199  76.9179147  81.7089933  60.6568085  77.3451964  80.2720873
  55.2926384  59.1022676  81.5462733  55.3567711  59.9637507  81.1340130
  55.2293505  58.4896677  80.8135091  54.7678657  61.1745808  85.1935767
  55.3950696  60.7922886  85.8073291  53.9106576  60.9560010  85.5591459
  65.1672766  71.5808783  86.7989502  65.7112670  72.1938742  86.3044457
  64.5859610  72.1388362  87.3156515  63.4530279  74.7029501  77.9304530
  63.3281418  73.9019241  77.4215476  64.1109370  75.1975695  77.4418500
  55.0738447  61.0578234  77.1081670  54.3525032  61.6714202  76.9689144
  55.8631703  61.5935999  77.0298316  65.5165187  72.5038522  79.5584080
  64.5695522  72.3843873  79.4862407  65.8647960  71.6161020  79.6410342
  57.8764760  58.3932660  83.3822322  58.3999162  58.6394957  84.1448631
  57.6577094  59.2252695  82.9625459  62.5211620  72.2991238  75.7588432
  62.3736583  71.3707945  75.9396002  63.3465114  72.3211328  75.2745508
  66.1245742  73.1219796  76.8453305  67.0492290  72.9162658  76.7077756
  65.9561045  72.8736198  77.7542647  59.0817305  59.3346356  81.0671993
  58.7414126  58.5354169  81.4692672  58.3756312  59.6348066  80.4948826
  59.7333777  56.4195668  79.5199316  60.5559846  55.9456146  79.3978206
  59.9771841  57.1986152  80.0198002  62.5173134  60.1529075  70.7520550
  62.7336749  61.0353713  70.4509378  62.0367202  59.7615289  70.0226192
  57.2572356  63.1114789  77.3291294  57.1116937  63.4255092  78.2215576
  56.7797560  63.7299689  76.7762193  59.1168739  60.1017337  77.3772184
  59.1030308  59.2058430  77.0404482  59.8341167  60.1088000  78.0110470
  60.9694869  60.5354677  79.4225311  60.7112647  61.4571747  79.4209642
  60.4379910  60.1385111  80.1125775  65.9141058  73.6405464  72.2015397
  66.0877936  73.0751886  71.4489249  66.4069949  74.4406359  72.0194887
  58.5205635  58.9831717  72.6459754  58.6421546  58.0548363  72.8450641
  58.2307677  58.9970403  71.7338069  61.3896825  56.6686627  75.7826474
  61.4118522  56.7325960  74.8278453  61.8064884  55.8291136  75.9766980
  71.7680449  66.4041887  73.8205696  72.2111595  65.6549212  73.4224820
  70.8906960  66.3952023  73.4379428  60.4627703  74.3206008  82.9589502
  60.7714829  74.0755154  83.8312202  61.2603185  74.5252646  82.4708372
  58.0046714  60.4963714  86.8549687  58.0534870  61.3725837  86.4727456
  58.5469228  59.9541107  86.2821330  68.4901560  71.0404838  86.1350824
  67.6997104  71.0228976  85.5955323  68.2534914  71.5793131  86.8899860
  68.6099435  67.8897304  83.4483552  68.6597440  67.7247311  84.3899075
  68.5013358  67.0224563  83.0581433  65.9003197  63.8728232  84.7642859
  66.8013060  63.7334697  84.4726857  65.9751172  64.0382687  85.7041036
  60.2346003  61.2495087  83.6096045  59.3649312  61.5428653  83.3378634
  60.4705483  61.8335532  84.3303309  70.1117632  70.3094245  83.6925574
  69.8202440  70.6724226  84.5289035  69.4989763  69.5961254  83.5138906
  71.3113314  67.8747125  76.2128144  72.1460205  68.3136929  76.3765704
  71.4472443  67.3985778  75.3936390  68.3604820  65.4326860  82.1605632
  68.8358942  65.6254506  81.3524483  67.4370385  65.4886046  81.9149015
  62.9385037  57.4674704  81.1261466  63.4566980  58.2035731  80.8007954
  62.5840169  57.7738697  81.9608225  63.1897631  53.8874986  76.6462362
  63.4699384  53.2198175  77.2722789  63.9748238  54.0804082  76.1337026
  67.0606489  62.3092620  80.3933937  68.0123912  62.4090718  80.4146161
  66.8909939  61.5170889  80.9032022  65.0820869  59.3948203  80.5793338
  64.4870801  59.6753216  79.8839827  64.7970565  59.8842104  81.3510079
  69.5394567  65.5298740  79.5076237  69.5070887  64.5914741  79.6935921
  70.1495190  65.6082777  78.7742062  61.3777898  64.3994793  65.5503441
  62.3237002  64.2701001  65.6191859  60.9992143  63.6609455  66.0272869
  69.6889055  62.3209783  79.5534520  69.1728104  61.5368240  79.3664449
  70.5729004  61.9928500  79.7181040  67.3499782  56.0650799  75.5130333
  67.1524603  55.7565887  76.3973665  67.9599488  56.7912438  75.6428263
  75.3571117  66.5914747  78.6482274  76.0874505  66.3300035  79.2089977
  74.7478062  65.8543469  78.6884342  73.4386414  64.7322609  79.2456725
  72.7119577  64.5978574  78.6373216  73.0233701  65.0399438  80.0513443
  61.2616590  68.4512539  87.0104098  62.1819600  68.6291138  87.2044144
  61.2266173  67.5068584  86.8583797  61.1782881  56.8681659  71.6402567
  60.3683609  56.5228744  72.0157814  61.8667297  56.5589203  72.2290179
  63.1073429  55.9459706  73.2626864  63.6604467  56.3655159  73.9216887
  63.3443515  55.0195454  73.3049820  59.1306528  61.9346779  89.0429628
  59.0303255  62.8841136  88.9741719  58.9128070  61.6065018  88.1705698
  66.4852236  58.0560231  72.7705528  65.9050905  58.7145035  72.3883581
  66.2188169  57.2337575  72.3592946  64.9355802  57.4565289  74.9726849
  65.4355581  57.5681823  74.1641168  65.5791410  57.1526341  75.6127657
  58.9937798  65.3643918  87.8594690  58.5104880  66.1644278  88.0658579
  59.0798737  65.3751863  86.9062134  55.5110518  67.8249569  82.4633921
  56.3303407  68.3193648  82.4868758  55.7847325  66.9081537  82.4351489
  65.2677114  60.2160321  71.8261877  64.3802969  60.5009972  71.6082071
  65.6831103  60.0554085  70.9789154  68.6191650  60.2406842  75.5416216
  69.3952040  60.7303295  75.8140833  67.8939784  60.6664896  75.9988085
  71.0564209  60.9534461  76.5990157  71.6508700  60.7130197  75.8883465
  71.1290792  60.2341592  77.2263693  65.2418138  65.7314857  72.0412167
  65.1853339  66.1883409  71.2019799  65.7946480  64.9705542  71.8635010
  69.0522944  61.5204589  72.8662286  68.7959878  61.1201225  73.6970494
  68.4275812  62.2348383  72.7412425  73.3635281  64.2600662  75.3733578
  72.8034839  64.3293852  76.1465140  72.7578785  64.0841647  74.6533074
  50.7645432  62.1587703  83.1626118  51.4104296  61.6486657  83.6513343
  50.5562583  62.8956384  83.7369543  63.2898824  69.2268550  88.6618259
  64.1589984  69.4009203  88.3004894  62.8105576  70.0462967  88.5393988
  59.2849042  56.4227747  68.9150014  59.2727712  57.3669587  69.0718285
  60.1772464  56.2397893  68.6209476  59.2138606  75.0996638  77.0017771
  58.2634237  75.0998499  76.8882143  59.5171093  74.3529372  76.4853806
  55.1042923  59.3055320  87.2601132  55.9674385  58.9492125  87.4704457
  54.5308334  58.9669215  87.9476537  74.9491300  80.9357176  78.0663533
  75.5869710  80.8163924  77.3626873  74.8312143  81.8838020  78.1251486
  71.7581006  80.8884604  78.0025058  71.4199518  80.7725669  77.1145593
  72.6270774  80.4875769  77.9826064  67.6167822  82.7420081  73.9921949
  67.0532687  82.6510018  73.2238237  67.5020217  81.9219985  74.4724442
  65.1632254  84.2371272  76.8306170  65.9553546  83.8962097  76.4152469
  65.4028904  84.3466247  77.7508323  73.1967381  86.4091048  69.3036414
  72.5455360  86.9945129  68.9170428  73.9911743  86.9397243  69.3631451
  67.1223008  83.4980186  69.7023548  67.8953884  82.9509173  69.5636424
  67.4748407  84.3624435  69.9138010  69.8864257  82.2033416  79.4991807
  70.4827829  81.9789439  78.7848770  69.9439229  81.4618162  80.1017255
  69.4589286  79.6572852  67.3341998  69.7114806  79.1354373  66.5725461
  68.5213845  79.4938997  67.4368682  74.5032568  78.6608630  75.1416741
  75.2895658  78.2428053  74.7907158  74.7671273  79.5654722  75.3098390
  79.9040996  78.5983863  76.0449720  80.6366167  78.0283080  76.2787549
  79.1480351  78.2105464  76.4856226  69.1785574  81.5600958  69.5366373
  69.0621832  80.8845861  70.2047457  69.2887834  81.0733332  68.7198526
  71.5217115  81.0211105  73.2413062  71.1575322  80.4941726  73.9525984
  72.3784231  80.6309574  73.0679548  77.4266416  72.3105437  80.5044329
  77.0949741  73.1800848  80.2805544  76.8312029  71.9941721  81.1838359
  73.9197935  84.5117983  79.9040241  73.6198659  85.4143022  79.7956049
  73.5748995  84.2450167  80.7561394  67.3710417  80.9631780  75.9376946
  66.4460913  80.8307994  76.1454637  67.6194830  81.7425999  76.4346888
  77.3195079  77.0300524  77.5837679  76.4111957  76.9615932  77.2896440
  77.2682675  77.5072468  78.4119504  71.1411823  78.5058662  69.2221078
  71.0211448  78.9515713  70.0606558  70.4464411  78.8543980  68.6634616
  64.7319228  80.6065054  76.7720735  64.8611609  80.8599533  77.6860147
  64.0516679  81.1992762  76.4525390  68.9018715  91.2762304  72.8711209
  68.8242745  92.2270129  72.9499690  68.2980359  90.9308176  73.5286135
  79.1856726  75.2316962  79.3615553  78.5431106  75.5249495  78.7155347
  78.6811654  75.1169882  80.1668749  76.8396889  78.9780135  70.0501412
  77.7514745  79.2107522  69.8749109  76.3306536  79.5617179  69.4876490
  69.6482317  81.2575623  85.0890543  70.3897002  81.7960666  84.8125367
  68.9419303  81.8841911  85.2462095  71.4768727  78.3377370  81.0596261
  72.3229922  78.7616783  81.2030910  71.4167365  77.6810994  81.7534824
  75.4466472  83.9605954  77.4414993  74.8175334  84.1251668  76.7391061
  75.0592134  84.3747563  78.2125957  79.3255703  84.8960391  74.7959357
  78.6406742  85.2759293  74.2456390  79.4099553  85.5055718  75.5291305
  74.6268172  75.9981738  82.7177435  74.3829104  76.7523799  82.1811711
  74.9028103  76.3767086  83.5524682  76.5806635  82.5420350  81.3954701
  76.7923530  83.1852110  80.7189082  76.5336383  81.7082667  80.9276631
  74.1832864  75.1538171  78.2991273  73.3217343  75.4519425  78.5908010
  74.2095299  75.3708570  77.3672305  70.9994433  83.6980362  74.7065078
  71.4632779  83.9768065  73.9169701  70.7351232  82.7963806  74.5238169
  67.8918515  83.2451843  77.6444842  68.4619872  83.6739112  77.0062326
  68.4826626  82.9634428  78.3429027  69.9363320  79.8203514  71.5154643
  70.6387363  80.2724558  71.9828570  69.6043948  79.1787333  72.1434537
  68.3843681  78.4115271  85.8905853  67.7542342  79.0931552  86.1241250
  68.2779769  78.2998352  84.9458991  63.6788653  78.0787067  76.8171777
  62.8887707  78.3344595  76.3411888  64.1699901  78.8935405  76.9223818
  65.6303399  78.4431646  73.7755254  64.8334562  78.5550340  74.2938749
  65.4028991  78.7818298  72.9096144  61.9626356  78.3317557  79.2486768
  62.2134395  79.2164567  79.5144344  62.4985905  78.1522159  78.4761860
  85.7858456  81.7631054  75.9162029  85.0322164  81.1938452  75.7606034
  85.9205997  81.7293719  76.8632664  71.1757084  86.6344457  71.5916749
  71.0402759  87.4795992  72.0201597  71.7166897  86.8363734  70.8282683
  67.6624424  72.7136037  88.2531104  67.2691369  72.1602235  88.9278748
  68.4790564  73.0246615  88.6437621  64.6286482  84.1519895  72.1644674
  65.1411002  84.9463145  72.3150238  65.2809194  83.4546185  72.0978275
  66.4381366  87.2685651  74.2467427  66.6147995  88.1903616  74.0588411
  67.2338200  86.9544070  74.6761807  70.5792385  74.1293916  85.8451360
  71.3202098  74.7301069  85.7655823  70.8110308  73.3871553  85.2869403
  65.7233723  79.3150283  84.1229590  65.6087238  78.4135540  84.4236689
  64.8678241  79.5613980  83.7714407  67.5612682  88.7863825  80.2477769
  68.1120107  88.6580888  79.4754763  66.7224158  89.0858714  79.8972662
  74.5249548  70.1575019  80.1215642  74.1813817  71.0476660  80.0454753
  74.8928510  69.9676676  79.2585227  62.5935398  82.4808549  72.9404244
  63.4310620  82.8905557  72.7237952  62.7713666  81.5407991  72.9104438
  74.4899830  80.1483630  68.6288077  73.9746454  80.9188234  68.8676465
  74.2177139  79.4748766  69.2521139  72.0746941  74.9933330  73.6873316
  71.2188538  74.6040181  73.5078954  72.4873893  75.0725291  72.8273101
  73.6046088  72.5279674  78.0864875  73.1010884  72.4909809  77.2732681
  73.8976695  73.4372416  78.1461532  69.8488974  72.6118403  77.0931057
  70.7141971  72.4161212  76.7336947  69.9166483  72.3828755  78.0200414
  79.4634105  82.9015984  70.5641251  78.6863547  82.5627144  70.1196413
  80.1425586  82.9068607  69.8896216  74.2786134  78.0210722  70.4547858
  73.9736269  78.3356871  71.3058002  75.2316576  78.0992142  70.4975191
  72.7232565  84.1800945  72.1040812  72.1953927  83.4453705  71.7914050
  72.2220068  84.9575621  71.8580781  77.7025411  82.3749966  77.2207859
  77.0449086  83.0649227  77.3087987  78.5065811  82.7646398  77.5641845
  67.4551293  74.8420611  74.4647424  68.0295045  74.6195793  73.7320617
  68.0422275  74.9109306  75.2176025  76.5130870  80.7294338  75.2711801
  77.0262752  81.3624330  75.7733510  77.1632094  80.1295534  74.9055161
  67.7820880  76.8725072  68.4843309  66.9458192  77.2099759  68.8052584
  67.6425650  76.7374052  67.5470446  69.7573961  71.7161860  73.1922493
  69.1038373  71.4010877  72.5679108  69.7154435  71.0937601  73.9182316
  70.8685166  81.9981155  65.1075785  69.9612227  81.7670409  65.3066934
  71.3656198  81.2018775  65.2949767  73.7753245  90.7078663  68.0272472
  73.1014943  91.0110359  68.6357429  74.1619066  91.5107743  67.6777929
  72.9911701  78.2043794  77.5170141  72.0734262  78.4258741  77.3591829
  73.4071845  78.2790104  76.6581848  73.7746749  79.6035209  72.6472821
  74.5218568  80.1156607  72.3379943  74.0438338  79.2819262  73.5077215
  72.0473399  82.0993750  69.6299776  71.1384618  81.8152783  69.7272245
  72.0768483  82.5192829  68.7703082  77.2792666  85.7100340  73.3990943
  76.8254994  84.8691250  73.4556134  76.6486633  86.3461738  73.7365723
  76.2225586  76.6392326  74.6291611  75.4848343  76.1269712  74.9601853
  76.4752360  76.1992707  73.8174887  75.7225606  87.5476836  74.3340761
  76.0148580  88.1081894  73.6153127  76.2324226  87.8405397  75.0893920
  76.3237213  69.4168578  75.2233380  76.6296090  68.5565941  74.9359295
  77.0489818  70.0086198  75.0232374  62.6161569  79.8199264  73.6114978
  62.4185969  79.2268625  72.8866044  62.0608233  79.5151475  74.3290917
  70.5958293  79.7122371  75.7309571  70.6506903  78.7596207  75.6552048
  69.7849495  79.8681810  76.2150869  71.7449487  83.6402494  66.9687854
  71.3068917  82.9238353  66.5093491  72.4859928  83.8678609  66.4072946
  68.5350653  78.3299431  73.4899950  67.7218519  78.6293601  73.8965142
  69.0309647  77.9355119  74.2074432  70.6859231  88.3257187  75.4234214
  70.6435410  88.5518034  74.4942747  71.6021930  88.0920562  75.5720016
  74.1324865  78.7941255  82.3214844  74.4874252  79.0212728  83.1809309
  74.7796996  79.1259632  81.6992099  79.8622602  81.9159691  73.0264173
  79.7240500  82.1061287  72.0985362  79.5058820  82.6779074  73.4832224
  68.0264728  75.9017786  79.1061185  68.6664107  75.7606545  78.4084148
  67.1942258  75.6152299  78.7299787  79.8891981  83.9836218  78.0375444
  80.3228488  83.8911507  78.8858498  80.6023562  83.9593718  77.3995460
  68.8025032  85.2020217  75.2196177  69.5965630  84.7070537  75.0178752
  68.0916724  84.6738080  74.8563883  65.1107795  79.3463298  71.2955930
  64.1805383  79.2847754  71.5125892  65.2065267  78.8239251  70.4992571
  65.0293344  75.8718111  73.8834172  65.2900161  76.7863444  73.7743332
  65.8510517  75.4042554  74.0330784  66.5018270  77.2855868  81.0532996
  67.1741323  77.0773230  80.4045645  65.6748056  77.0877954  80.6138228
  72.4043842  73.9117809  83.0698657  71.7571757  74.6107759  82.9763133
  73.1744857  74.3453953  83.4374905  71.3796308  85.7749238  78.8994014
  71.2407393  85.4068023  79.7719952  70.5910904  86.2896878  78.7277972
  71.9744460  90.8758335  70.2419551  72.1496215  90.4046378  71.0565174
  71.2877248  91.5024101  70.4700812  72.9301523  85.1530841  76.2882852
  72.5951355  85.1131611  77.1840502  72.4305469  84.4875557  75.8153262
  66.9045767  80.5598471  81.8135433  66.7665565  79.8278710  82.4146972
  67.8150690  80.4707371  81.5319621  75.8660714  82.4986876  66.5619912
  75.2489885  81.7733704  66.4652964  75.3977203  83.2596236  66.2186986
  69.5328067  80.2718431  81.3019113  70.2427686  79.6311623  81.2605731
  69.4897376  80.5231325  82.2245294  68.2457001  77.2583648  83.1214752
  67.7094358  76.8074387  83.7736349  67.6573710  77.3929557  82.3785217
  66.5405545  94.0247698  77.0159411  66.7802143  94.6566222  77.6938430
  65.6974741  93.6735738  77.3024770  67.6559260  76.7172300  65.6841216
  66.7788727  76.5961101  65.3203463  68.1317013  75.9258378  65.4320105
  63.9796123  76.3939656  80.2067747  63.8954311  75.7865326  79.4718157
  63.1578829  76.8848674  80.2077243  70.8423186  89.0698590  72.9303737
  70.0590708  89.6120270  73.0241961  71.5415932  89.5872570  73.3297978
  74.1519837  74.8793220  75.5737942  74.6488536  74.1263182  75.2539012
  73.3806818  74.9157536  75.0081151  82.0049594  80.5833585  77.2156233
  81.9939470  81.4658301  76.8450167  81.1366973  80.2305136  77.0210770
  75.2349617  83.6364907  73.1476365  74.3005896  83.7566369  72.9781070
  75.4126286  82.7337374  72.8836375  70.7354805  77.0210603  75.3009627
  70.3652593  76.4681643  75.9890532  71.2313898  76.4168736  74.7484627
  78.6222169  79.4782226  73.6826399  79.0882621  80.3110218  73.6086702
  79.0729669  79.0127208  74.3871658  76.6898400  85.8226047  70.6812551
  76.9658244  85.7082642  71.5906426  75.8202898  85.4243532  70.6424725
  76.5938831  71.8462813  77.7217301  75.6801911  72.0767040  77.8899508
  77.0231933  71.9301257  78.5731333  76.3645290  80.0352705  80.2217195
  75.7116740  80.2828613  79.5669648  76.7425670  79.2216843  79.8879672
  73.3252464  90.0712398  74.3245365  73.5074858  89.2534054  74.7873117
  74.1485450  90.2880091  73.8870255  73.6594629  88.9980583  71.5860414
  74.1882396  88.4873038  70.9730576  73.9222849  88.6823114  72.4505947
  64.1611722  87.0144453  79.3295747  64.7465159  86.2688141  79.4623651
  63.9636560  87.3248409  80.2132411  67.0150377  90.0495700  74.3458190
  66.3460752  90.5341828  73.8622230  66.8763247  90.2964921  75.2601568
  66.1320139  74.4314593  81.5462733  66.1961465  75.2929424  81.1340130
  66.0687259  73.8188595  80.8135091  65.6072411  76.5037726  85.1935767
  66.2344450  76.1214803  85.8073291  64.7500330  76.2851928  85.5591459
  74.2924033  90.0321419  77.9304530  74.1675172  89.2311159  77.4215476
  74.9503124  90.5267613  77.4418500  65.9132201  76.3870152  77.1081670
  65.1918787  77.0006119  76.9689144  66.7025457  76.9227916  77.0298316
  68.7158515  73.7224578  83.3822322  69.2392917  73.9686875  84.1448631
  68.4970848  74.5544613  82.9625459  73.3605375  87.6283155  75.7588432
  73.2130337  86.6999863  75.9396002  74.1858868  87.6503246  75.2745508
  67.2267619  76.2801223  71.6168925  67.5663691  76.8087144  70.8947533
  67.6739739  76.6181629  72.3927491  76.9639497  88.4511714  76.8453305
  77.8886044  88.2454576  76.7077756  76.7954800  88.2028115  77.7542647
  69.9211060  74.6638273  81.0671993  69.5807880  73.8646086  81.4692672
  69.2150066  74.9639984  80.4948826  70.5727532  71.7487586  79.5199316
  71.3953601  71.2748064  79.3978206  70.8165595  72.5278069  80.0198002
  69.2135766  74.7775844  69.8162217  69.9344129  75.1557097  69.3125934
  68.5901070  75.4964721  69.9197195  73.3566889  75.4820993  70.7520550
  73.5730503  76.3645631  70.4509378  72.8760956  75.0907207  70.0226192
  68.0966110  78.4406706  77.3291294  67.9510691  78.7547009  78.2215576
  67.6191314  79.0591607  76.7762193  69.9562493  75.4309254  77.3772184
  69.9424062  74.5350348  77.0404482  70.6734921  75.4379918  78.0110470
  71.8088624  75.8646595  79.4225311  71.5506402  76.7863665  79.4209642
  71.2773664  75.4677029  80.1125775  76.7534813  88.9697382  72.2015397
  76.9271690  88.4043804  71.4489249  77.2463704  89.7698277  72.0194887
  62.5711773  80.9812051  80.2678955  62.0265241  81.7571859  80.3999230
  63.4491122  81.3282855  80.1098077  69.3599389  74.3123635  72.6459754
  69.4815300  73.3840281  72.8450641  69.0701432  74.3262321  71.7338069
  72.2290580  71.9978545  75.7826474  72.2512276  72.0617878  74.8278453
  72.6458639  71.1583054  75.9766980  82.6074204  81.7333805  73.8205696
  83.0505350  80.9841130  73.4224820  81.7300714  81.7243941  73.4379428
  77.7409985  88.2864146  69.3012295  78.4360890  88.9070839  69.5199609
  78.0833135  87.4359497  69.5764673  63.3577794  80.1081947  83.1609112
  62.6159530  80.2564582  83.7473743  63.0370539  80.3690213  82.2975862
  79.6401408  85.7363852  70.8299626  80.1652732  86.0751124  70.1048946
  79.5523761  84.8010867  70.6462760  71.3242069  91.8035835  75.1894879
  70.8847059  91.3112214  75.8827736  72.0750186  91.2608803  74.9486954
  63.8034408  87.9947376  75.1919507  64.6292428  87.6951148  74.8118150
  63.4528460  87.2254998  75.6409296  68.7715941  87.3473844  77.2617180
  68.1495951  86.6844549  76.9619408  69.4420808  87.3734976  76.5790828
  62.0043013  85.9133702  76.1508440  61.1674921  85.4855877  75.9692442
  61.9766659  86.1066146  77.0879232  68.8440469  75.8255632  86.8549687
  68.8928624  76.7017755  86.4727456  69.3862983  75.2833025  86.2821330
  68.3329448  85.8977767  70.7375641  68.4817569  86.5813232  70.0842314
  69.1395892  85.8782857  71.2525097  71.0739757  76.5787004  83.6096045
  70.2043067  76.8720570  83.3378634  71.3099238  77.1627449  84.3303309
  82.1507069  83.2039043  76.2128144  82.9853960  83.6428847  76.3765704
  82.2866197  82.7277696  75.3936390  66.0882081  81.9242945  71.7436710
  65.8428123  81.0205275  71.9416920  66.2577996  81.9260095  70.8016188
  73.7778791  72.7966621  81.1261466  74.2960735  73.5327648  80.8007954
  73.4233924  73.1030615  81.9608225  65.3577729  77.6571302  69.2422871
  64.6646974  77.7315657  68.5862907  65.1129481  76.8931646  69.7644388
  74.0291385  69.2166904  76.6462362  74.3093139  68.5490093  77.2722789
  74.8141992  69.4095999  76.1337026  71.8324854  88.3925898  68.2087388
  71.2598821  89.0116085  67.7557860  72.4057647  88.9425259  68.7427310
  77.9000244  77.6384538  80.3933937  78.8517666  77.7382635  80.4146161
  77.7303694  76.8462806  80.9032022  75.9214623  74.7240121  80.5793338
  75.3264555  75.0045134  79.8839827  75.6364320  75.2134022  81.3510079
  75.0522113  88.6763048  69.3395971  75.9852787  88.6108610  69.5428846
  74.9645326  89.5119315  68.8810503  77.6810130  87.9928918  66.2999918
  77.6023762  87.6588782  67.1935676  78.5019797  88.4850686  66.2991391
  80.3788321  80.8590658  79.5076237  80.3464641  79.9206658  79.6935921
  80.9888945  80.9374694  78.7742062  72.2171652  79.7286710  65.5503441
  73.1630757  79.5992919  65.6191859  71.8385897  78.9901372  66.0272869
  80.5282810  77.6501701  79.5534520  80.0121858  76.8660158  79.3664449
  81.4122758  77.3220418  79.7181040  78.1893537  71.3942717  75.5130333
  77.9918358  71.0857805  76.3973665  78.7993242  72.1204355  75.6428263
  84.2780168  80.0614527  79.2456725  83.5513332  79.9270492  78.6373216
  83.8627455  80.3691356  80.0513443  70.4014569  77.6536687  65.4858326
  69.4946025  77.3569800  65.5621040  70.6790550  77.3566505  64.6192612
  65.0972417  81.6905491  79.6526879  65.3158427  82.6222599  79.6714913
  65.5098191  81.3313466  80.4381683  72.0176635  72.1973577  71.6402567
  71.2077363  71.8520662  72.0157814  72.7061052  71.8881120  72.2290179
  73.9467183  71.2751623  73.2626864  74.4998222  71.6947077  73.9216887
  74.1837270  70.3487371  73.3049820  69.1713354  74.5123622  65.6270305
  70.0332518  74.8378520  65.8866123  69.3563698  73.7255118  65.1143371
  61.1880770  82.5945962  77.9050494  60.4944241  82.1799915  77.3920449
  61.9353761  82.6366498  77.3083913  77.3245990  73.3852149  72.7705528
  76.7444659  74.0436953  72.3883581  77.0581923  72.5629493  72.3592946
  75.7749557  72.7857206  74.9726849  76.2749335  72.8973741  74.1641168
  76.4185165  72.4818259  75.6127657  63.1017512  82.5264216  75.7816509
  63.0788200  82.6251903  74.8298392  63.4118149  83.3729366  76.1033675
  65.7604890  84.5840371  79.8963123  66.7148144  84.5524313  79.8293055
  65.5617414  84.1230994  80.7113349  66.3504272  83.1541487  82.4633921
  67.1697161  83.6485565  82.4868758  66.6241080  82.2373455  82.4351489
  76.1070868  75.5452239  71.8261877  75.2196723  75.8301890  71.6082071
  76.5224858  75.3846002  70.9789154  79.4585405  75.5698760  75.5416216
  80.2345795  76.0595212  75.8140833  78.7333539  75.9956814  75.9988085
  81.8957963  76.2826379  76.5990157  82.4902454  76.0422115  75.8883465
  81.9684547  75.5633510  77.2263693  64.1155119  90.1259990  76.9133321
  63.9809587  89.3660391  76.3471319  63.6987181  90.8500890  76.4462110
  75.2514082  85.3096914  65.9209897  75.9549932  85.5146916  66.5367552
  74.5276731  85.8773675  66.1858980  76.0811892  81.0606775  72.0412167
  76.0247094  81.5175326  71.2019799  76.6340235  80.2997459  71.8635010
  79.8916698  76.8496507  72.8662286  79.6353632  76.4493142  73.6970494
  79.2669566  77.5640301  72.7412425  84.2029036  79.5892580  75.3733578
  83.6428594  79.6585769  76.1465140  83.5972539  79.4133565  74.6533074
  67.2724245  91.0229307  77.1251764  67.1556629  91.9674740  77.0230454
  66.4516691  90.7202869  77.5137563  77.1600779  85.7479443  67.9708357
  77.9946383  85.3160641  67.7885831  76.9985122  85.5761456  68.8985251
  76.8146672  82.2511556  69.3364696  76.7595475  82.0855828  68.3953140
  76.1892727  82.9587589  69.4926886  61.6039186  77.4879620  83.1626118
  62.2498050  76.9778574  83.6513343  61.3956338  78.2248302  83.7369543
  70.1242797  71.7519665  68.9150014  70.1121467  72.6961505  69.0718285
  71.0166219  71.5689811  68.6209476  70.0532361  90.4288556  77.0017771
  69.1027992  90.4290417  76.8882143  70.3564847  89.6821290  76.4853806
  73.9394916  68.3462442  73.1695951  73.1727312  67.7920928  73.3152634
  74.3505621  68.4184311  74.0310103  65.9436677  74.6347238  87.2601132
  66.8068139  74.2784042  87.4704457  65.3702088  74.2961132  87.9476537
  77.9616762  98.8272103  69.7023548  78.7347638  98.2801090  69.5636424
  78.3142161  99.6916353  69.9138010  80.2983040  94.9864769  67.3341998
  80.5508561  94.4646291  66.5725461  79.3607599  94.8230915  67.4368682
  80.0179329  96.8892875  69.5366373  79.9015587  96.2137779  70.2047457
  80.1281589  96.4025249  68.7198526  82.0016357  91.3792922  68.2374411
  82.1690759  92.2473159  68.6044882  81.8113526  91.5420204  67.3135700
  81.9805578  93.8350580  69.2221078  81.8605203  94.2807630  70.0606558
  81.2858166  94.1835897  68.6634616  80.7757074  95.1495432  71.5154643
  81.4781117  95.6016475  71.9828570  80.4437702  94.5079251  72.1434537
  76.4697153  93.7723564  73.7755254  75.6728317  93.8842258  74.2938749
  76.2422746  94.1110216  72.9096144  73.4329153  97.8100467  72.9404244
  74.2704375  98.2197475  72.7237952  73.6107420  96.8699909  72.9104438
  85.3293585  95.4775547  68.6288077  84.8140208  96.2480152  68.8676465
  85.0570893  94.8040684  69.2521139  82.9140696  90.3225248  73.6873316
  82.0582292  89.9332099  73.5078954  83.3267648  90.4017209  72.8273101
  85.1179888  93.3502639  70.4547858  84.8130024  93.6648789  71.3058002
  86.0710330  93.4284059  70.4975191  78.2945048  90.1712529  74.4647424
  78.8688799  89.9487711  73.7320617  78.8816030  90.2401224  75.2176025
  78.6214635  92.2016990  68.4843309  77.7851947  92.5391677  68.8052584
  78.4819404  92.0665970  67.5470446  80.5967715  87.0453778  73.1922493
  79.9432128  86.7302795  72.5679108  80.5548189  86.4229518  73.9182316
  81.7078920  97.3273073  65.1075785  80.8005982  97.0962326  65.3066934
  82.2049952  96.5310692  65.2949767  87.1630968  84.7460495  75.2233380
  87.4689845  83.8857859  74.9359295  87.8883573  85.3378116  75.0232374
  73.4555324  95.1491182  73.6114978  73.2579724  94.5560543  72.8866044
  72.9001988  94.8443392  74.3290917  79.3744408  93.6591348  73.4899950
  78.5612273  93.9585519  73.8965142  79.8703402  93.2647037  74.2074432
  75.9501550  94.6755216  71.2955930  75.0199138  94.6139671  71.5125892
  76.0459022  94.1531169  70.4992571  75.8687099  91.2010029  73.8834172
  76.1293916  92.1155362  73.7743332  76.6904271  90.7334471  74.0330784
  78.4953015  92.0464218  65.6841216  77.6182481  91.9253018  65.3203463
  78.9710768  91.2550296  65.4320105  70.0155155  96.8341377  75.7782723
  70.7026195  96.5203107  75.1903738  69.8603284  97.7382742  75.5049975
  73.2231709  93.6406073  71.1254122  73.5185150  92.7316751  71.0721175
  72.3219744  93.6193812  70.8035124  74.9519550  91.3220170  71.2493447
  74.6232256  90.4417549  71.0668553  75.3058921  91.2667839  72.1369836
  78.0661373  91.6093140  71.6168925  78.4057446  92.1379061  70.8947533
  78.5133494  91.9473546  72.3927491  80.0529521  90.1067762  69.8162217
  80.7737883  90.4849015  69.3125934  79.4294825  90.8256639  69.9197195
  84.1960643  90.8112911  70.7520550  84.4124258  91.6937549  70.4509378
  83.7154711  90.4199124  70.0226192  80.1993144  89.6415552  72.6459754
  80.3209055  88.7132198  72.8450641  79.9095186  89.6554238  71.7338069
  83.0684334  87.3270463  75.7826474  83.0906031  87.3909796  74.8278453
  83.4852393  86.4874971  75.9766980  76.9275836  97.2534863  71.7436710
  76.6821878  96.3497193  71.9416920  77.0971750  97.2552013  70.8016188
  76.1971483  92.9863220  69.2422871  75.5040728  93.0607575  68.5862907
  75.9523235  92.2223564  69.7644388  84.8685140  84.5458822  76.6462362
  85.1486893  83.8782011  77.2722789  85.6535747  84.7387917  76.1337026
  83.0565407  95.0578628  65.5503441  84.0024511  94.9284836  65.6191859
  82.6779652  94.3193290  66.0272869  81.2408324  92.9828605  65.4858326
  80.3339779  92.6861717  65.5621040  81.5184305  92.6858423  64.6192612
  72.1586264  94.3034968  75.9357373  71.8389049  93.4500276  75.6431747
  71.6119692  94.5183546  76.6915340  82.8570390  87.5265494  71.6402567
  82.0471118  87.1812579  72.0157814  83.5454806  87.2173038  72.2290179
  84.7860938  86.6043541  73.2626864  85.3391976  87.0238994  73.9216887
  85.0231024  85.6779289  73.3049820  80.0107108  89.8415540  65.6270305
  80.8726272  90.1670438  65.8866123  80.1957453  89.0547036  65.1143371
  88.1639745  88.7144066  72.7705528  87.5838414  89.3728870  72.3883581
  87.8975678  87.8921411  72.3592946  86.9464623  90.8744157  71.8261877
  86.0590478  91.1593807  71.6082071  87.3618612  90.7137920  70.9789154
  80.9636551  87.0811583  68.9150014  80.9515221  88.0253423  69.0718285
  81.8559973  86.8981728  68.6209476  84.7788671  83.6754359  73.1695951
  84.0121067  83.1212846  73.3152634  85.1899376  83.7476228  74.0310103
  31.5916283  -3.3748372  64.7908840  32.2294693  -3.4941625  64.0872180
  31.4737126  -2.4267528  64.8496792  28.4005990  -3.4220944  64.7270365
  28.0624501  -3.5379879  63.8390900  29.2695758  -3.8229779  64.7071371
  28.8825772  -2.2686092  70.6856570  28.8714413  -2.6633294  69.8137074
  29.0446412  -3.0020019  71.2790342  29.8392364   2.0985500  56.0281721
  29.1880344   2.6839581  55.6415734  30.6336727   2.6291695  56.0876758
  23.7647991  -0.8125363  56.4268855  24.5378867  -1.3596375  56.2881731
  24.1173390   0.0518887  56.6383316  25.6033034   0.5151020  69.6335754
  25.3122900   1.4196651  69.5182421  26.2390018   0.5567547  70.3479824
  26.5289240  -2.1072132  66.2237114  27.1252813  -2.3316109  65.5094077
  26.5864212  -2.8487386  66.8262562  31.1457552  -5.6496918  61.8662048
  31.9320641  -6.0677495  61.5152465  31.4096256  -4.7450826  62.0343696
  31.3167629  -0.2124068  56.5650705  30.6813462  -0.1389441  57.2771610
  30.9865035   0.3769531  55.8869784  36.5465979  -5.7121685  62.7695027
  37.2791151  -6.2822468  63.0032856  35.7905335  -6.1000084  63.2101532
  28.1642099  -3.2894443  59.9658369  27.8000306  -3.8163822  60.6771291
  29.0209214  -3.6795974  59.7924854  30.5622919   0.2012435  66.6285548
  30.2623642   1.1037474  66.5201355  30.2173978  -0.0655382  67.4806701
  33.9620063  -7.2805025  64.3082985  33.0536940  -7.3489616  64.0141746
  33.9107658  -6.8033080  65.1364811  25.5443699   6.9656756  59.5956516
  25.4667728   7.9164581  59.6744996  24.9405342   6.6202628  60.2531442
  33.4821873  -5.3325413  56.7746718  34.3939729  -5.0998026  56.5994416
  32.9731520  -4.7488369  56.2121797  31.7662640  -0.9100785  70.4108011
  32.1745996  -1.3518375  69.6662643  31.0439902  -1.4848158  70.6642204
  32.0891455  -0.3499595  64.1660300  31.4600317  -0.1853880  63.4636368
  31.7017117   0.0642015  64.9371264  35.9680687   0.5854843  61.5204664
  35.2831725   0.9653745  60.9701697  36.0524536   1.1950170  62.2536611
  33.2231618  -1.7685198  68.1200007  33.4348514  -1.1253438  67.4434388
  33.1761367  -2.6022881  67.6521937  27.6419417  -0.6125186  61.4310385
  28.1057762  -0.3337483  60.6415007  27.3776215  -1.5141742  61.2483476
  24.5343498  -1.0653705  64.3690148  25.1044855  -0.6366437  63.7307633
  25.1251610  -1.3471120  65.0674334  34.3377446   1.1086758  66.2922365
  35.1594890   0.7066945  66.0105046  34.3339849   1.0054992  67.2438480
  28.1034050   0.6570801  68.4483075  28.1678482   1.1191208  69.2841247
  27.3944974   0.0268166  68.5765385  42.4283439  -2.5474494  62.6407336
  41.6747148  -3.1167096  62.4851340  42.5630981  -2.5811829  63.5877971
  27.8182067   2.3238909  58.3162055  27.6827742   3.1690444  58.7446903
  28.3591880   2.5258186  57.5527989  23.0806350   2.9580103  60.9712734
  23.2572978   3.8798068  60.7833718  23.8763183   2.6438522  61.4007113
  29.4450544   2.9462475  72.4462397  29.0014398   2.1598854  72.1283302
  30.1067757   3.1341626  71.7806288  24.2037665   4.4758277  66.9723076
  24.7545090   4.3475340  66.2000070  23.3649141   4.7753166  66.6217969
  31.5431782   3.2265275  70.4743799  31.5250257   4.0474156  69.9824068
  32.4651702   3.1019350  70.6993940  28.0004836   0.7409405  71.3167307
  28.5333173  -0.0202307  71.0866615  27.4718917   0.4483056  72.0591462
  31.1324814  -4.1621918  55.3533384  30.6171437  -3.3917314  55.5921771
  30.8602122  -4.8356782  55.9766445  36.1059088  -1.4089564  57.2886557
  35.3288531  -1.7478404  56.8441719  36.7850569  -1.4036941  56.6141522
  30.9211117  -6.2894826  57.1793165  30.6161252  -5.9748677  58.0303308
  31.8741559  -6.2113406  57.2220498  29.3657549  -0.1304603  58.8286119
  28.8378910  -0.8651843  58.5159357  28.8645051   0.6470073  58.5826087
  34.3450395  -1.9355583  63.9453165  33.6874069  -1.2456321  64.0333294
  35.1490794  -1.5459151  64.2887152  33.1555854  -3.5811210  61.9957107
  33.6687735  -2.9481218  62.4978817  33.8057077  -4.1810014  61.6300467
  27.5110149  -2.3124393  51.8321092  26.6037211  -2.5435139  52.0312241
  28.0081181  -3.1086774  52.0195074  30.4178228   6.3973114  54.7517778
  29.7439927   6.7004811  55.3602736  30.8044050   7.2002195  54.4023235
  30.4171732  -4.7070339  59.3718128  31.1643551  -4.1948941  59.0625250
  30.6863322  -5.0286286  60.2322521  28.6898382  -2.2111798  56.3545082
  27.7809602  -2.4952765  56.4517552  28.7193466  -1.7912719  55.4948389
  33.9217650   1.3994792  60.1236250  33.4679977   0.5585701  60.1801440
  33.2911616   2.0356190  60.4611030  32.3650589   3.2371288  61.0586068
  32.6573563   3.7976345  60.3398434  32.8749210   3.5299849  61.8139227
  28.3874470  -0.6703054  53.6933161  27.9493900  -1.3867195  53.2338798
  29.1284911  -0.4426939  53.1318252  27.3284214   4.0151639  62.1479521
  27.2860393   4.2412486  61.2188053  28.2446913   3.7815014  62.2965322
  30.7749848  -5.5164293  69.0460150  31.1299236  -5.2892820  69.9054616
  31.4221979  -5.1845916  68.4237406  36.5047585  -2.3945857  59.7509479
  36.3665484  -2.2044261  58.8230669  36.1483804  -1.6326474  60.2077530
  36.5316965  -0.3269330  64.7620751  36.9653471  -0.4194041  65.6103805
  37.2448545  -0.3511830  64.1240767  25.4450015   0.8914668  61.9441484
  26.2390613   0.3964989  61.7424059  24.7341707   0.3632532  61.5809189
  30.2644859   3.2732764  66.2953851  30.3181882   3.8423700  67.0631567
  29.3959641   3.4434649  65.9307889  37.3932514  -0.2845630  67.2953636
  37.5868404   0.6200181  67.5412911  37.2933132  -0.7438210  68.1292221
  32.4547623  -0.1338887  72.8694517  32.3033129  -0.3628335  71.9524601
  32.4452302   0.8231715  72.8825862  29.2232959  -2.5606974  67.8540783
  30.1525019  -2.4095814  67.6809751  28.8023989  -2.4722953  66.9989430
  28.0221291   1.4643690  65.6239321  27.8832377   1.0962475  66.4965259
  27.2335887   1.9791330  65.4523279  28.6169443   6.5652787  56.9664857
  28.7921199   6.0940830  57.7810480  27.9302231   7.1918553  57.1946118
  29.5726506   0.8425293  63.0128159  29.2376339   0.8026063  63.9085809
  29.0730452   0.1770009  62.5398569  32.5085698  -1.8118673  53.2865218
  31.8914868  -2.5371844  53.1898271  32.0402186  -1.0509312  52.9432293
  34.1639829   2.8980236  70.9470999  34.1052376   2.2139456  70.2801582
  34.5659348   3.6399226  70.4951625  23.1830528   9.7142150  63.7404718
  23.4227126  10.3460674  64.4183736  22.3399725   9.3630190  64.0270077
  34.1657237   0.8619820  69.1784978  33.2784015   0.5245742  69.3011377
  34.7355788   0.1302851  69.4153744  27.6958390   5.5221272  66.1446222
  27.6228562   6.3276244  66.6565526  27.2535783   5.7213238  65.3194243
  27.4848170   4.7593042  59.6549043  26.7015692   5.3014722  59.7487268
  28.1840915   5.2767022  60.0543284  38.6474577  -3.7271963  63.9401540
  38.6364453  -2.8447247  63.5695473  37.7791957  -4.0800412  63.7456077
  30.1557074   5.4208106  68.3004380  30.8685046   6.0555571  68.2280282
  29.6647102   5.5171972  67.4844382  31.8774601  -0.6740641  59.8721672
  30.9430879  -0.5539179  59.7026376  32.0551269  -1.5768174  59.6081682
  35.2647152  -4.8323322  60.4071706  35.7307604  -3.9995330  60.3332009
  35.7154652  -5.2978340  61.1116965  25.2068987   3.1702550  69.1209951
  25.9078447   3.8039033  69.2739345  24.7364102   3.5117281  68.3605590
  33.3323383   1.5120499  57.4057858  33.6083227   1.3977094  58.3151732
  32.4627882   1.1137984  57.3670031  33.0070273  -4.2752843  66.9462501
  32.3541723  -4.0276936  66.2914954  33.3850653  -5.0888705  66.6124979
  29.9677447   5.7606850  61.0490672  30.1499842   4.9428506  61.5118424
  30.7910433   5.9774542  60.6115562  30.3019612   4.6875035  58.3105720
  30.8307379   4.1767490  57.6975882  30.5647832   4.3717566  59.1751253
  20.8036705   2.7038905  66.0541054  21.3890142   1.9582593  66.1868958
  20.6061544   3.0142861  66.9377718  23.6575360   5.7390152  61.0703496
  22.9885736   6.2236280  60.5867536  23.5188230   5.9859372  61.9846875
  27.7980629   7.7733896  67.6686155  28.3498937   7.9365517  68.4335240
  28.1386822   8.3638333  66.9966179  32.6491503   2.5995153  73.5234809
  33.1931407   3.2125111  73.0289764  32.0678348   3.1574731  74.0401822
  30.9349016   5.7215871  64.6549837  30.8100156   4.9205611  64.1460782
  31.5928107   6.2162064  64.1663807  32.9983925   3.5224891  66.2829387
  32.0514260   3.4030242  66.2107714  33.3466698   2.6347389  66.3655648
  30.0030358   3.3177607  62.4833739  29.8555320   2.3894315  62.6641309
  30.8283851   3.3397698  61.9990814  33.6064480   4.1406166  63.5698612
  34.5311027   3.9349027  63.4323063  33.4379783   3.8922567  64.4787953
  33.3959796   4.6591834  58.9260703  33.5696674   4.0938256  58.1734556
  33.8888687   5.4592728  58.7440193  39.2499187  -2.5771744  60.5451003
  39.6930333  -3.3264418  60.1470126  38.3725697  -2.5861607  60.1624735
  34.3834969   3.9758598  56.0257601  35.0785873   4.5965291  56.2444916
  34.7258119   3.1253949  56.3009979  36.2826392   1.4258303  57.5544932
  36.8077716   1.7645576  56.8294252  36.1948744   0.4905319  57.3708067
  27.9446440   5.3392377  69.6834809  28.2533567   5.0941524  70.5557508
  28.7421922   5.5439016  69.1953679  27.9667052   7.4930287  61.9140185
  27.5272043   7.0006665  62.6073042  28.7175169   6.9503254  61.6732261
  20.4459391   3.6841828  61.9164814  21.2717411   3.3845599  61.5363457
  20.0953443   2.9149450  62.3654602  25.4140925   3.0368296  63.9862487
  24.7920934   2.3739001  63.6864715  26.0845791   3.0629428  63.3036135
  35.9720298   2.0591207  72.8596130  35.1815841   2.0415346  72.3200630
  35.7353652   2.5979501  73.6145167  36.0918173  -1.0916327  70.1728859
  36.1416178  -1.2566319  71.1144382  35.9832096  -1.9589068  69.7826740
  24.9754431   1.5872219  57.4620948  25.1242552   2.2707684  56.8087620
  25.7820875   1.5677309  57.9770403  37.5936370   1.3280615  70.4170880
  37.3021178   1.6910596  71.2534341  36.9808501   0.6147623  70.2384212
  38.7932052  -1.1066505  62.9373451  39.6278943  -0.6676701  63.1011011
  38.9291181  -1.5827852  62.1181696  35.8423558  -3.5486770  68.8850938
  36.3177679  -3.3559124  68.0769790  34.9189123  -3.4927585  68.6394322
  28.4749837   4.0820350  54.9332695  27.9023804   4.7010537  54.4803167
  29.0482631   4.6319711  55.4672617  34.5425227  -6.6721010  67.1179244
  35.4942650  -6.5722913  67.1391468  34.3728677  -7.4642742  67.6277328
  31.6947097   4.3657500  56.0641277  32.6277770   4.3003061  56.2674153
  31.6070310   5.2013767  55.6055810  34.3235113   3.6823370  53.0245225
  34.2448745   3.3483234  53.9180983  35.1444780   4.1745138  53.0236697
  37.0213305  -3.4514891  66.2321544  36.9889625  -4.3898890  66.4181227
  37.6313928  -3.3730854  65.4987368  42.8389854  -2.3898884  65.3727580
  43.5693243  -2.6513596  65.9335284  42.2296800  -3.1270162  65.4129648
  40.9205152  -4.2491021  65.9702032  40.1938315  -4.3835056  65.3618523
  40.5052438  -3.9414193  66.7758750  22.4029873   0.2734822  66.6208430
  23.3573127   0.2418765  66.5538362  22.2042397  -0.1874554  67.4358656
  20.7580102   5.8154442  63.6378628  20.6234570   5.0554843  63.0716626
  20.3412164   6.5395342  63.1707417  31.8939065   0.9991365  52.6455203
  32.5974915   1.2041368  53.2612859  31.1701714   1.5668127  52.9104287
  32.7236875  -3.2498773  58.7657473  32.6672077  -2.7930222  57.9265106
  33.2765218  -4.0108089  58.5880316  40.8454019  -4.7212968  62.0978884
  40.2853577  -4.6519779  62.8710446  40.2397523  -4.8971984  61.3778381
  23.9149228   6.7123759  63.8497071  23.7981612   7.6569191  63.7475761
  23.0941674   6.4097321  64.2382870  33.8025763   1.4373895  54.6953663
  34.6371367   1.0055093  54.5131138  33.6410106   1.2655908  55.6230558
  33.4571655  -2.0593992  56.0610003  33.4020459  -2.2249721  55.1198447
  32.8317710  -1.3517959  56.2172192  24.9403742   7.3652021  67.0652999
  25.8430989   7.3975631  67.3819494  24.7141112   6.4352472  67.0799335
  26.6957344   6.1183007  63.7263078  25.7452975   6.1184869  63.6127450
  26.9989830   5.3715742  63.2099112  42.4310038  11.9543546  64.7908840
  43.0688448  11.8350293  64.0872180  42.3130881  12.9024390  64.8496792
  39.2399744  11.9070974  64.7270365  38.9018256  11.7912039  63.8390900
  40.1089512  11.5062139  64.7071371  35.0986560  13.7606450  60.7167256
  34.5351425  13.6696387  59.9483543  34.9838955  12.9406355  61.1969748
  39.7219527  13.0605826  70.6856570  39.7108168  12.6658624  69.8137074
  39.8840166  12.3271898  71.2790342  32.6450992  15.2557642  63.5551476
  33.4372284  14.9148467  63.1397775  32.8847642  15.3652617  64.4753629
  34.6041746  14.5166555  56.4268855  35.3772622  13.9695542  56.2881731
  34.9567144  15.3810804  56.6383316  36.4426788  15.8442937  69.6335754
  36.1516654  16.7488568  69.5182421  37.0783772  15.8859465  70.3479824
  37.3682995  13.2219786  66.2237114  37.9646567  12.9975808  65.5094077
  37.4257967  12.4804531  66.8262562  36.9408023  10.6759221  54.0587305
  37.1933544  10.1540743  53.2970768  36.0032582  10.5125367  54.1613988
  41.9851306   9.6795000  61.8662048  42.7714395   9.2614423  61.5152465
  42.2490011  10.5841092  62.0343696  42.1561384  15.1167850  56.5650705
  41.5207217  15.1902476  57.2771610  41.8258790  15.7061449  55.8869784
  47.3859733   9.6170233  62.7695027  48.1184905   9.0469450  63.0032856
  46.6299089   9.2291833  63.2101532  36.6604312  12.5787327  56.2611680
  36.5440570  11.9032231  56.9292764  36.7706572  12.0919701  55.4443833
  39.0035853  12.0397474  59.9658369  38.6394060  11.5128095  60.6771291
  39.8602969  11.6495943  59.7924854  38.6441340   7.0687374  54.9619718
  38.8115742   7.9367610  55.3290189  38.4538509   7.2314656  54.0381007
  41.4016673  15.5304353  66.6285548  41.1017396  16.4329392  66.5201355
  41.0567733  15.2636536  67.4806701  34.8529155  11.9818150  62.6622252
  33.9279651  11.8494364  62.8699944  35.1013568  12.7612369  63.1592195
  44.8013817   8.0486893  64.3082985  43.8930694   7.9802302  64.0141746
  44.7501413   8.5258838  65.1364811  38.6230561   9.5245032  55.9466384
  38.5030186   9.9702082  56.7851865  37.9283149   9.8730349  55.3879923
  32.2137966  11.6251423  63.4966041  32.3430347  11.8785902  64.4105453
  31.5335417  12.2179131  63.1770696  38.8754683   9.4676539  72.2517883
  38.0988017  10.0270459  72.2420747  39.5145246   9.9533322  72.7732753
  46.6675463   6.2503332  66.0860859  46.0249844   6.5435865  65.4400654
  46.1630392   6.1356252  66.8914056  44.3215627   9.9966505  56.7746718
  45.2333483  10.2293891  56.5994416  43.8125274  10.5803549  56.2121797
  37.1301055  12.2761992  71.8135850  37.8715739  12.8147036  71.5370673
  36.4238041  12.9028281  71.9707401  42.6056395  14.4191133  70.4108011
  43.0139751  13.9773543  69.6662643  41.8833656  13.8443760  70.6642204
  38.9587465   9.3563739  67.7841568  39.8048660   9.7803153  67.9276217
  38.8986102   8.6997364  68.4780131  42.9285209  14.9792323  64.1660300
  42.2994072  15.1438037  63.4636368  42.5410871  15.3933933  64.9371264
  42.1086910   7.0168108  69.4422742  41.8647842   7.7710168  68.9057017
  42.3846841   7.3953455  70.2769989  44.0625373  13.5606720  68.1200007
  44.2742268  14.2038480  67.4434388  44.0155121  12.7269037  67.6521937
  41.6651602   6.1724541  65.0236579  40.8036081   6.4705794  65.3153317
  41.6914036   6.3894940  64.0917612  38.4813171  14.7166731  61.4310385
  38.9451517  14.9954434  60.6415007  38.2169969  13.8150176  61.2483476
  35.3737252  14.2638213  64.3690148  35.9438609  14.6925481  63.7307633
  35.9645364  13.9820798  65.0674334  37.4182057  10.8389884  58.2399950
  38.1206101  11.2910927  58.7073876  37.0862686  10.1973702  58.8679843
  35.8662419   9.4301640  72.6151160  35.2361079  10.1117921  72.8486556
  35.7598507   9.3184722  71.6704298  31.1607391   9.0973436  63.5417084
  30.3706445   9.3530965  63.0657194  31.6518639   9.9121774  63.6469124
  45.1771201  16.4378675  66.2922365  45.9988645  16.0358863  66.0105046
  45.1733604  16.3346910  67.2438480  33.1122137   9.4618016  60.5000560
  32.3153300   9.5736710  61.0184056  32.8847729   9.8004668  59.6341451
  29.4445094   9.3503927  65.9732074  29.6953133  10.2350937  66.2389650
  29.9804643   9.1708528  65.2007166  35.1443162   3.7322406  74.9776411
  34.7510107   3.1788605  75.6524055  35.9609302   4.0432985  75.3682928
  32.1105219  15.1706264  58.8889980  32.6229740  15.9649515  59.0395545
  32.7627932  14.4732555  58.8223582  33.9200104  18.2872021  60.9712734
  34.0966732  19.2089985  60.7833718  34.7156938  17.9730440  61.4007113
  38.0611123   5.1480285  72.5696667  38.8020836   5.7487438  72.4901130
  38.2929045   4.4057923  72.0114710  33.2052461  10.3336652  70.8474897
  33.0905976   9.4321910  71.1481996  32.3496978  10.5800349  70.4959713
  35.0431419  19.8050194  66.9723076  35.5938845  19.6767258  66.2000070
  34.2042895  20.1045083  66.6217969  42.0068285   1.1761388  66.8460949
  41.6632555   2.0663030  66.7700059  42.3747248   0.9863046  65.9830534
  30.0754136  13.4994919  59.6649551  30.9129358  13.9091927  59.4483259
  30.2532404  12.5594361  59.6349745  41.9718568  11.1669999  55.3533384
  41.4565192  11.9374604  55.5921771  41.6995877  10.4935135  55.9766445
  39.5565679   6.0119700  60.4118622  38.7007276   5.6226550  60.2324261
  39.9692631   6.0911661  59.5518408  41.0864826   3.5466043  64.8110182
  40.5829621   3.5096178  63.9977987  41.3795433   4.4558786  64.8706839
  37.3307712   3.6304773  63.8176364  38.1960709   3.4347582  63.4582253
  37.3985221   3.4015125  64.7445721  46.9452842  13.9202354  57.2886557
  46.1682285  13.5813513  56.8441719  47.6244323  13.9254977  56.6141522
  41.7604871   9.0397091  57.1793165  41.4555007   9.3543241  58.0303308
  42.7135314   9.1178511  57.2220498  40.2051303  15.1987315  58.8286119
  39.6772665  14.4640074  58.5159357  39.7038806  15.9761991  58.5826087
  45.1844149  13.3936335  63.9453165  44.5267824  14.0835597  64.0333294
  45.9884548  13.7832767  64.2887152  34.9370031   5.8606981  61.1892731
  35.5113783   5.6382162  60.4565924  35.5241013   5.9295675  61.9421332
  43.9949608  11.7480708  61.9957107  44.5081490  12.3810700  62.4978817
  44.6450832  11.1481903  61.6300467  35.2639618   7.8911442  55.2088616
  34.4276930   8.2286129  55.5297891  35.1244388   7.7560422  54.2715753
  37.2392699   2.7348230  59.9167800  36.5857111   2.4197247  59.2924415
  37.1973173   2.1123970  60.6427623  38.3503903  13.0167525  51.8321092
  37.4430965  12.7856778  52.0312241  38.8474935  12.2205144  52.0195074
  40.4730439   9.2230163  64.2415448  39.5553000   9.4445110  64.0837136
  40.8890583   9.2976474  63.3827155  41.2565487  10.6221579  59.3718128
  42.0037306  11.1342976  59.0625250  41.5257076  10.3005632  60.2322521
  39.5292137  13.1180120  56.3545082  38.6203356  12.8339153  56.4517552
  39.5587221  13.5379198  55.4948389  43.7044324   7.6578695  61.3536917
  42.9667081   7.1456082  61.6847160  43.9571097   7.2179077  60.5420194
  43.8055951   0.4354947  61.9478687  44.1114828  -0.4247689  61.6604602
  44.5308556   1.0272568  61.7477680  30.0980307  10.8385634  60.3360284
  29.9004707  10.2454995  59.6111351  29.5426971  10.5337844  61.0536223
  39.2268225  14.6588863  53.6933161  38.7887655  13.9424722  53.2338798
  39.9678666  14.8864978  53.1318252  36.0169391   9.3485800  60.2145256
  35.2037256   9.6479971  60.6210449  36.5128385   8.9541489  60.9319739
  41.6143602   9.8127625  69.0460150  41.9692990  10.0399098  69.9054616
  42.2615734  10.1446001  68.4237406  47.3441339  12.9346060  59.7509479
  47.2059238  13.1247656  58.8230669  46.9877558  13.6965443  60.2077530
  35.5083466   6.9204156  65.8306491  36.1482845   6.7792915  65.1329455
  34.6760996   6.6338669  65.4545093  47.3710719  15.0022587  64.7620751
  47.8047226  14.9097877  65.6103805  48.0842300  14.9780088  64.1240767
  36.2843769  16.2206586  61.9441484  37.0784368  15.7256906  61.7424059
  35.5735462  15.6924449  61.5809189  32.5926533  10.3649668  58.0201237
  31.6624121  10.3034123  58.2371199  32.6884005   9.8425621  57.2237878
  32.5112082   6.8904481  60.6079478  32.7718899   7.8049814  60.4988639
  33.3329254   6.4228923  60.7576091  33.9837007   8.3042238  67.7778303
  34.6560061   8.0959600  67.1290952  33.1566794   8.1064324  67.3383535
  48.2326269  15.0446288  67.2953636  48.4262159  15.9492099  67.5412911
  48.1326887  14.5853707  68.1292221  39.8862579   4.9304179  69.7943964
  39.2390494   5.6294128  69.7008440  40.6563595   5.3640323  70.1620212
  43.2941377  15.1953031  72.8694517  43.1426884  14.9663583  71.9524601
  43.2846057  16.1523632  72.8825862  40.0626714  12.7684944  67.8540783
  40.9918774  12.9196103  67.6809751  39.6417744  12.8568964  66.9989430
  38.8615045  16.7935608  65.6239321  38.7226131  16.4254392  66.4965259
  38.0729642  17.3083247  65.4523279  40.4120261  16.1717211  63.0128159
  40.0770093  16.1317981  63.9085809  39.9124206  15.5061927  62.5398569
  34.3864505  11.5784841  68.5380740  34.2484303  10.8465080  69.1392279
  35.2969428  11.4893741  68.2564928  43.3479452  13.5173245  53.2865218
  42.7308623  12.7920073  53.1898271  42.8795941  14.2782605  52.9432293
  37.0146805  11.2904800  68.0264420  37.7246424  10.6497992  67.9851038
  36.9716113  11.5417695  68.9490600  35.7275739   8.2770018  69.8460059
  35.1913096   7.8260756  70.4981655  35.1392448   8.4115927  69.1030523
  34.0224283  25.0434067  63.7404718  34.2620881  25.6752591  64.4183736
  33.1793479  24.6922107  64.0270077  35.1377998   7.7358669  52.4086523
  34.2607464   7.6147470  52.0448769  35.6135751   6.9444748  52.1565411
  26.6580138  12.5235829  62.5028030  27.3451178  12.2097559  61.9149045
  26.5028267  13.4277194  62.2295281  31.4614860   7.4126026  66.9313054
  31.3773049   6.8051695  66.1963463  30.6397567   7.9035044  66.9322550
  38.5352145  20.8513190  66.1446222  38.4622316  21.6568161  66.6565526
  38.0929538  21.0505156  65.3194243  41.6338574   5.8979589  62.2983249
  42.1307274   5.1449552  61.9784319  40.8625556   5.9343906  61.7326458
  49.4868332  11.6019955  63.9401540  49.4758208  12.4844670  63.5695473
  48.6185711  11.2491506  63.7456077  42.7168355  14.6551276  59.8721672
  41.7824634  14.7752739  59.7026376  42.8945023  13.7523743  59.6081682
  38.2173543   8.0396972  62.0254933  37.8471331   7.4868013  62.7135839
  38.7132636   7.4355106  61.4729933  46.1040906  10.4968596  60.4071706
  46.5701359  11.3296587  60.3332009  46.5548407  10.0313577  61.1116965
  36.0462742  18.4994467  69.1209951  36.7472201  19.1330950  69.2739345
  35.5757857  18.8409199  68.3605590  44.0757569   2.8649183  64.4462607
  43.1620649   3.0953410  64.6144814  44.5050671   2.9487627  65.2976640
  43.8464028  11.0539075  66.9462501  43.1935478  11.3014982  66.2914954
  44.2244408  10.2403213  66.6124979  39.8951601  11.7958886  73.4328539
  39.2192238  11.6953015  74.1030914  40.7179235  11.6398099  73.8964536
  31.6430460  18.0330822  66.0541054  32.2283897  17.2874510  66.1868958
  31.4455298  18.3434779  66.9377718  34.4969115  21.0682070  61.0703496
  33.8279490  21.5528197  60.5867536  34.3581985  21.3151290  61.9846875
  26.2348114  10.6036422  64.7745497  26.2732214  10.0700013  65.5682615
  25.7288407  10.0771628  64.1556474  33.6138877   5.4500963  68.2708039
  33.6780203   6.3115794  67.8585437  33.5505997   4.8374965  67.5380398
  33.0891149   7.5224096  71.9181073  33.7163188   7.1401173  72.5318598
  32.2319068   7.3038297  72.2836766  29.8656692   9.3300525  57.8499428
  30.1610133   8.4211203  57.7966482  28.9644728   9.3088264  57.5280431
  33.3950939   7.4056521  63.8326977  32.6737525   8.0192489  63.6934450
  34.1844195   7.9414286  63.7543623  36.1977253   4.7410948  70.1067629
  36.7211654   4.9873244  70.8693938  35.9789586   5.5730983  69.6870766
  31.5944534   7.0114622  57.9738753  31.2657240   6.1312001  57.7913859
  31.9483904   6.9562291  58.8615143  40.8424112  18.6469525  62.4833739
  40.6949075  17.7186232  62.6641309  41.6677606  18.6689616  61.9990814
  34.7086357   7.2987592  58.3414231  35.0482429   7.8273513  57.6192840
  35.1558477   7.6367998  59.1172798  37.4029798   5.6824643  67.7917299
  37.0626618   4.8832456  68.1937979  36.6968804   5.9826354  67.2194132
  38.0546269   2.7673955  66.2444622  38.8772339   2.2934433  66.1223513
  38.2984333   3.5464439  66.7443309  36.6954504   5.7962214  56.5407524
  37.4162866   6.1743466  56.0371241  36.0719808   6.5151091  56.6442502
  40.8385627   6.5007363  57.4765856  41.0549241   7.3832001  57.1754684
  40.3579694   6.1093576  56.7471498  35.5784848   9.4593076  64.0536601
  35.4329429   9.7733379  64.9460882  35.1010052  10.0777976  63.5007499
  37.4381231   6.4495624  64.1017490  37.4242800   5.5536717  63.7649788
  38.1553659   6.4566288  64.7355776  39.2907362   6.8832964  66.1470618
  39.0325140   7.8050035  66.1454948  38.7592402   6.4863399  66.8371082
  30.0530510  11.9998420  66.9924262  29.5083978  12.7758228  67.1244536
  30.9309860  12.3469225  66.8343383  36.8418127   5.3310004  59.3705061
  36.9634038   4.4026650  59.5695948  36.5520169   5.3448690  58.4583376
  39.7109317   3.0164915  62.5071780  39.7331014   3.0804248  61.5523760
  40.1277376   2.1769423  62.7012287  50.0892942  12.7520174  60.5451003
  50.5324088  12.0027499  60.1470126  49.2119452  12.7430311  60.1624735
  30.8396532  11.1268317  69.8854419  30.0978268  11.2750952  70.4719049
  30.5189276  11.3876582  69.0221168  31.2853146  19.0133745  61.9164814
  32.1111166  18.7137517  61.5363457  30.9347198  18.2441368  62.3654602
  36.2534679  18.3660214  63.9862487  35.6314688  17.7030919  63.6864715
  36.9239546  18.3921345  63.3036135  29.4861751  16.9320072  62.8753747
  28.6493659  16.5042246  62.6937748  29.4585396  17.1252515  63.8124538
  36.3259207   6.8442002  73.5794993  36.3747362   7.7204124  73.1972763
  36.8681721   6.3019395  73.0066636  46.9311927  14.2375591  70.1728859
  46.9809932  14.0725599  71.1144382  46.8225851  13.3702850  69.7826740
  35.8148186  16.9164137  57.4620948  35.9636306  17.5999601  56.8087620
  36.6214629  16.8969227  57.9770403  44.2215690  10.2206519  71.4888165
  45.1225552  10.0812984  71.1972163  44.2963664  10.3860974  72.4286343
  38.5558495   7.5973374  70.3341352  37.6861804   7.8906940  70.0623940
  38.7917975   8.1813819  71.0548615  48.4330124  16.6572533  70.4170880
  48.1414932  17.0202513  71.2534341  47.8202255  15.9439541  70.2384212
  49.6325806  14.2225412  62.9373451  50.4672698  14.6615217  63.1011011
  49.7684935  13.7464066  62.1181696  46.6817312  11.7805147  68.8850938
  47.1571434  11.9732794  68.0769790  45.7582878  11.8364333  68.6394322
  33.5700819  12.9429314  58.4682017  33.3246861  12.0391644  58.6662227
  33.7396733  12.9446465  57.5261495  41.2597529   3.8152991  67.8506772
  41.7779473   4.5514018  67.5253261  40.9052662   4.1216984  68.6853531
  32.8396466   8.6757672  55.9668178  32.1465711   8.7502027  55.3108214
  32.5948218   7.9118016  56.4889695  41.5110123   0.2353273  63.3707669
  41.7911877  -0.4323538  63.9968095  42.2960730   0.4282369  62.8582333
  45.3818981   8.6570907  67.1179244  46.3336404   8.7569005  67.1391468
  45.2122432   7.8649176  67.6277328  43.4033361   5.7426491  67.3038645
  42.8083293   6.0231503  66.6085133  43.1183057   6.2320392  68.0755386
  47.8607059  11.8777027  66.2321544  47.8283379  10.9393028  66.4181227
  48.4707683  11.9561064  65.4987368  39.6990390  10.7473080  52.2748748
  40.6449495  10.6179288  52.3437166  39.3204635  10.0087742  52.7518176
  48.0101548   8.6688071  66.2779827  47.4940596   7.8846527  66.0909756
  48.8941496   8.3406787  66.4426346  45.6712275   2.4129086  62.2375639
  45.4737096   2.1044174  63.1218971  46.2811980   3.1390725  62.3673569
  51.7598906  11.0800896  65.9702032  51.0332070  10.9456861  65.3618523
  51.3446193  11.3877725  66.7758750  39.5829082  14.7990826  73.7349405
  40.5032092  14.9769425  73.9289451  39.5478666  13.8546872  73.5829104
  37.8833307   8.6723056  52.2103633  36.9764763   8.3756169  52.2866346
  38.1609288   8.3752875  51.3437919  28.8011247   9.9929420  62.6602679
  28.4814032   9.1394728  62.3677053  28.2544676  10.2077998  63.4160647
  32.5791155  12.7091861  66.3772186  32.7977165  13.6408969  66.3960220
  32.9916929  12.3499835  67.1626990  39.4995373   3.2159946  58.3647874
  38.6896101   2.8707031  58.7403120  40.1879790   2.9067490  58.9535486
  41.4285921   2.2937993  59.9872171  41.9816960   2.7133446  60.6462194
  41.6656007   1.3673741  60.0295127  37.4519020   8.2825067  75.7674935
  37.3515747   9.2319424  75.6987026  37.2340562   7.9543305  74.8951005
  36.6532092   5.5309992  52.3515612  37.5151256   5.8564890  52.6111429
  36.8382436   4.7441488  51.8388678  28.6699507  13.6132331  64.6295801
  27.9762979  13.1986284  64.1165755  29.4172498  13.6552868  64.0329220
  44.8064728   4.4038518  59.4950835  44.2263397   5.0623322  59.1128887
  44.5400661   3.5815863  59.0838252  43.2568295   3.8043576  61.6972155
  43.7568073   3.9160110  60.8886474  43.9003903   3.5004629  62.3372964
  37.3150290  11.7122205  74.5839996  36.8317372  12.5122566  74.7903885
  37.4011229  11.7230150  73.6307440  30.5836250  13.5450585  62.5061816
  30.5606938  13.6438272  61.5543699  30.8936887  14.3915736  62.8278982
  33.2423628  15.6026740  66.6208430  34.1966881  15.5710682  66.5538362
  33.0436151  15.1417364  67.4358656  33.8323010  14.1727856  69.1879228
  34.6515899  14.6671935  69.2114065  34.1059818  13.2559824  69.1596795
  43.5889606   6.5638608  58.5507183  42.7015461   6.8488259  58.3327378
  44.0043595   6.4032372  57.7034460  46.9404142   6.5885129  62.2661523
  47.7164532   7.0781582  62.5386139  46.2152277   7.0143184  62.7233392
  49.3776701   7.3012749  63.3235463  49.9721192   7.0608485  62.6128771
  49.4503285   6.5819879  63.9508999  31.5973857  21.1446360  63.6378628
  31.4628325  20.3846761  63.0716626  31.1805919  21.8687259  63.1707417
  42.7332820  16.3283283  52.6455203  43.4368670  16.5333286  53.2612859
  42.0095468  16.8960045  52.9104287  43.5630630  12.0793144  58.7657473
  43.5065831  12.5361696  57.9265106  44.1158972  11.3183829  58.5880316
  47.3735436   7.8682876  59.5907593  47.1172370   7.4679512  60.4215801
  46.7488304   8.5826670  59.4657732  51.6847774  10.6078950  62.0978884
  51.1247332  10.6772139  62.8710446  51.0791277  10.4319934  61.3778381
  34.7542983  22.0415677  63.8497071  34.6375367  22.9861109  63.7475761
  33.9335429  21.7389238  64.2382870  44.2965409  13.2697926  56.0610003
  44.2414213  13.1042197  55.1198447  43.6711465  13.9773959  56.2172192
  29.0857924   8.5065990  69.8871425  29.7316788   7.9964944  70.3758650
  28.8775075   9.2434672  70.4614850  41.6111316  15.5746838  75.3863565
  42.4802476  15.7487490  75.0250200  41.1318068  16.3941254  75.2639295
  37.6061535   2.7706035  55.6395321  37.5940205   3.7147875  55.7963592
  38.4984957   2.5876180  55.3454782  35.7797497  22.6943939  67.0652999
  36.6824743  22.7267549  67.3819494  35.5534867  21.7644389  67.0799335
  37.5351099  21.4474925  63.7263078  36.5846730  21.4476787  63.6127450
  37.8383585  20.7007660  63.2099112  41.4213654  -0.6351189  59.8941258
  40.6546050  -1.1892702  60.0397940  41.8324359  -0.5629320  60.7555409
  33.4255415   5.6533607  73.9846439  34.2886877   5.2970412  74.1949764
  32.8520826   5.3147502  74.6721843  45.9836916  19.0614324  74.9776411
  45.5903862  18.5080522  75.6524055  46.8003056  19.3724902  75.3682928
  37.0741869  25.9328340  64.7745497  37.1125968  25.3991931  65.5682615
  36.5682162  25.4063546  64.1556474  48.2912775  23.6116984  75.7674935
  48.1909502  24.5611341  75.6987026  48.0734317  23.2835223  74.8951005
  61.4007036  43.7189661  70.6856570  61.3895677  43.3242459  69.8137074
  61.5627675  42.9855734  71.2790342  69.0647242  40.2754068  62.7695027
  69.7972414  39.7053285  63.0032856  68.3086598  39.8875669  63.2101532
  66.4801326  38.7070728  64.3082985  65.5718203  38.6386137  64.0141746
  66.4288922  39.1842673  65.1364811  68.3462972  36.9087167  66.0860859
  67.7037353  37.2019700  65.4400654  67.8417901  36.7940087  66.8914056
  64.2843904  45.0774968  70.4108011  64.6927260  44.6357378  69.6662643
  63.5621165  44.5027595  70.6642204  65.7412882  44.2190555  68.1200007
  65.9529777  44.8622315  67.4434388  65.6942630  43.3852872  67.6521937
  66.8558710  47.0962511  66.2922365  67.6776154  46.6942698  66.0105046
  66.8521113  46.9930745  67.2438480  74.9464703  43.4401259  62.6407336
  74.1928411  42.8708657  62.4851340  75.0812244  43.4063924  63.5877971
  61.9631807  48.9338228  72.4462397  61.5195661  48.1474607  72.1283302
  62.6249021  49.1217379  71.7806288  64.0613045  49.2141028  70.4743799
  64.0431521  50.0349909  69.9824068  64.9832965  49.0895103  70.6993940
  60.5186100  46.7285158  71.3167307  61.0514436  45.9673446  71.0866615
  59.9900181  46.4358809  72.0591462  68.6240351  44.5786189  57.2886557
  67.8469794  44.2397349  56.8441719  69.3031832  44.5838812  56.6141522
  66.8631658  44.0520171  63.9453165  66.2055333  44.7419432  64.0333294
  67.6672057  44.4416602  64.2887152  65.6737117  42.4064543  61.9957107
  66.1868999  43.0394535  62.4978817  66.3238341  41.8065739  61.6300467
  69.0228848  43.5929896  59.7509479  68.8846747  43.7831492  58.8230669
  68.6665067  44.3549279  60.2077530  69.0498228  45.6606423  64.7620751
  69.4834735  45.5681712  65.6103805  69.7629809  45.6363923  64.1240767
  69.9113778  45.7030124  67.2953636  70.1049668  46.6075934  67.5412911
  69.8114396  45.2437543  68.1292221  64.9728886  45.8536866  72.8694517
  64.8214393  45.6247418  71.9524601  64.9633566  46.8107468  72.8825862
  66.6821093  48.8855989  70.9470999  66.6233639  48.2015209  70.2801582
  67.0840611  49.6274979  70.4951625  66.6838500  46.8495573  69.1784978
  65.7965279  46.5121495  69.3011377  67.2537051  46.1178604  69.4153744
  71.1655841  42.2603790  63.9401540  71.1545717  43.1428506  63.5695473
  70.2973220  41.9075341  63.7456077  62.6738337  51.4083859  68.3004380
  63.3866309  52.0431324  68.2280282  62.1828366  51.5047725  67.4844382
  67.7828415  41.1552431  60.4071706  68.2488868  41.9880423  60.3332009
  68.2335916  40.6897413  61.1116965  65.5251537  41.7122910  66.9462501
  64.8722987  41.9598817  66.2914954  65.9031916  40.8987048  66.6124979
  65.1672767  48.5870906  73.5234809  65.7112671  49.2000864  73.0289764
  64.5859612  49.1450484  74.0401822  65.5165188  49.5100644  66.2829387
  64.5695524  49.3905995  66.2107714  65.8647961  48.6223142  66.3655648
  71.7680451  43.4104010  60.5451003  72.2111597  42.6611335  60.1470126
  70.8906961  43.4014146  60.1624735  60.4627704  51.3268130  69.6834809
  60.7714830  51.0817277  70.5557508  61.2603186  51.5314769  69.1953679
  68.4901561  48.0466960  72.8596130  67.6997105  48.0291099  72.3200630
  68.2534916  48.5855254  73.6145167  68.6099436  44.8959427  70.1728859
  68.6597441  44.7309434  71.1144382  68.5013360  44.0286686  69.7826740
  65.9003199  40.8790355  71.4888165  66.8013061  40.7396819  71.1972163
  65.9751173  41.0444809  72.4286343  70.1117633  47.3156368  70.4170880
  69.8202441  47.6786349  71.2534341  69.4989764  46.6023376  70.2384212
  71.3113315  44.8809248  62.9373451  72.1460207  45.3199052  63.1011011
  71.4472444  44.4047901  62.1181696  68.3604821  42.4388983  68.8850938
  68.8358943  42.6316629  68.0769790  67.4370387  42.4948168  68.6394322
  67.0606490  39.3154743  67.1179244  68.0123913  39.4152840  67.1391468
  66.8909941  38.5233011  67.6277328  69.5394568  42.5360862  66.2321544
  69.5070888  41.5976863  66.4181227  70.1495192  42.6144899  65.4987368
  69.6889057  39.3271906  66.2779827  69.1728105  38.5430362  66.0909756
  70.5729005  38.9990622  66.4426346  75.3571118  43.5976869  65.3727580
  76.0874506  43.3362157  65.9335284  74.7478063  42.8605591  65.4129648
  73.4386415  41.7384732  65.9702032  72.7119579  41.6040697  65.3618523
  73.0233702  42.0461560  66.7758750  61.2616591  45.4574662  73.7349405
  62.1819601  45.6353261  73.9289451  61.2266175  44.5130707  73.5829104
  58.9937799  42.3706041  74.5839996  58.5104881  43.1706401  74.7903885
  59.0798738  42.3813986  73.6307440  65.2677115  37.2222444  58.5507183
  64.3802970  37.5072094  58.3327378  65.6831104  37.0616207  57.7034460
  68.6191651  37.2468965  62.2661523  69.3952041  37.7365417  62.5386139
  67.8939786  37.6727019  62.7233392  71.0564210  37.9596584  63.3235463
  71.6508701  37.7192320  62.6128771  71.1290794  37.2403715  63.9508999
  65.2418139  42.7376980  58.7657473  65.1853340  43.1945531  57.9265106
  65.7946481  41.9767664  58.5880316  69.0522945  38.5266712  59.5907593
  68.7959879  38.1263347  60.4215801  68.4275813  39.2410506  59.4657732
  73.3635283  41.2662785  62.0978884  72.8034841  41.3355974  62.8710446
  72.7578786  41.0903770  61.3778381  65.9752918  43.9281761  56.0610003
  65.9201722  43.7626032  55.1198447  65.3498974  44.6357794  56.2172192
  63.2898825  46.2330673  75.3863565  64.1589985  46.4071325  75.0250200
  62.8105577  47.0525090  75.2639295  74.9491301  57.9419299  64.7908840
  75.5869711  57.8226046  64.0872180  74.8312144  58.8900143  64.8496792
  71.7581007  57.8946727  64.7270365  71.4199519  57.7787792  63.8390900
  72.6270776  57.4937892  64.7071371  72.2400790  59.0481579  70.6856570
  72.2289431  58.6534377  69.8137074  72.4021430  58.3147651  71.2790342
  65.1632255  61.2433395  63.5551476  65.9553547  60.9024220  63.1397775
  65.4028905  61.3528370  64.4753629  73.1967382  63.4153171  56.0281721
  72.5455362  64.0007251  55.6415734  73.9911745  63.9459366  56.0876758
  68.9608052  61.8318690  69.6335754  68.6697918  62.7364321  69.5182421
  69.5965036  61.8735218  70.3479824  69.8864258  59.2095539  66.2237114
  70.4827831  58.9851561  65.5094077  69.9439230  58.4680284  66.8262562
  79.9040997  55.6045986  62.7695027  80.6366169  55.0345203  63.0032856
  79.1480352  55.2167586  63.2101532  77.4266417  49.3167560  67.2289635
  77.0949742  50.1862971  67.0050850  76.8312031  49.0003844  67.9083666
  73.9197937  61.5180106  66.6285548  73.6198660  62.4205145  66.5201355
  73.5748996  61.2512289  67.4806701  77.3195080  54.0362646  64.3082985
  76.4111958  53.9678055  64.0141746  77.2682676  54.5134591  65.1364811
  68.9018716  68.2824426  59.5956516  68.8242746  69.2332251  59.6744996
  68.2980360  67.9370299  60.2531442  71.3935946  55.4552292  72.2517883
  70.6169280  56.0146212  72.2420747  72.0326509  55.9409075  72.7732753
  79.1856727  52.2379085  66.0860859  78.5431107  52.5311618  65.4400654
  78.6811655  52.1232005  66.8914056  69.6482319  58.2637745  71.8135850
  70.3897003  58.8022789  71.5370673  68.9419304  58.8904034  71.9707401
  75.1237658  60.4066886  70.4108011  75.5321014  59.9649296  69.6662643
  74.4014920  59.8319513  70.6642204  71.4768728  55.3439492  67.7841568
  72.3229923  55.7678906  67.9276217  71.4167366  54.6873117  68.4780131
  75.4466473  60.9668076  64.1660300  74.8175335  61.1313790  63.4636368
  75.0592135  61.3809686  64.9371264  79.3255705  61.9022514  61.5204664
  78.6406743  62.2821415  60.9701697  79.4099554  62.5117841  62.2536611
  74.6268174  53.0043861  69.4422742  74.3829105  53.7585921  68.9057017
  74.9028104  53.3829208  70.2769989  76.5806636  59.5482473  68.1200007
  76.7923532  60.1914233  67.4434388  76.5336385  58.7144790  67.6521937
  74.1832865  52.1600294  65.0236579  73.3217344  52.4581547  65.3153317
  74.2095300  52.3770693  64.0917612  67.8918516  60.2513966  64.3690148
  68.4619873  60.6801234  63.7307633  68.4826628  59.9696551  65.0674334
  68.3843682  55.4177393  72.6151160  67.7542343  56.0993674  72.8486556
  68.2779770  55.3060475  71.6704298  77.6952464  62.4254429  66.2922365
  78.5169908  62.0234616  66.0105046  77.6914867  62.3222663  67.2438480
  71.4609068  61.9738472  68.4483075  71.5253500  62.4358879  69.2841247
  70.7519992  61.3435837  68.5765385  85.7858457  58.7693177  62.6407336
  85.0322166  58.2000575  62.4851340  85.9205999  58.7355841  63.5877971
  71.1757085  63.6406579  58.3162055  71.0402760  64.4858115  58.7446903
  71.7166898  63.8425857  57.5527989  67.6624425  49.7198159  74.9776411
  67.2691371  49.1664358  75.6524055  68.4790565  50.0308738  75.3682928
  66.4381367  64.2747774  60.9712734  66.6147996  65.1965738  60.7833718
  67.2338201  63.9606193  61.4007113  70.5792386  51.1356038  72.5696667
  71.3202099  51.7363191  72.4901130  70.8110309  50.3933676  72.0114710
  65.7233724  56.3212405  70.8474897  65.6087239  55.4197663  71.1481996
  64.8678242  56.5676102  70.4959713  72.8025562  64.2630146  72.4462397
  72.3589416  63.4766524  72.1283302  73.4642775  64.4509296  71.7806288
  74.9006800  64.5432946  70.4743799  74.8825275  65.3641827  69.9824068
  75.8226720  64.4187021  70.6993940  71.3579854  62.0577075  71.3167307
  71.8908191  61.2965363  71.0866615  70.8293935  61.7650727  72.0591462
  74.5249549  47.1637141  66.8460949  74.1813818  48.0538783  66.7700059
  74.8928512  46.9738799  65.9830534  72.0746943  51.9995453  60.4118622
  71.2188539  51.6102303  60.2324261  72.4873894  52.0787414  59.5518408
  73.6046089  49.5341796  64.8110182  73.1010885  49.4971931  63.9977987
  73.8976696  50.4434539  64.8706839  79.4634106  59.9078107  57.2886557
  78.6863549  59.5689266  56.8441719  80.1425587  59.9130730  56.6141522
  77.7025413  59.3812088  63.9453165  77.0449087  60.0711350  64.0333294
  78.5065812  59.7708520  64.2887152  76.5130872  57.7356461  61.9957107
  77.0262753  58.3686453  62.4978817  77.1632095  57.1357656  61.6300467
  73.7753246  67.7140785  54.7517778  73.1014945  68.0172482  55.3602736
  74.1619068  68.5169865  54.4023235  72.9911702  55.2105916  64.2415448
  72.0734264  55.4320863  64.0837136  73.4071846  55.2852227  63.3827155
  77.2792668  62.7162462  60.1236250  76.8254995  61.8753372  60.1801440
  76.6486634  63.3523861  60.4611030  75.7225607  64.5538959  61.0586068
  76.0148581  65.1144016  60.3398434  76.2324228  64.8467520  61.8139227
  76.3237215  46.4230700  61.9478687  76.6296091  45.5628064  61.6604602
  77.0489819  47.0148321  61.7477680  70.6859232  65.3319310  62.1479521
  70.6435411  65.5580156  61.2188053  71.6021931  65.0982685  62.2965322
  74.1324866  55.8003378  69.0460150  74.4874254  56.0274851  69.9054616
  74.7796997  56.1321754  68.4237406  79.8622603  58.9221814  59.7509479
  79.7240501  59.1123409  58.8230669  79.5058822  59.6841196  60.2077530
  68.0264729  52.9079909  65.8306491  68.6664108  52.7668668  65.1329455
  67.1942260  52.6214422  65.4545093  79.8891983  60.9898341  64.7620751
  80.3228489  60.8973630  65.6103805  80.6023563  60.9655841  64.1240767
  68.8025033  62.2082339  61.9441484  69.5965631  61.7132659  61.7424059
  68.0916725  61.6800202  61.5809189  73.6219877  64.5900435  66.2953851
  73.6756900  65.1591371  67.0631567  72.7534659  64.7602320  65.9307889
  66.5018271  54.2917991  67.7778303  67.1741324  54.0835353  67.1290952
  65.6748057  54.0940077  67.3383535  80.7507532  61.0322041  67.2953636
  80.9443422  61.9367852  67.5412911  80.6508150  60.5729460  68.1292221
  72.4043843  50.9179932  69.7943964  71.7571758  51.6169881  69.7008440
  73.1744858  51.3516076  70.1620212  75.8122641  61.1828784  72.8694517
  75.6608147  60.9539336  71.9524601  75.8027320  62.1399385  72.8825862
  72.5807977  58.7560697  67.8540783  73.5100037  58.9071856  67.6809751
  72.1599007  58.8444717  66.9989430  71.3796309  62.7811361  65.6239321
  71.2407395  62.4130145  66.4965259  70.5910905  63.2959001  65.4523279
  71.9744461  67.8820458  56.9664857  72.1496217  67.4108501  57.7810480
  71.2877249  68.5086224  57.1946118  72.9301524  62.1592964  63.0128159
  72.5951357  62.1193734  63.9085809  72.4305470  61.4937680  62.5398569
  66.9045768  57.5660594  68.5380740  66.7665566  56.8340833  69.1392279
  67.8150692  57.4769494  68.2564928  69.5328069  57.2780553  68.0264420
  70.2427687  56.6373745  67.9851038  69.4897377  57.5293448  68.9490600
  77.5214847  64.2147906  70.9470999  77.4627394  63.5307127  70.2801582
  77.9234366  64.9566896  70.4951625  68.2457003  54.2645771  69.8460059
  67.7094360  53.8136509  70.4981655  67.6573711  54.3991680  69.1030523
  77.5232255  62.1787490  69.1784978  76.6359033  61.8413412  69.3011377
  78.0930806  61.4470522  69.4153744  63.9796124  53.4001779  66.9313054
  63.8954313  52.7927448  66.1963463  63.1578830  53.8910797  66.9322550
  71.0533408  66.8388943  66.1446222  70.9803580  67.6443914  66.6565526
  70.6110801  67.0380909  65.3194243  70.8423188  66.0760713  59.6549043
  70.0590710  66.6182393  59.7487268  71.5415933  66.5934692  60.0543284
  74.1519838  51.8855342  62.2983249  74.6488537  51.1325305  61.9784319
  73.3806819  51.9219659  61.7326458  82.0049595  57.5895708  63.9401540
  81.9939471  58.4720423  63.5695473  81.1366975  57.2367259  63.7456077
  73.5132092  66.7375777  68.3004380  74.2260064  67.3723242  68.2280282
  73.0222120  66.8339643  67.4844382  75.2349618  60.6427029  59.8721672
  74.3005897  60.7628492  59.7026376  75.4126287  59.7399496  59.6081682
  78.6222170  56.4844349  60.4071706  79.0882622  57.3172340  60.3332009
  79.0729670  56.0189330  61.1116965  68.5644005  64.4870220  69.1209951
  69.2653465  65.1206703  69.2739345  68.0939120  64.8284952  68.3605590
  76.6898401  62.8288170  57.4057858  76.9658245  62.7144765  58.3151732
  75.8202900  62.4305655  57.3670031  76.5938833  48.8524936  64.4462607
  75.6801912  49.0829163  64.6144814  77.0231934  48.9363380  65.2976640
  76.3645291  57.0414828  66.9462501  75.7116741  57.2890735  66.2914954
  76.7425671  56.2278966  66.6124979  73.3252465  67.0774521  61.0490672
  73.5074859  66.2596177  61.5118424  74.1485451  67.2942213  60.6115562
  73.6594630  66.0042706  58.3105720  74.1882397  65.4935161  57.6975882
  73.9222850  65.6885236  59.1751253  72.4132864  57.7834639  73.4328539
  71.7373501  57.6828768  74.1030914  73.2360498  57.6273853  73.8964536
  64.1611723  64.0206575  66.0541054  64.7465160  63.2750263  66.1868958
  63.9636562  64.3310532  66.9377718  67.0150378  67.0557823  61.0703496
  66.3460754  67.5403950  60.5867536  66.8763248  67.3027043  61.9846875
  71.1555647  69.0901566  67.6686155  71.7073955  69.2533188  68.4335240
  71.4961840  69.6806004  66.9966179  66.1320140  51.4376716  68.2708039
  66.1961467  52.2991547  67.8585437  66.0687260  50.8250718  67.5380398
  65.6072413  53.5099849  71.9181073  66.2344452  53.1276926  72.5318598
  64.7500332  53.2914051  72.2836766  76.0066521  63.9162824  73.5234809
  76.5506425  64.5292782  73.0289764  75.4253366  64.4742402  74.0401822
  74.2924034  67.0383542  64.6549837  74.1675174  66.2373282  64.1460782
  74.9503125  67.5329735  64.1663807  76.3558943  64.8392562  66.2829387
  75.4089278  64.7197913  66.2107714  76.7041716  63.9515060  66.3655648
  68.7158516  50.7286701  70.1067629  69.2392918  50.9748997  70.8693938
  68.4970849  51.5606736  69.6870766  76.9639498  65.4573837  63.5698612
  77.8886045  65.2516698  63.4323063  76.7954801  65.2090238  64.4787953
  69.9211061  51.6700396  67.7917299  69.5807881  50.8708209  68.1937979
  69.2150067  51.9702107  67.2194132  70.5727533  48.7549708  66.2444622
  71.3953602  48.2810186  66.1223513  70.8165596  49.5340192  66.7443309
  71.8088625  52.8708717  66.1470618  71.5506403  53.7925788  66.1454948
  71.2773666  52.4739152  66.8371082  76.7534814  65.9759504  58.9260703
  76.9271692  65.4105927  58.1734556  77.2463705  66.7760399  58.7440193
  62.5711774  57.9874173  66.9924262  62.0265242  58.7633981  67.1244536
  63.4491124  58.3344978  66.8343383  82.6074205  58.7395927  60.5451003
  83.0505351  57.9903252  60.1470126  81.7300715  58.7306064  60.1624735
  77.7409986  65.2926269  56.0257601  78.4360891  65.9132961  56.2444916
  78.0833137  64.4421620  56.3009979  63.3577796  57.1144070  69.8854419
  62.6159532  57.2626705  70.4719049  63.0370540  57.3752335  69.0221168
  79.6401410  62.7425974  57.5544932  80.1652734  63.0813247  56.8294252
  79.5523762  61.8072989  57.3708067  71.3021458  66.6560048  69.6834809
  71.6108585  66.4109195  70.5557508  72.0996940  66.8606686  69.1953679
  71.3242070  68.8097957  61.9140185  70.8847061  68.3174336  62.6073042
  72.0750187  68.2670925  61.6732261  68.7715943  64.3535967  63.9862487
  68.1495952  63.6906672  63.6864715  69.4420809  64.3797098  63.3036135
  68.8440470  52.8317755  73.5794993  68.8928625  53.7079877  73.1972763
  69.3862984  52.2895148  73.0066636  79.3295316  63.3758878  72.8596130
  78.5390859  63.3583017  72.3200630  79.0928670  63.9147171  73.6145167
  79.4493191  60.2251344  70.1728859  79.4991196  60.0601352  71.1144382
  79.3407114  59.3578603  69.7826740  68.3329449  62.9039890  57.4620948
  68.4817570  63.5875354  56.8087620  69.1395893  62.8844980  57.9770403
  76.7396953  56.2082272  71.4888165  77.6406816  56.0688737  71.1972163
  76.8144928  56.3736727  72.4286343  71.0739758  53.5849127  70.3341352
  70.2043068  53.8782693  70.0623940  71.3099239  54.1689572  71.0548615
  80.9511388  62.6448286  70.4170880  80.6596196  63.0078266  71.2534341
  80.3383519  61.9315294  70.2384212  82.1507070  60.2101165  62.9373451
  82.9853961  60.6490970  63.1011011  82.2866199  59.7339819  62.1181696
  79.1998576  57.7680900  68.8850938  79.6752697  57.9608547  68.0769790
  78.2764141  57.8240086  68.6394322  73.7778792  49.8028744  67.8506772
  74.2960736  50.5389771  67.5253261  73.4233925  50.1092737  68.6853531
  74.0291386  46.2229026  63.3707669  74.3093140  45.5552215  63.9968095
  74.8141993  46.4158122  62.8582333  71.8324855  65.3988020  54.9332695
  71.2598822  66.0178207  54.4803167  72.4057649  65.9487382  55.4672617
  77.9000245  54.6446660  67.1179244  78.8517668  54.7444758  67.1391468
  77.7303695  53.8524929  67.6277328  75.9214624  51.7302244  67.3038645
  75.3264556  52.0107256  66.6085133  75.6364321  52.2196145  68.0755386
  75.0522115  65.6825170  56.0641277  75.9852788  65.6170732  56.2674153
  74.9645328  66.5181437  55.6055810  77.6810131  64.9991041  53.0245225
  77.6023763  64.6650904  53.9180983  78.5019798  65.4912809  53.0236697
  80.3788323  57.8652780  66.2321544  80.3464643  56.9268781  66.4181227
  80.9888946  57.9436817  65.4987368  80.5282811  54.6563824  66.2779827
  80.0121860  53.8722280  66.0909756  81.4122760  54.3282540  66.4426346
  78.1893538  48.4004839  62.2375639  77.9918359  48.0919927  63.1218971
  78.7993244  49.1266478  62.3673569  86.1964872  58.9268787  65.3727580
  86.9268261  58.6654075  65.9335284  85.5871818  58.1897509  65.4129648
  84.2780170  57.0676650  65.9702032  83.5513333  56.9332614  65.3618523
  83.8627456  57.3753478  66.7758750  72.1010346  60.7866579  73.7349405
  73.0213355  60.9645178  73.9289451  72.0659929  59.8422625  73.5829104
  65.0972419  58.6967614  66.3772186  65.3158428  59.6284722  66.3960220
  65.5098192  58.3375588  67.1626990  73.9467185  48.2813746  59.9872171
  74.4998223  48.7009199  60.6462194  74.1837271  47.3549494  60.0295127
  69.9700284  54.2700820  75.7674935  69.8697011  55.2195177  75.6987026
  69.7521826  53.9419059  74.8951005  77.3245992  50.3914271  59.4950835
  76.7444661  51.0499075  59.1128887  77.0581924  49.5691616  59.0838252
  75.7749558  49.7919329  61.6972155  76.2749336  49.9035863  60.8886474
  76.4185166  49.4880382  62.3372964  69.8331554  57.6997958  74.5839996
  69.3498636  58.4998319  74.7903885  69.9192493  57.7105903  73.6307440
  65.7604891  61.5902493  66.6208430  66.7148145  61.5586436  66.5538362
  65.5617415  61.1293117  67.4358656  66.3504273  60.1603609  69.1879228
  67.1697162  60.6547688  69.2114065  66.6241081  59.2435577  69.1596795
  76.1070870  52.5514362  58.5507183  75.2196725  52.8364012  58.3327378
  76.5224859  52.3908125  57.7034460  79.4585406  52.5760883  62.2661523
  80.2345796  53.0657335  62.5386139  78.7333540  53.0018937  62.7233392
  81.8957964  53.2888502  63.3235463  82.4902455  53.0484238  62.6128771
  81.9684548  52.5695632  63.9508999  75.2514083  62.3159036  52.6455203
  75.9549933  62.5209039  53.2612859  74.5276732  62.8835798  52.9104287
  79.8916699  53.8558629  59.5907593  79.6353634  53.4555265  60.4215801
  79.2669567  54.5702423  59.4657732  84.2029037  56.5954703  62.0978884
  83.6428595  56.6647892  62.8710446  83.5972541  56.4195687  61.3778381
  77.1600781  62.7541565  54.6953663  77.9946385  62.3222764  54.5131138
  76.9985123  62.5823579  55.6230558  76.8146673  59.2573679  56.0610003
  76.7595477  59.0917950  55.1198447  76.1892728  59.9649712  56.2172192
  61.6039188  54.4941743  69.8871425  62.2498051  53.9840697  70.3758650
  61.3956339  55.2310425  70.4614850  74.1292580  61.5622591  75.3863565
  74.9983740  61.7363243  75.0250200  73.6499331  62.3817007  75.2639295
  70.0532362  67.4350678  63.7263078  69.1027993  67.4352540  63.6127450
  70.3564848  66.6883413  63.2099112  73.9394918  45.3524564  59.8941258
  73.1727313  44.7983051  60.0397940  74.3505623  45.4246433  60.7555409
  65.9436679  51.6409360  73.9846439  66.8068140  51.2846165  74.1949764
  65.3702089  51.3023255  74.6721843  85.7885056  73.2711217  64.7908840
  86.4263466  73.1517964  64.0872180  85.6705899  74.2192060  64.8496792
  82.5974762  73.2238645  64.7270365  82.2593273  73.1079709  63.8390900
  83.4664530  72.8229810  64.7071371  78.4561578  75.0774121  60.7167256
  77.8926443  74.9864058  59.9483543  78.3413973  74.2574025  61.1969748
  83.0794545  74.3773496  70.6856570  83.0683186  73.9826295  69.8137074
  83.2415184  73.6439569  71.2790342  76.0026010  76.5725313  63.5551476
  76.7947301  76.2316137  63.1397775  76.2422660  76.6820288  64.4753629
  84.0361136  78.7445089  56.0281721  83.3849116  79.3299169  55.6415734
  84.8305499  79.2751284  56.0876758  77.9616764  75.8334226  56.4268855
  78.7347640  75.2863213  56.2881731  78.3142162  76.6978475  56.6383316
  79.8001806  77.1610608  69.6335754  79.5091672  78.0656239  69.5182421
  80.4358790  77.2027136  70.3479824  80.7258013  74.5387457  66.2237114
  81.3221585  74.3143479  65.5094077  80.7832984  73.7972202  66.8262562
  80.2983041  71.9926892  54.0587305  80.5508562  71.4708413  53.2970768
  79.3607600  71.8293037  54.1613988  85.3426324  70.9962670  61.8662048
  86.1289413  70.5782094  61.5152465  85.6065028  71.9008763  62.0343696
  85.5136402  76.4335521  56.5650705  84.8782234  76.5070147  57.2771610
  85.1833808  77.0229119  55.8869784  90.7434751  70.9337904  62.7695027
  91.4759923  70.3637120  63.0032856  89.9874107  70.5459504  63.2101532
  80.0179330  73.8954998  56.2611680  79.9015588  73.2199901  56.9292764
  80.1281590  73.4087372  55.4443833  82.3610871  73.3565145  59.9658369
  81.9969078  72.8295766  60.6771291  83.2177987  72.9663614  59.7924854
  88.2660172  64.6459478  67.2289635  87.9343496  65.5154889  67.0050850
  87.6705785  64.3295762  67.9083666  82.0016358  68.3855045  54.9619718
  82.1690760  69.2535281  55.3290189  81.8113527  68.5482326  54.0381007
  84.7591691  76.8472024  66.6285548  84.4592414  77.7497062  66.5201355
  84.4142751  76.5804207  67.4806701  78.2104173  73.2985820  62.6622252
  77.2854669  73.1662035  62.8699944  78.4588586  74.0780040  63.1592195
  88.1588835  69.3654564  64.3082985  87.2505712  69.2969972  64.0141746
  88.1076431  69.8426509  65.1364811  81.9805579  70.8412702  55.9466384
  81.8605204  71.2869753  56.7851865  81.2858167  71.1898020  55.3879923
  75.5712984  72.9419094  63.4966041  75.7005365  73.1953573  64.4105453
  74.8910435  73.5346802  63.1770696  79.7412471  83.6116344  59.5956516
  79.6636501  84.5624169  59.6744996  79.1374115  83.2662217  60.2531442
  82.2329701  70.7844209  72.2517883  81.4563035  71.3438130  72.2420747
  82.8720264  71.2700992  72.7732753  90.0250481  67.5671002  66.0860859
  89.3824862  67.8603535  65.4400654  89.5205410  67.4523923  66.8914056
  87.6790645  71.3134175  56.7746718  88.5908501  71.5461562  56.5994416
  87.1700292  71.8971220  56.2121797  80.4876073  73.5929663  71.8135850
  81.2290757  74.1314707  71.5370673  79.7813059  74.2195952  71.9707401
  85.9631413  75.7358803  70.4108011  86.3714769  75.2941214  69.6662643
  85.2408674  75.1611431  70.6642204  82.3162483  70.6731410  67.7841568
  83.1623678  71.0970824  67.9276217  82.2561120  70.0165034  68.4780131
  86.2860227  76.2959994  64.1660300  85.6569090  76.4605708  63.4636368
  85.8985889  76.7101603  64.9371264  90.1649459  77.2314432  61.5204664
  89.4800497  77.6113333  60.9701697  90.2493309  77.8409758  62.2536611
  85.4661928  68.3335778  69.4422742  85.2222860  69.0877839  68.9057017
  85.7421859  68.7121126  70.2769989  87.4200391  74.8774391  68.1200007
  87.6317286  75.5206151  67.4434388  87.3730139  74.0436707  67.6521937
  85.0226620  67.4892211  65.0236579  84.1611099  67.7873465  65.3153317
  85.0489054  67.7062610  64.0917612  81.8388189  76.0334402  61.4310385
  82.3026535  76.3122105  60.6415007  81.5744987  75.1317847  61.2483476
  78.7312270  75.5805884  64.3690148  79.3013627  76.0093152  63.7307633
  79.3220382  75.2988468  65.0674334  80.7757075  72.1557554  58.2399950
  81.4781119  72.6078598  58.7073876  80.4437704  71.5141373  58.8679843
  79.2237437  70.7469311  72.6151160  78.5936097  71.4285592  72.8486556
  79.1173525  70.6352393  71.6704298  74.5182409  70.4141107  63.5417084
  73.7281463  70.6698636  63.0657194  75.0093657  71.2289445  63.6469124
  88.5346219  77.7546346  66.2922365  89.3563663  77.3526533  66.0105046
  88.5308622  77.6514580  67.2438480  76.4697155  70.7785686  60.5000560
  75.6728318  70.8904381  61.0184056  76.2422747  71.1172338  59.6341451
  82.3002822  77.3030389  68.4483075  82.3647255  77.7650797  69.2841247
  81.5913746  76.6727754  68.5765385  72.8020112  70.6671597  65.9732074
  73.0528151  71.5518607  66.2389650  73.3379661  70.4876199  65.2007166
  96.6252212  74.0985095  62.6407336  95.8715920  73.5292493  62.4851340
  96.7599753  74.0647759  63.5877971  82.0150840  78.9698497  58.3162055
  81.8796515  79.8150033  58.7446903  82.5560652  79.1717775  57.5527989
  78.5018180  65.0490077  74.9776411  78.1085125  64.4956275  75.6524055
  79.3184320  65.3600655  75.3682928  75.4680237  76.4873935  58.8889980
  75.9804758  77.2817185  59.0395545  76.1202950  75.7900225  58.8223582
  77.2775122  79.6039691  60.9712734  77.4541750  80.5257656  60.7833718
  78.0731955  79.2898110  61.4007113  81.4186141  66.4647956  72.5696667
  82.1595854  67.0655109  72.4901130  81.6504063  65.7225594  72.0114710
  76.5627479  71.6504323  70.8474897  76.4480994  70.7489580  71.1481996
  75.7071996  71.8968020  70.4959713  83.6419316  79.5922063  72.4462397
  83.1983170  78.8058442  72.1283302  84.3036530  79.7801214  71.7806288
  78.4006437  81.1217865  66.9723076  78.9513863  80.9934928  66.2000070
  77.5617913  81.4212754  66.6217969  85.7400554  79.8724863  70.4743799
  85.7219030  80.6933744  69.9824068  86.6620474  79.7478939  70.6993940
  82.1973608  77.3868993  71.3167307  82.7301945  76.6257281  71.0866615
  81.6687690  77.0942645  72.0591462  85.3643303  62.4929059  66.8460949
  85.0207573  63.3830701  66.7700059  85.7322266  62.3030716  65.9830534
  73.4329154  74.8162589  59.6649551  74.2704376  75.2259598  59.4483259
  73.6107422  73.8762031  59.6349745  85.3293586  72.4837670  55.3533384
  84.8140210  73.2542275  55.5921771  85.0570895  71.8102806  55.9766445
  82.9140697  67.3287371  60.4118622  82.0582294  66.9394221  60.2324261
  83.3267649  67.4079332  59.5518408  84.4439844  64.8633714  64.8110182
  83.9404639  64.8263849  63.9977987  84.7370451  65.7726457  64.8706839
  80.6882730  64.9472444  63.8176364  81.5535726  64.7515252  63.4582253
  80.7560239  64.7182795  64.7445721  90.3027860  75.2370025  57.2886557
  89.5257303  74.8981184  56.8441719  90.9819341  75.2422648  56.6141522
  85.1179889  70.3564762  57.1793165  84.8130025  70.6710911  58.0303308
  86.0710331  70.4346182  57.2220498  83.5626321  76.5154985  58.8286119
  83.0347683  75.7807745  58.5159357  83.0613824  77.2929662  58.5826087
  88.5419167  74.7104006  63.9453165  87.8842842  75.4003267  64.0333294
  89.3459566  75.1000438  64.2887152  78.2945049  67.1774652  61.1892731
  78.8688801  66.9549833  60.4565924  78.8816031  67.2463346  61.9421332
  87.3524626  73.0648379  61.9957107  87.8656508  73.6978370  62.4978817
  88.0025850  72.4649574  61.6300467  78.6214636  69.2079113  55.2088616
  77.7851948  69.5453799  55.5297891  78.4819406  69.0728092  54.2715753
  80.5967717  64.0515901  59.9167800  79.9432129  63.7364918  59.2924415
  80.5548191  63.4291641  60.6427623  81.7078921  74.3335196  51.8321092
  80.8005983  74.1024449  52.0312241  82.2049953  73.5372815  52.0195074
  84.6147000  83.0432703  54.7517778  83.9408699  83.3464400  55.3602736
  85.0012822  83.8461783  54.4023235  83.8305457  70.5397834  64.2415448
  82.9128018  70.7612781  64.0837136  84.2465600  70.6144145  63.3827155
  84.6140505  71.9389250  59.3718128  85.3612324  72.4510647  59.0625250
  84.8832094  71.6173302  60.2322521  82.8867155  74.4347790  56.3545082
  81.9778374  74.1506823  56.4517552  82.9162239  74.8546869  55.4948389
  88.1186422  78.0454380  60.1236250  87.6648749  77.2045290  60.1801440
  87.4880389  78.6815778  60.4611030  87.0619342  68.9746366  61.3536917
  86.3242099  68.4623752  61.6847160  87.3146115  68.5346748  60.5420194
  86.5619361  79.8830877  61.0586068  86.8542336  80.4435934  60.3398434
  87.0717982  80.1759438  61.8139227  87.1630969  61.7522618  61.9478687
  87.4689846  60.8919981  61.6604602  87.8883574  62.3440238  61.7477680
  73.4555325  72.1553305  60.3360284  73.2579725  71.5622665  59.6111351
  72.9001989  71.8505515  61.0536223  81.4352049  72.0476411  62.4554878
  81.4900659  71.0950247  62.3797354  80.6243251  72.2035850  62.9396176
  82.5843243  75.9756534  53.6933161  82.1462673  75.2592393  53.2338798
  83.3253683  76.2032649  53.1318252  79.3744409  70.6653471  60.2145256
  78.5612274  70.9647641  60.6210449  79.8703403  70.2709160  60.9319739
  81.5252987  80.6611228  62.1479521  81.4829165  80.8872074  61.2188053
  82.4415686  80.4274602  62.2965322  84.9718620  71.1295295  69.0460150
  85.3268008  71.3566768  69.9054616  85.6190752  71.4613672  68.4237406
  90.7016357  74.2513731  59.7509479  90.5634256  74.4415327  58.8230669
  90.3452576  75.0133114  60.2077530  78.8658484  68.2371826  65.8306491
  79.5057863  68.0960585  65.1329455  78.0336014  67.9506340  65.4545093
  90.7285737  76.3190258  64.7620751  91.1622244  76.2265547  65.6103805
  91.4417318  76.2947759  64.1240767  79.6418787  77.5374257  61.9441484
  80.4359386  77.0424577  61.7424059  78.9310480  77.0092120  61.5809189
  84.4613632  79.9192352  66.2953851  84.5150654  80.4883289  67.0631567
  83.5928413  80.0894237  65.9307889  75.9501551  71.6817339  58.0201237
  75.0199139  71.6201794  58.2371199  76.0459023  71.1593291  57.2237878
  75.8687100  68.2072151  60.6079478  76.1293917  69.1217485  60.4988639
  76.6904272  67.7396594  60.7576091  77.3412025  69.6209909  67.7778303
  78.0135079  69.4127271  67.1290952  76.5141812  69.4231995  67.3383535
  91.5901287  76.3613959  67.2953636  91.7837177  77.2659769  67.5412911
  91.4901905  75.9021378  68.1292221  83.2437597  66.2471849  69.7943964
  82.5965512  66.9461799  69.7008440  84.0138613  66.6807993  70.1620212
  86.6516395  76.5120702  72.8694517  86.5001902  76.2831253  71.9524601
  86.6421075  77.4691303  72.8825862  83.4201732  74.0852614  67.8540783
  84.3493792  74.2363774  67.6809751  82.9992762  74.1736635  66.9989430
  82.2190063  78.1103279  65.6239321  82.0801149  77.7422063  66.4965259
  81.4304660  78.6250918  65.4523279  82.8138215  83.2112375  56.9664857
  82.9889971  82.7400418  57.7810480  82.1271003  83.8378141  57.1946118
  83.7695279  77.4884881  63.0128159  83.4345111  77.4485651  63.9085809
  83.2699224  76.8229597  62.5398569  77.7439523  72.8952511  68.5380740
  77.6059320  72.1632750  69.1392279  78.6544446  72.8061412  68.2564928
  86.7054470  74.8340916  53.2865218  86.0883641  74.1087744  53.1898271
  86.2370959  75.5950276  52.9432293  80.3721823  72.6072471  68.0264420
  81.0821442  71.9665663  67.9851038  80.3291131  72.8585366  68.9490600
  88.3608602  79.5439824  70.9470999  88.3021148  78.8599044  70.2801582
  88.7628120  80.2858814  70.4951625  79.0850757  69.5937689  69.8460059
  78.5488114  69.1428427  70.4981655  78.4967466  69.7283598  69.1030523
  77.3799301  86.3601738  63.7404718  77.6195899  86.9920262  64.4183736
  76.5368497  86.0089778  64.0270077  78.4953016  69.0526340  52.4086523
  77.6182482  68.9315141  52.0448769  78.9710769  68.2612418  52.1565411
  88.3626009  77.5079408  69.1784978  87.4752788  77.1705330  69.3011377
  88.9324560  76.7762439  69.4153744  70.0155156  73.8403500  62.5028030
  70.7026196  73.5265230  61.9149045  69.8603285  74.7444864  62.2295281
  74.8189878  68.7293696  66.9313054  74.7348067  68.1219366  66.1963463
  73.9972585  69.2202715  66.9322550  81.8927163  82.1680860  66.1446222
  81.8197334  82.9735832  66.6565526  81.4504556  82.3672826  65.3194243
  81.6816942  81.4052630  59.6549043  80.8984464  81.9474311  59.7487268
  82.3809687  81.9226610  60.0543284  84.9913592  67.2147260  62.2983249
  85.4882292  66.4617222  61.9784319  84.2200574  67.2511577  61.7326458
  92.8443350  72.9187625  63.9401540  92.8333226  73.8012341  63.5695473
  91.9760729  72.5659176  63.7456077  84.3525846  82.0667694  68.3004380
  85.0653818  82.7015159  68.2280282  83.8615875  82.1631560  67.4844382
  86.0743373  75.9718947  59.8721672  85.1399652  76.0920410  59.7026376
  86.2520041  75.0691414  59.6081682  81.5748561  69.3564643  62.0254933
  81.2046349  68.8035683  62.7135839  82.0707653  68.7522776  61.4729933
  89.4615924  71.8136266  60.4071706  89.9276377  72.6464258  60.3332009
  89.9123425  71.3481248  61.1116965  79.4037760  79.8162138  69.1209951
  80.1047219  80.4498621  69.2739345  78.9332875  80.1576869  68.3605590
  87.5292155  78.1580088  57.4057858  87.8051999  78.0436682  58.3151732
  86.6596654  77.7597573  57.3670031  87.4332587  64.1816853  64.4462607
  86.5195667  64.4121080  64.6144814  87.8625689  64.2655297  65.2976640
  87.2039046  72.3706745  66.9462501  86.5510496  72.6182653  66.2914954
  87.5819425  71.5570884  66.6124979  84.1646219  82.4066439  61.0490672
  84.3468614  81.5888094  61.5118424  84.9879205  82.6234131  60.6115562
  84.4988385  81.3334624  58.3105720  85.0276151  80.8227078  57.6975882
  84.7616605  81.0177154  59.1751253  83.2526619  73.1126556  73.4328539
  82.5767256  73.0120686  74.1030914  84.0754252  72.9565770  73.8964536
  75.0005478  79.3498493  66.0541054  75.5858914  78.6042181  66.1868958
  74.8030316  79.6602450  66.9377718  77.8544133  82.3849740  61.0703496
  77.1854508  82.8695868  60.5867536  77.7157003  82.6318961  61.9846875
  69.5923132  71.9204093  64.7745497  69.6307232  71.3867684  65.5682615
  69.0863425  71.3939299  64.1556474  81.9949401  84.4193484  67.6686155
  82.5467709  84.5825105  68.4335240  82.3355595  85.0097922  66.9966179
  76.9713895  66.7668634  68.2708039  77.0355221  67.6283465  67.8585437
  76.9081015  66.1542635  67.5380398  76.4466167  68.8391766  71.9181073
  77.0738206  68.4568844  72.5318598  75.5894086  68.6205968  72.2836766
  86.8460276  79.2454741  73.5234809  87.3900180  79.8584700  73.0289764
  86.2647121  79.8034320  74.0401822  73.2231710  70.6468195  57.8499428
  73.5185151  69.7378874  57.7966482  72.3219746  70.6255935  57.5280431
  85.1317789  82.3675459  64.6549837  85.0068928  81.5665199  64.1460782
  85.7896880  82.8621653  64.1663807  76.7525957  68.7224192  63.8326977
  76.0312543  69.3360160  63.6934450  77.5419213  69.2581957  63.7543623
  87.1952697  80.1684480  66.2829387  86.2483033  80.0489831  66.2107714
  87.5435470  79.2806978  66.3655648  79.5552271  66.0578618  70.1067629
  80.0786672  66.3040915  70.8693938  79.3364604  66.8898653  69.6870766
  74.9519552  68.3282293  57.9738753  74.6232258  67.4479672  57.7913859
  75.3058922  68.2729962  58.8615143  84.1999130  79.9637196  62.4833739
  84.0524093  79.0353903  62.6641309  85.0252624  79.9857286  61.9990814
  78.0661375  68.6155263  58.3414231  78.4057447  69.1441184  57.6192840
  78.5133495  68.9535669  59.1172798  87.8033252  80.7865754  63.5698612
  88.7279800  80.5808616  63.4323063  87.6348556  80.5382156  64.4787953
  80.7604816  66.9992314  67.7917299  80.4201636  66.2000127  68.1937979
  80.0543822  67.2994024  67.2194132  81.4121287  64.0841626  66.2444622
  82.2347357  63.6102104  66.1223513  81.6559351  64.8632110  66.7443309
  80.0529522  67.1129884  56.5407524  80.7737884  67.4911137  56.0371241
  79.4294826  67.8318761  56.6442502  84.1960645  67.8175033  57.4765856
  84.4124259  68.6999671  57.1754684  83.7154712  67.4261247  56.7471498
  78.9359866  70.7760747  64.0536601  78.7904447  71.0901050  64.9460882
  78.4585070  71.3945647  63.5007499  80.7956249  67.7663295  64.1017490
  80.7817818  66.8704388  63.7649788  81.5128677  67.7733958  64.7355776
  82.6482380  68.2000635  66.1470618  82.3900158  69.1217705  66.1454948
  82.1167420  67.8031069  66.8371082  87.5928568  81.3051422  58.9260703
  87.7665446  80.7397844  58.1734556  88.0857460  82.1052317  58.7440193
  73.4105528  73.3166091  66.9924262  72.8658996  74.0925899  67.1244536
  74.2884878  73.6636895  66.8343383  80.1993145  66.6477675  59.3705061
  80.3209056  65.7194321  59.5695948  79.9095187  66.6616361  58.4583376
  83.0684335  64.3332585  62.5071780  83.0906032  64.3971918  61.5523760
  83.4852394  63.4937094  62.7012287  93.4467960  74.0687845  60.5451003
  93.8899106  73.3195170  60.1470126  92.5694470  74.0597981  60.1624735
  88.5803741  80.6218186  56.0257601  89.2754646  81.2424879  56.2444916
  88.9226891  79.7713538  56.3009979  74.1971550  72.4435987  69.8854419
  73.4553286  72.5918623  70.4719049  73.8764294  72.7044253  69.0221168
  90.4795164  78.0717892  57.5544932  91.0046488  78.4105165  56.8294252
  90.3917517  77.1364907  57.3708067  82.1415213  81.9851965  69.6834809
  82.4502339  81.7401112  70.5557508  82.9390695  82.1898604  69.1953679
  82.1635825  84.1389875  61.9140185  81.7240815  83.6466254  62.6073042
  82.9143942  83.5962843  61.6732261  74.6428164  80.3301416  61.9164814
  75.4686184  80.0305188  61.5363457  74.2922216  79.5609038  62.3654602
  79.6109697  79.6827884  63.9862487  78.9889706  79.0198589  63.6864715
  80.2814564  79.7089016  63.3036135  72.8436769  78.2487742  62.8753747
  72.0068677  77.8209917  62.6937748  72.8160414  78.4420186  63.8124538
  79.6834224  68.1609672  73.5794993  79.7322380  69.0371795  73.1972763
  80.2256739  67.6187065  73.0066636  90.1689070  78.7050795  72.8596130
  89.3784614  78.6874934  72.3200630  89.9322425  79.2439089  73.6145167
  90.2886945  75.5543262  70.1728859  90.3384950  75.3893269  71.1144382
  90.1800869  74.6870521  69.7826740  79.1723204  78.2331808  57.4620948
  79.3211324  78.9167272  56.8087620  79.9789647  78.2136898  57.9770403
  87.5790708  71.5374190  71.4888165  88.4800570  71.3980655  71.1972163
  87.6538682  71.7028645  72.4286343  81.9133513  68.9141045  70.3341352
  81.0436822  69.2074611  70.0623940  82.1492993  69.4981490  71.0548615
  91.7905142  77.9740203  70.4170880  91.4989950  78.3370184  71.2534341
  91.1777273  77.2607212  70.2384212  92.9900824  75.5393083  62.9373451
  93.8247716  75.9782887  63.1011011  93.1259953  75.0631736  62.1181696
  90.0392330  73.0972818  68.8850938  90.5146452  73.2900464  68.0769790
  89.1157896  73.1532004  68.6394322  76.9275837  74.2596985  58.4682017
  76.6821879  73.3559315  58.6662227  77.0971751  74.2614136  57.5261495
  84.6172547  65.1320662  67.8506772  85.1354491  65.8681688  67.5253261
  84.2627680  65.4384655  68.6853531  76.1971484  69.9925343  55.9668178
  75.5040729  70.0669698  55.3108214  75.9523236  69.2285686  56.4889695
  84.8685141  61.5520944  63.3707669  85.1486895  60.8844133  63.9968095
  85.6535748  61.7450040  62.8582333  82.6718609  80.7279938  54.9332695
  82.0992577  81.3470125  54.4803167  83.2451403  81.2779300  55.4672617
  88.7393999  69.9738578  67.1179244  89.6911422  70.0736676  67.1391468
  88.5697450  69.1816847  67.6277328  86.7608379  67.0594161  67.3038645
  86.1658311  67.3399174  66.6085133  86.4758075  67.5488062  68.0755386
  85.8915869  81.0117088  56.0641277  86.8246542  80.9462650  56.2674153
  85.8039082  81.8473355  55.6055810  88.5203886  80.3282958  53.0245225
  88.4417517  79.9942822  53.9180983  89.3413553  80.8204726  53.0236697
  91.2182077  73.1944698  66.2321544  91.1858397  72.2560699  66.4181227
  91.8282701  73.2728734  65.4987368  83.0565408  72.0640751  52.2748748
  84.0024513  71.9346959  52.3437166  82.6779653  71.3255413  52.7518176
  91.3676566  69.9855741  66.2779827  90.8515614  69.2014198  66.0909756
  92.2516514  69.6574458  66.4426346  89.0287292  63.7296757  62.2375639
  88.8312114  63.4211845  63.1218971  89.6386998  64.4558396  62.3673569
  97.0358627  74.2560705  65.3727580  97.7662015  73.9945993  65.9335284
  96.4265572  73.5189427  65.4129648  95.1173924  72.3968567  65.9702032
  94.3907088  72.2624532  65.3618523  94.7021211  72.7045396  66.7758750
  82.9404100  76.1158497  73.7349405  83.8607110  76.2937096  73.9289451
  82.9053683  75.1714542  73.5829104  81.2408325  69.9890727  52.2103633
  80.3339780  69.6923840  52.2866346  81.5184306  69.6920545  51.3437919
  72.1586265  71.3097091  62.6602679  71.8389050  70.4562399  62.3677053
  71.6119694  71.5245669  63.4160647  75.9366173  74.0259532  66.3772186
  76.1552183  74.9576639  66.3960220  76.3491947  73.6667506  67.1626990
  82.8570391  64.5327617  58.3647874  82.0471119  64.1874702  58.7403120
  83.5454808  64.2235161  58.9535486  84.7860939  63.6105664  59.9872171
  85.3391978  64.0301117  60.6462194  85.0231025  62.6841412  60.0295127
  80.8094038  69.5992737  75.7674935  80.7090765  70.5487094  75.6987026
  80.5915580  69.2710976  74.8951005  80.0107110  66.8477662  52.3515612
  80.8726274  67.1732561  52.6111429  80.1957454  66.0609158  51.8388678
  72.0274525  74.9300002  64.6295801  71.3337997  74.5153955  64.1165755
  72.7747516  74.9720539  64.0329220  88.1639746  65.7206189  59.4950835
  87.5838415  66.3790993  59.1128887  87.8975679  64.8983533  59.0838252
  86.6143313  65.1211247  61.6972155  87.1143091  65.2327781  60.8886474
  87.2578920  64.8172299  62.3372964  80.6725308  73.0289876  74.5839996
  80.1892390  73.8290236  74.7903885  80.7586247  73.0397821  73.6307440
  73.9411268  74.8618256  62.5061816  73.9181956  74.9605943  61.5543699
  74.2511904  75.7083407  62.8278982  76.5998646  76.9194411  66.6208430
  77.5541899  76.8878353  66.5538362  76.4011169  76.4585035  67.4358656
  77.1898028  75.4895527  69.1879228  78.0090917  75.9839606  69.2114065
  77.4634836  74.5727495  69.1596795  86.9464624  67.8806279  58.5507183
  86.0590479  68.1655930  58.3327378  87.3618613  67.7200043  57.7034460
  90.2979160  67.9052800  62.2661523  91.0739550  68.3949253  62.5386139
  89.5727294  68.3310854  62.7233392  92.7351719  68.6180419  63.3235463
  93.3296210  68.3776155  62.6128771  92.8078303  67.8987550  63.9508999
  74.9548875  82.4614030  63.6378628  74.8203343  81.7014431  63.0716626
  74.5380937  83.1854930  63.1707417  86.0907838  77.6450954  52.6455203
  86.7943688  77.8500956  53.2612859  85.3670486  78.2127716  52.9104287
  86.9205648  73.3960815  58.7657473  86.8640849  73.8529367  57.9265106
  87.4733990  72.6351500  58.5880316  90.7310454  69.1850547  59.5907593
  90.4747388  68.7847183  60.4215801  90.1063322  69.8994341  59.4657732
  95.0422792  71.9246620  62.0978884  94.4822350  71.9939810  62.8710446
  94.4366295  71.7487605  61.3778381  78.1118001  83.3583347  63.8497071
  77.9950385  84.3028780  63.7475761  77.2910447  83.0556909  64.2382870
  87.9994535  78.0833483  54.6953663  88.8340139  77.6514682  54.5131138
  87.8378878  77.9115497  55.6230558  87.6540427  74.5865596  56.0610003
  87.5989231  74.4209868  55.1198447  87.0286483  75.2941629  56.2172192
  72.4432942  69.8233661  69.8871425  73.0891806  69.3132615  70.3758650
  72.2350093  70.5602342  70.4614850  84.9686334  76.8914508  75.3863565
  85.8377494  77.0655161  75.0250200  84.4893086  77.7108925  75.2639295
  80.9636553  64.0873705  55.6395321  80.9515223  65.0315545  55.7963592
  81.8559975  63.9043851  55.3454782  79.1372515  84.0111609  67.0652999
  80.0399761  84.0435220  67.3819494  78.9109885  83.0812060  67.0799335
  80.8926117  82.7642596  63.7263078  79.9421748  82.7644457  63.6127450
  81.1958603  82.0175330  63.2099112  84.7788672  60.6816482  59.8941258
  84.0121068  60.1274969  60.0397940  85.1899377  60.7538351  60.7555409
  76.7830433  66.9701278  73.9846439  77.6461895  66.6138083  74.1949764
  76.2095844  66.6315173  74.6721843  93.4368516  88.5530562  64.7270365
  93.0987028  88.4371627  63.8390900  94.3058285  88.1521727  64.7071371
  89.2955332  90.4066039  60.7167256  88.7320197  90.3155976  59.9483543
  89.1807727  89.5865943  61.1969748  86.8419764  91.9017230  63.5551476
  87.6341056  91.5608055  63.1397775  87.0816414  92.0112205  64.4753629
  88.8010518  91.1626144  56.4268855  89.5741394  90.6155131  56.2881731
  89.1535917  92.0270393  56.6383316  91.5651767  89.8679374  66.2237114
  92.1615340  89.6435397  65.5094077  91.6226739  89.1264120  66.8262562
  91.1376796  87.3218810  54.0587305  91.3902317  86.8000331  53.2970768
  90.2001355  87.1584955  54.1613988  96.1820079  86.3254588  61.8662048
  96.9683168  85.9074011  61.5152465  96.4458783  87.2300680  62.0343696
  90.8573085  89.2246916  56.2611680  90.7409343  88.5491819  56.9292764
  90.9675344  88.7379290  55.4443833  93.2004625  88.6857063  59.9658369
  92.8362833  88.1587684  60.6771291  94.0571741  88.2955532  59.7924854
  99.1053926  79.9751395  67.2289635  98.7737251  80.8446806  67.0050850
  98.5099540  79.6587679  67.9083666  92.8410112  83.7146962  54.9619718
  93.0084515  84.5827199  55.3290189  92.6507282  83.8774244  54.0381007
  89.0497927  88.6277738  62.6622252  88.1248424  88.4953952  62.8699944
  89.2982340  89.4071957  63.1592195  98.9982589  84.6946482  64.3082985
  98.0899467  84.6261890  64.0141746  98.9470185  85.1718426  65.1364811
  92.8199333  86.1704620  55.9466384  92.6998959  86.6161671  56.7851865
  92.1251922  86.5189938  55.3879923  86.4106738  88.2711012  63.4966041
  86.5399119  88.5245491  64.4105453  85.7304189  88.8638720  63.1770696
  91.3269828  88.9221580  71.8135850  92.0684512  89.4606624  71.5370673
  90.6206813  89.5487869  71.9707401  93.1556237  86.0023328  67.7841568
  94.0017432  86.4262741  67.9276217  93.0954875  85.3456952  68.4780131
  96.3055683  83.6627696  69.4422742  96.0616614  84.4169757  68.9057017
  96.5815613  84.0413044  70.2769989  95.8620374  82.8184129  65.0236579
  95.0004853  83.1165383  65.3153317  95.8882809  83.0354528  64.0917612
  89.5706025  90.9097801  64.3690148  90.1407382  91.3385070  63.7307633
  90.1614137  90.6280386  65.0674334  91.6150830  87.4849472  58.2399950
  92.3174873  87.9370516  58.7073876  91.2831458  86.8433291  58.8679843
  90.0631191  86.0761229  72.6151160  89.4329852  86.7577510  72.8486556
  89.9567279  85.9644310  71.6704298  85.3576164  85.7433025  63.5417084
  84.5675218  85.9990553  63.0657194  85.8487411  86.5581363  63.6469124
  87.3090909  86.1077604  60.5000560  86.5122072  86.2196298  61.0184056
  87.0816501  86.4464256  59.6341451  83.6413867  85.9963515  65.9732074
  83.8921905  86.8810525  66.2389650  84.1773415  85.8168117  65.2007166
  89.3411934  80.3781994  74.9776411  88.9478880  79.8248193  75.6524055
  90.1578074  80.6892573  75.3682928  86.3073992  91.8165853  58.8889980
  86.8198512  92.6109103  59.0395545  86.9596705  91.1192143  58.8223582
  92.2579895  81.7939874  72.5696667  92.9989608  82.3947027  72.4901130
  92.4897818  81.0517511  72.0114710  87.4021233  86.9796241  70.8474897
  87.2874748  86.0781498  71.1481996  86.5465751  87.2259938  70.4959713
  96.2037058  77.8220977  66.8460949  95.8601327  78.7122618  66.7700059
  96.5716021  77.6322634  65.9830534  84.2722909  90.1454507  59.6649551
  85.1098131  90.5551515  59.4483259  84.4501176  89.2053949  59.6349745
  96.1687341  87.8129588  55.3533384  95.6533964  88.5834192  55.5921771
  95.8964649  87.1394724  55.9766445  93.7534452  82.6579288  60.4118622
  92.8976048  82.2686139  60.2324261  94.1661403  82.7371249  59.5518408
  95.2833598  80.1925632  64.8110182  94.7798394  80.1555767  63.9977987
  95.5764205  81.1018374  64.8706839  91.5276484  80.2764361  63.8176364
  92.3929481  80.0807170  63.4582253  91.5953993  80.0474713  64.7445721
  95.9573644  85.6856680  57.1793165  95.6523779  86.0002829  58.0303308
  96.9104086  85.7638100  57.2220498  89.1338803  82.5066569  61.1892731
  89.7082555  82.2841751  60.4565924  89.7209786  82.5755264  61.9421332
  89.4608390  84.5371030  55.2088616  88.6245703  84.8745717  55.5297891
  89.3213160  84.4020010  54.2715753  91.4361471  79.3807818  59.9167800
  90.7825883  79.0656835  59.2924415  91.3941945  78.7583559  60.6427623
  92.5472676  89.6627113  51.8321092  91.6399738  89.4316367  52.0312241
  93.0443708  88.8664733  52.0195074  94.6699211  85.8689752  64.2415448
  93.7521773  86.0904699  64.0837136  95.0859355  85.9436062  63.3827155
  95.4534259  87.2681167  59.3718128  96.2006078  87.7802565  59.0625250
  95.7225849  86.9465220  60.2322521  97.9013096  84.3038284  61.3536917
  97.1635853  83.7915670  61.6847160  98.1539870  83.8638665  60.5420194
  98.0024724  77.0814536  61.9478687  98.3083600  76.2211899  61.6604602
  98.7277328  77.6732156  61.7477680  84.2949080  87.4845222  60.3360284
  84.0973479  86.8914583  59.6111351  83.7395744  87.1797432  61.0536223
  92.2745803  87.3768329  62.4554878  92.3294413  86.4242165  62.3797354
  91.4637005  87.5327768  62.9396176  90.2138163  85.9945389  60.2145256
  89.4006029  86.2939559  60.6210449  90.7097157  85.6001077  60.9319739
  95.8112375  86.4587213  69.0460150  96.1661763  86.6858686  69.9054616
  96.4584506  86.7905590  68.4237406  89.7052238  83.5663744  65.8306491
  90.3451617  83.4252503  65.1329455  88.8729769  83.2798257  65.4545093
  86.7895305  87.0109256  58.0201237  85.8592893  86.9493712  58.2371199
  86.8852777  86.4885209  57.2237878  86.7080854  83.5364069  60.6079478
  86.9687672  84.4509402  60.4988639  87.5298027  83.0688512  60.7576091
  88.1805780  84.9501826  67.7778303  88.8528833  84.7419188  67.1290952
  87.3535566  84.7523912  67.3383535  94.0831352  81.5763767  69.7943964
  93.4359267  82.2753717  69.7008440  94.8532367  82.0099911  70.1620212
  88.5833277  88.2244429  68.5380740  88.4453075  87.4924668  69.1392279
  89.4938200  88.1353329  68.2564928  91.2115578  87.9364388  68.0264420
  91.9215196  87.2957581  67.9851038  91.1684886  88.1877283  68.9490600
  89.9244512  84.9229606  69.8460059  89.3881869  84.4720345  70.4981655
  89.3361220  85.0575515  69.1030523  89.3346771  84.3818258  52.4086523
  88.4576237  84.2607059  52.0448769  89.8104524  83.5904336  52.1565411
  80.8548911  89.1695418  62.5028030  81.5419951  88.8557148  61.9149045
  80.6997039  90.0736782  62.2295281  85.6583633  84.0585614  66.9313054
  85.5741822  83.4511284  66.1963463  84.8366339  84.5494632  66.9322550
  95.8307347  82.5439178  62.2983249  96.3276046  81.7909140  61.9784319
  95.0594328  82.5803494  61.7326458  92.4142316  84.6856561  62.0254933
  92.0440103  84.1327601  62.7135839  92.9101408  84.0814694  61.4729933
  98.2726342  79.5108771  64.4462607  97.3589421  79.7412998  64.6144814
  98.7019443  79.5947215  65.2976640  85.8399232  94.6790411  66.0541054
  86.4252669  93.9334099  66.1868958  85.6424071  94.9894367  66.9377718
  80.4316887  87.2496011  64.7745497  80.4700986  86.7159602  65.5682615
  79.9257180  86.7231216  64.1556474  87.8107649  82.0960551  68.2708039
  87.8748976  82.9575382  67.8585437  87.7474769  81.4834553  67.5380398
  87.2859922  84.1683684  71.9181073  87.9131961  83.7860761  72.5318598
  86.4287841  83.9497886  72.2836766  84.0625464  85.9760113  57.8499428
  84.3578906  85.0670791  57.7966482  83.1613500  85.9547852  57.5280431
  87.5919711  84.0516110  63.8326977  86.8706297  84.6652077  63.6934450
  88.3812967  84.5873874  63.7543623  90.3946025  81.3870536  70.1067629
  90.9180427  81.6332833  70.8693938  90.1758358  82.2190571  69.6870766
  85.7913306  83.6574211  57.9738753  85.4626012  82.7771590  57.7913859
  86.1452677  83.6021879  58.8615143  88.9055129  83.9447180  58.3414231
  89.2451202  84.4733102  57.6192840  89.3527250  84.2827587  59.1172798
  91.5998570  82.3284231  67.7917299  91.2595390  81.5292044  68.1937979
  90.8937576  82.6285942  67.2194132  92.2515042  79.4133544  66.2444622
  93.0741111  78.9394022  66.1223513  92.4953105  80.1924027  66.7443309
  90.8923276  82.4421802  56.5407524  91.6131639  82.8203055  56.0371241
  90.2688580  83.1610679  56.6442502  95.0354399  83.1466951  57.4765856
  95.2518014  84.0291589  57.1754684  94.5548466  82.7553164  56.7471498
  89.7753621  86.1052664  64.0536601  89.6298201  86.4192967  64.9460882
  89.2978824  86.7237565  63.5007499  91.6350003  83.0955212  64.1017490
  91.6211572  82.1996306  63.7649788  92.3522432  83.1025876  64.7355776
  93.4876134  83.5292552  66.1470618  93.2293912  84.4509623  66.1454948
  92.9561175  83.1322987  66.8371082  84.2499283  88.6458009  66.9924262
  83.7052751  89.4217817  67.1244536  85.1278633  88.9928813  66.8343383
  91.0386899  81.9769593  59.3705061  91.1602811  81.0486239  59.5695948
  90.7488942  81.9908279  58.4583376  93.9078090  79.6624503  62.5071780
  93.9299787  79.7263836  61.5523760  94.3246149  78.8229012  62.7012287
  85.0365305  87.7727905  69.8854419  84.2947041  87.9210540  70.4719049
  84.7158049  88.0336171  69.0221168  85.4821918  95.6593334  61.9164814
  86.3079938  95.3597106  61.5363457  85.1315970  94.8900956  62.3654602
  83.6830523  93.5779660  62.8753747  82.8462432  93.1501834  62.6937748
  83.6554169  93.7712103  63.8124538  90.5227979  83.4901590  73.5794993
  90.5716134  84.3663713  73.1972763  91.0650493  82.9478983  73.0066636
  92.7527267  84.2432962  70.3341352  91.8830577  84.5366528  70.0623940
  92.9886748  84.8273407  71.0548615  87.7669591  89.5888903  58.4682017
  87.5215633  88.6851233  58.6662227  87.9365506  89.5906053  57.5261495
  95.4566301  80.4612579  67.8506772  95.9748245  81.1973606  67.5253261
  95.1021434  80.7676573  68.6853531  87.0365239  85.3217260  55.9668178
  86.3434484  85.3961615  55.3108214  86.7916991  84.5577604  56.4889695
  95.7078895  76.8812862  63.3707669  95.9880649  76.2136051  63.9968095
  96.4929502  77.0741957  62.8582333  97.6002133  82.3886079  67.3038645
  97.0052065  82.6691092  66.6085133  97.3151830  82.8779980  68.0755386
  93.8959162  87.3932668  52.2748748  94.8418267  87.2638877  52.3437166
  93.5173407  86.6547330  52.7518176  92.0802080  85.3182645  52.2103633
  91.1733535  85.0215758  52.2866346  92.3578061  85.0212463  51.3437919
  82.9980020  86.6389008  62.6602679  82.6782804  85.7854316  62.3677053
  82.4513448  86.8537586  63.4160647  86.7759927  89.3551449  66.3772186
  86.9945937  90.2868557  66.3960220  87.1885701  88.9959424  67.1626990
  93.6964145  79.8619535  58.3647874  92.8864874  79.5166620  58.7403120
  94.3848562  79.5527078  58.9535486  95.6254694  78.9397581  59.9872171
  96.1785732  79.3593035  60.6462194  95.8624780  78.0133329  60.0295127
  90.8500864  82.1769580  52.3515612  91.7120028  82.5024478  52.6111429
  91.0351208  81.3901076  51.8388678  82.8668280  90.2591920  64.6295801
  82.1731751  89.8445873  64.1165755  83.6141271  90.3012456  64.0329220
  99.0033501  81.0498106  59.4950835  98.4232170  81.7082911  59.1128887
  98.7369433  80.2275451  59.0838252  97.4537067  80.4503164  61.6972155
  97.9536845  80.5619699  60.8886474  98.0972675  80.1464217  62.3372964
  84.7805022  90.1910173  62.5061816  84.7575711  90.2897861  61.5543699
  85.0905659  91.0375324  62.8278982  87.4392400  92.2486329  66.6208430
  88.3935654  92.2170271  66.5538362  87.2404924  91.7876952  67.4358656
  88.0291782  90.8187445  69.1879228  88.8484671  91.3131523  69.2114065
  88.3028590  89.9019413  69.1596795  97.7858379  83.2098197  58.5507183
  96.8984234  83.4947847  58.3327378  98.2012368  83.0491960  57.7034460
  83.2826697  85.1525578  69.8871425  83.9285560  84.6424532  70.3758650
  83.0743848  85.8894260  70.4614850  91.8030307  79.4165623  55.6395321
  91.7908977  80.3607463  55.7963592  92.6953729  79.2335768  55.3454782
  95.6182427  76.0108400  59.8941258  94.8514822  75.4566886  60.0397940
  96.0293132  76.0830268  60.7555409  87.6224188  82.2993196  73.9846439
  88.4855649  81.9430000  74.1949764  87.0489598  81.9607090  74.6721843
  40.6786120  -5.5660459  42.7527027  40.0274099  -4.9806379  42.3661041
  41.4730482  -5.0354264  42.8122065  36.4426789  -7.1494940  56.3581061
  36.1516655  -6.2449309  56.2427727  37.0783774  -7.1078412  57.0725130
  36.3837454  -0.6989204  46.3201822  36.3061484   0.2518621  46.3990303
  35.7799098  -1.0443332  46.9776749  38.6575823  -5.3407051  45.0407362
  38.5221498  -4.4955515  45.4692210  39.1985636  -5.1387774  44.2773296
  33.9200105  -4.7065857  47.6958040  34.0966734  -3.7847892  47.5079024
  34.7156939  -5.0207438  48.1252420  40.2844300  -4.7183485  59.1707704
  39.8408154  -5.5047106  58.8528609  40.9461513  -4.5304334  58.5051595
  35.0431421  -3.1887683  53.6968383  35.5938846  -3.3170620  52.9245377
  34.2042897  -2.8892794  53.3463275  42.3825538  -4.4380685  57.1989105
  42.3644013  -3.6171804  56.7069375  43.3045458  -4.5626609  57.4239247
  41.2571984  -1.2672845  41.4763085  40.5833682  -0.9641149  42.0848043
  41.6437806  -0.4643765  41.1268542  43.2044345  -4.4274671  47.7831375
  43.4967319  -3.8669614  47.0643740  43.7142965  -4.1346110  48.5384534
  38.1677970  -3.6494320  48.8724828  38.1254149  -3.4233474  47.9433360
  39.0840669  -3.8830946  49.0210629  41.1038615  -4.3913196  53.0199158
  41.1575637  -3.8222259  53.7876874  40.2353397  -4.2211311  52.6553195
  39.4563199  -1.0993173  43.6910164  39.6314954  -1.5705130  44.5055787
  38.7695987  -0.4727407  43.9191425  34.0224284   2.0496190  50.4650024
  34.2620882   2.6814714  51.1429043  33.1793480   1.6984230  50.7515384
  38.5352146  -2.1424688  52.8691528  38.4622317  -1.3369716  53.3810833
  38.0929539  -1.9432722  52.0439550  38.3241925  -2.9052918  46.3794350
  37.5409447  -2.3631237  46.4732574  39.0234671  -2.3878938  46.7788591
  40.9950829  -2.2437854  55.0249687  41.7078802  -1.6090389  54.9525588
  40.5040858  -2.1473988  54.2089689  36.0462743  -4.4943410  55.8455258
  36.7472202  -3.8606927  55.9984652  35.5757858  -4.1528679  55.0850897
  40.8071203  -1.9039110  47.7735978  40.9893597  -2.7217454  48.2363731
  41.6304189  -1.6871417  47.3360868  41.1413368  -2.9770924  45.0351027
  41.6701135  -3.4878470  44.4221189  41.4041588  -3.2928394  45.8996560
  31.6430461  -4.9607055  52.7786360  32.2283898  -5.7063367  52.9114265
  31.4455299  -4.6503098  53.6623024  34.4969116  -1.9255808  47.7948803
  33.8279491  -1.4409680  47.3112843  34.3581986  -1.6786587  48.7092181
  38.6374385   0.1087936  54.3931461  39.1892693   0.2719557  55.1580546
  38.9780578   0.6992374  53.7211486  41.7742772  -1.9430089  51.3795143
  41.6493911  -2.7440349  50.8706089  42.4321863  -1.4483895  50.8909113
  40.8424114  -4.3468352  49.2079046  40.6949076  -5.2751645  49.3886616
  41.6677607  -4.3248262  48.7236121  44.4458236  -3.5239794  50.2943918
  45.3704783  -3.7296932  50.1568370  44.2773539  -3.7723392  51.2033260
  44.2353552  -3.0054126  45.6506010  44.4090429  -3.5707704  44.8979862
  44.7282443  -2.2053231  45.4685500  38.7840196  -2.3253583  56.4080116
  39.0927323  -2.5704436  57.2802815  39.5815678  -2.1206944  55.9198986
  38.8060808  -0.1715673  48.6385492  38.3665798  -0.6639294  49.3318349
  39.5568925  -0.7142705  48.3977567  31.2853147  -3.9804132  48.6410120
  32.1111167  -4.2800360  48.2608764  30.9347199  -4.7496510  49.0899909
  36.2534680  -4.6277664  50.7107794  35.6314690  -5.2906959  50.4110022
  36.9239547  -4.6016532  50.0281442  35.8148187  -6.0773741  44.1866254
  35.9636308  -5.3938276  43.5332927  36.6214631  -6.0968650  44.7015710
  39.3143593  -3.5825610  41.6578002  38.7417560  -2.9635423  41.2048474
  39.8876386  -3.0326248  42.1917924  42.5340853  -3.2988460  42.7886584
  43.4671526  -3.3642898  42.9919460  42.4464065  -2.4632193  42.3301117
  33.2423629  -7.3911137  53.3453737  34.1966883  -7.4227195  53.2783668
  33.0436153  -7.8520514  54.1603963  31.5973858  -1.8491518  50.3623935
  31.4628326  -2.6091117  49.7961933  31.1805920  -1.1250618  49.8952723
  34.7542984  -0.9522201  50.5742377  34.6375368  -0.0076768  50.4721067
  33.9335430  -1.2548639  50.9628176  35.7797498  -0.2993939  53.7898306
  36.6824745  -0.2670329  54.1064801  35.5534868  -1.2293488  53.8044641
  37.5351100  -1.5462952  50.4508384  36.5846731  -1.5461091  50.3372757
  37.8383586  -2.2930218  49.9344419  53.2703793   4.2897586  51.5154147
  53.9082203   4.1704333  50.8117487  53.1524636   5.2378430  51.5742099
  50.0793500   4.2425014  51.4515671  49.7412011   4.1266079  50.5636206
  50.9483268   3.8416179  51.4316678  45.9380315   6.0960491  47.4412562
  45.3745181   6.0050428  46.6728850  45.8232710   5.2760395  47.9215055
  50.5613283   5.3959866  57.4101877  50.5501923   5.0012664  56.5382381
  50.7233922   4.6625939  58.0035648  43.4844747   7.5911682  50.2796783
  44.2766039   7.2502507  49.8643082  43.7241398   7.7006657  51.1998936
  51.5179874   9.7631458  42.7527027  50.8667854  10.3485539  42.3661041
  52.3124237  10.2937653  42.8122065  45.4435501   6.8520595  43.1514162
  46.2166377   6.3049583  43.0127037  45.7960900   7.7164845  43.3628623
  47.2820544   8.1796978  56.3581061  46.9910410   9.0842609  56.2427727
  47.9177528   8.2213505  57.0725130  48.2076751   5.5573826  52.9482421
  48.8040323   5.3329849  52.2339383  48.2651722   4.8158572  53.5507868
  47.7801779   3.0113262  40.7832611  48.0327300   2.4894783  40.0216074
  46.8426338   2.8479407  40.8859295  52.8245062   2.0149040  48.5907355
  53.6108151   1.5968463  48.2397772  53.0883766   2.9195132  48.7589003
  52.9955139   7.4521890  43.2896012  52.3600972   7.5256517  44.0016916
  52.6652546   8.0415489  42.6115091  58.2253489   1.9524273  49.4940333
  58.9578661   1.3823490  49.7278163  57.4692845   1.5645874  49.9346839
  47.4998068   4.9141368  42.9856986  47.3834326   4.2386271  43.6538071
  47.6100328   4.4273741  42.1689139  49.8429609   4.3751515  46.6903676
  49.4787816   3.8482136  47.4016597  50.6996725   3.9849984  46.5170161
  49.4835096  -0.5958586  41.6865024  49.6509498   0.2721651  42.0535495
  49.2932265  -0.4331304  40.7626313  52.2410429   7.8658393  53.3530855
  51.9411152   8.7683432  53.2446662  51.8961488   7.5990576  54.2052007
  45.6922910   4.3172190  49.3867559  44.7673407   4.1848404  49.5945251
  45.9407324   5.0966409  49.8837501  55.6407573   0.3840933  51.0328292
  54.7324450   0.3156342  50.7387053  55.5895169   0.8612878  51.8610117
  49.4624317   1.8599072  42.6711691  49.3423942   2.3056123  43.5097171
  48.7676905   2.2084389  42.1125229  43.0531721   3.9605464  50.2211348
  43.1824103   4.2139943  51.1350760  42.3729173   4.5533172  49.9016003
  47.2231209  14.6302714  46.3201822  47.1455238  15.5810539  46.3990303
  46.6192852  14.2848586  46.9776749  49.7148439   1.8030579  58.9763189
  48.9381773   2.3624499  58.9666054  50.3539002   2.2887362  59.4978059
  55.1609383   2.3320545  43.4992025  56.0727239   2.5647932  43.3239723
  54.6519030   2.9157589  42.9367104  47.9694811   4.6116032  58.5381156
  48.7109495   5.1501076  58.2615980  47.2631796   5.2382321  58.6952708
  53.4450150   6.7545173  57.1353318  53.8533507   6.3127583  56.3907950
  52.7227412   6.1797800  57.3887511  49.7981221   1.6917780  54.5086875
  50.6442416   2.1157193  54.6521524  49.7379858   1.0351404  55.2025438
  53.7678965   7.3146363  50.8905607  53.1387828   7.4792078  50.1881674
  53.3804627   7.7287973  51.6616571  57.6468197   8.2500801  48.2449970
  56.9619235   8.6299703  47.6947004  57.7312046   8.8596128  48.9781918
  52.9480666  -0.6477852  56.1668048  52.7041598   0.1064208  55.6302324
  53.2240596  -0.2692504  57.0015295  54.9019129   5.8960760  54.8445314
  55.1136024   6.5392520  54.1679695  54.8548877   5.0623077  54.3767244
  52.5045358  -1.4921419  51.7481886  51.6429837  -1.1940165  52.0398624
  52.5307792  -1.2751020  50.8162919  49.3206927   7.0520772  48.1555692
  49.7845273   7.3308475  47.3660314  49.0563725   6.1504216  47.9728782
  46.2131008   6.5992253  51.0935455  46.7832365   7.0279521  50.4552939
  46.8039120   6.3174838  51.7919641  48.2575813   3.1743924  44.9645257
  48.9599856   3.6264968  45.4319183  47.9256442   2.5327743  45.5925150
  46.7056175   1.7655681  59.3396466  46.0754835   2.4471961  59.5731863
  46.5992262   1.6538762  58.3949604  42.0001147   1.4327477  50.2662390
  41.2100201   1.6885005  49.7902501  42.4912394   2.2475814  50.3714431
  56.0164957   8.7732716  53.0167671  56.8382400   8.3712903  52.7350353
  56.0127359   8.6700950  53.9683787  43.9515892   1.7972056  47.2245867
  43.1547056   1.9090750  47.7429363  43.7241485   2.1358708  46.3586758
  49.7821560   8.3216759  55.1728382  49.8465993   8.7837166  56.0086554
  49.0732484   7.6914124  55.3010692  40.2838850   1.6857967  52.6977381
  40.5346888   2.5704977  52.9634957  40.8198398   1.5062569  51.9252473
  64.1070950   5.1171464  49.3652643  63.3534658   4.5478862  49.2096647
  64.2418491   5.0834129  50.3123277  49.4969578   9.9884867  45.0407362
  49.3615252  10.8336402  45.4692210  50.0379390  10.1904144  44.2773296
  42.9498975   7.5060305  45.6135287  43.4623496   8.3003555  45.7640852
  43.6021688   6.8086595  45.5468889  44.7593860  10.6226061  47.6958040
  44.9360488  11.5444026  47.5079024  45.5550693  10.3084480  48.1252420
  44.0446216   2.6690693  57.5720203  43.9299731   1.7675950  57.8727302
  43.1890734   2.9154389  57.2205020  51.1238054  10.6108433  59.1707704
  50.6801908   9.8244812  58.8528609  51.7855268  10.7987584  58.5051595
  45.8825175  12.1404235  53.6968383  46.4332600  12.0121298  52.9245377
  45.0436651  12.4399124  53.3463275  53.2219292  10.8911233  57.1989105
  53.2037767  11.7120114  56.7069375  54.1439212  10.7665308  57.4239247
  49.6792346   8.4055362  58.0412614  50.2120683   7.6443651  57.8111922
  49.1506427   8.1129014  58.7836768  40.9147892   5.8348959  46.3894858
  41.7523114   6.2445967  46.1728565  41.0926160   4.8948401  46.3595051
  52.8112324   3.5024040  42.0778691  52.2958947   4.2728644  42.3167078
  52.5389632   2.8289176  42.7011752  50.3959435  -1.6526260  47.1363929
  49.5401031  -2.0419409  46.9569568  50.8086387  -1.5734299  46.2763714
  57.7846598   6.2556394  44.0131864  57.0076041   5.9167554  43.5687026
  58.4638079   6.2609017  43.3386829  52.5998627   1.3751132  43.9038472
  52.2948763   1.6897281  44.7548615  53.5529069   1.4532552  43.9465805
  51.0445059   7.5341355  45.5531426  50.5166421   6.7994115  45.2404663
  50.5432562   8.3116031  45.3071394  56.0237905   5.7290375  50.6698472
  55.3661579   6.4189637  50.7578601  56.8278304   6.1186807  51.0132458
  45.7763787  -1.8038979  47.9138037  46.3507538  -2.0263797  47.1811230
  46.3634769  -1.7350284  48.6666639  54.8343364   4.0834748  48.7202414
  55.3475246   4.7164740  49.2224124  55.4844588   3.4835944  48.3545774
  46.1033374   0.2265482  41.9333923  45.2670686   0.5640169  42.2543197
  45.9638143   0.0914462  40.9961059  49.1897659   5.3521565  38.5566399
  48.2824721   5.1210819  38.7557548  49.6868691   4.5559184  38.7440380
  52.0965738  14.0619072  41.4763085  51.4227437  14.3650769  42.0848043
  52.4831560  14.8648153  41.1268542  51.3124195   1.5584204  50.9660754
  50.3946756   1.7799151  50.8082442  51.7284338   1.6330514  50.1072462
  52.0959242   2.9575619  46.0963435  52.8431061   3.4697017  45.7870557
  52.3650832   2.6359672  46.9567828  50.3685893   5.4534160  43.0790389
  49.4597112   5.1693193  43.1762859  50.3980976   5.8733239  42.2193696
  55.6005160   9.0640750  46.8481556  55.1467487   8.2231659  46.9046747
  54.9699127   9.7002148  47.1856337  54.5438080  -0.0067264  48.0782224
  53.8060836  -0.5189878  48.4092466  54.7964853  -0.4466883  47.2665501
  54.0438099  10.9017246  47.7831375  54.3361074  11.4622303  47.0643740
  54.5536720  11.1945807  48.5384534  40.9374063   3.1739674  47.0605591
  40.7398463   2.5809035  46.3356658  40.3820727   2.8691884  47.7781530
  48.9170787   3.0662781  49.1800184  48.9719396   2.1136617  49.1042661
  48.1061989   3.2222220  49.6641483  50.0661980   6.9942904  40.4178467
  49.6281410   6.2778763  39.9584105  50.8072421   7.2219019  39.8563559
  46.8563147   1.6839840  46.9390563  46.0431012   1.9834011  47.3455755
  47.3522141   1.2895529  47.6565045  49.0071724  11.6797597  48.8724828
  48.9647903  11.9058444  47.9433360  49.9234423  11.4460972  49.0210629
  52.4537358   2.1481665  55.7705457  52.8086746   2.3753138  56.6299923
  53.1009489   2.4800042  55.1482712  58.1835095   5.2700101  46.4754786
  58.0452994   5.4601697  45.5475975  57.8271314   6.0319484  46.9322837
  46.3477221  -0.7441804  52.5551798  46.9876601  -0.8853045  51.8574761
  45.5154752  -1.0307291  52.1790400  58.2104475   7.3376628  51.4866058
  58.6440981   7.2451917  52.3349112  58.9236055   7.3134128  50.8486074
  47.1237525   8.5560626  48.6686790  47.9178124   8.0610946  48.4669365
  46.4129218   8.0278489  48.3054496  43.4320289   2.7003708  44.7446543
  42.5017877   2.6388164  44.9616505  43.5277761   2.1779661  43.9483184
  43.3505838  -0.7741479  47.3324785  43.6112655   0.1403854  47.2233945
  44.1723010  -1.2417037  47.4821398  44.8230763   0.6396278  54.5023609
  45.4953816   0.4313640  53.8536258  43.9960550   0.4418364  54.0628842
  59.0720024   7.3800328  54.0198943  59.2655914   8.2846139  54.2658218
  58.9720643   6.9207748  54.8537528  54.1335133   7.5307071  59.5939824
  53.9820639   7.3017623  58.6769907  54.1239812   8.4877673  59.6071169
  50.9020469   5.1038984  54.5786090  51.8312529   5.2550144  54.4055057
  50.4811499   5.1923005  53.7234736  49.7008801   9.1289648  52.3484628
  49.5619887   8.7608433  53.2210566  48.9123397   9.6437288  52.1768585
  50.2956953  14.2298745  43.6910164  50.4708709  13.7586788  44.5055787
  49.6089741  14.8564511  43.9191425  51.2514016   8.5071251  49.7373465
  50.9163849   8.4672021  50.6331115  50.7517962   7.8415967  49.2643876
  45.2258260   3.9138881  55.2626047  45.0878058   3.1819120  55.8637586
  46.1363184   3.8247781  54.9810234  54.1873208   5.8527285  40.0110525
  53.5702379   5.1274114  39.9143578  53.7189696   6.6136646  39.6677599
  47.8540561   3.6258840  54.7509726  48.5640180   2.9852033  54.7096345
  47.8109869   3.8771735  55.6735907  44.8618038  17.3788108  50.4650024
  45.1014637  18.0106632  51.1429043  44.0187235  17.0276148  50.7515384
  45.9771754   0.0712710  39.1331829  45.1001220  -0.0498490  38.7694076
  46.4529507  -0.7201212  38.8810718  55.8444747   8.5265778  55.9030285
  54.9571526   8.1891699  56.0256684  56.4143298   7.7948809  56.1399050
  37.4973894   4.8589869  49.2273336  38.1844934   4.5451599  48.6394352
  37.3422023   5.7631234  48.9540588  42.3008616  -0.2519934  53.6558360
  42.2166805  -0.8594264  52.9208770  41.4791323   0.2389084  53.6567856
  49.1635680  12.4239000  46.3794350  48.3803202  12.9660680  46.4732574
  49.8628425  12.9412980  46.7788591  60.3262087   3.9373995  50.6646847
  60.3151964   4.8198710  50.2940780  59.4579467   3.5845546  50.4701384
  53.5562111   6.9905317  46.5966979  52.6218389   7.1106779  46.4271683
  53.7338779   6.0877783  46.3326988  49.0567299   0.3751012  48.7500240
  48.6865086  -0.1777947  49.4381145  49.5526391  -0.2290854  48.1975240
  56.9434662   2.8322636  47.1317013  57.4095114   3.6650628  47.0577315
  57.3942163   2.3667618  47.8362271  46.8856497  10.8348508  55.8455258
  47.5865957  11.4684990  55.9984652  46.4151612  11.1763239  55.0850897
  55.0110893   9.1766457  44.1303165  55.2870737   9.0623052  45.0397039
  54.1415392   8.7783942  44.0915338  54.6857783   3.3893115  53.6707808
  54.0329234   3.6369022  53.0160261  55.0638163   2.5757253  53.3370285
  51.6464957  13.4252808  47.7735978  51.8287352  12.6074464  48.2363731
  52.4697943  13.6420500  47.3360868  51.9807123  12.3520993  45.0351027
  52.5094889  11.8413448  44.4221189  52.2435342  12.0363523  45.8996560
  50.7345356   4.1312926  60.1573845  50.0585993   4.0307055  60.8276220
  51.5572990   3.9752140  60.6209842  42.4824215  10.3684863  52.7786360
  43.0677652   9.6228550  52.9114265  42.2849054  10.6788819  53.6623024
  45.3362871  13.4036110  47.7948803  44.6673246  13.8882238  47.3112843
  45.1975740  13.6505330  48.7092181  37.0741870   2.9390463  51.4990804
  37.1125970   2.4054053  52.2927922  36.5682163   2.4125668  50.8801781
  44.4532632  -2.2144997  54.9953346  44.5173959  -1.3530166  54.5830744
  44.3899753  -2.8270995  54.2625704  43.9284905  -0.1421864  58.6426380
  44.5556944  -0.5244787  59.2563904  43.0712824  -0.3607662  59.0082073
  54.3279014  10.2641111  60.2480116  54.8718918  10.8771069  59.7535070
  53.7465858  10.8220689  60.7647129  40.7050448   1.6654565  44.5744735
  41.0003889   0.7565243  44.5211789  39.8038484   1.6442304  44.2525737
  44.2344695  -0.2589439  50.5572284  43.5131281   0.3546529  50.4179757
  45.0237951   0.2768326  50.4788929  54.6771435  11.1870849  53.0074693
  53.7301770  11.0676200  52.9353020  55.0254208  10.2993347  53.0900955
  47.0371008  -2.9235012  56.8312935  47.5605410  -2.6772715  57.5939245
  46.8183342  -2.0914977  56.4116073  42.4338289  -0.6531337  44.6984060
  42.1050996  -1.5333958  44.5159166  42.7877660  -0.7083669  45.5860449
  51.6817868  10.9823565  49.2079046  51.5342831  10.0540273  49.3886616
  52.5071362  11.0043656  48.7236121  45.5480113  -0.3658368  45.0659538
  45.8876185   0.1627554  44.3438146  45.9952233  -0.0277961  45.8418104
  55.2851990  11.8052124  50.2943918  56.2098538  11.5994985  50.1568370
  55.1167293  11.5568525  51.2033260  48.2423553  -1.9821317  54.5162606
  47.9020374  -2.7813504  54.9183286  47.5362560  -1.6819606  53.9439439
  47.5348260  -1.8683746  43.2652831  48.2556622  -1.4902493  42.7616547
  46.9113564  -1.1494869  43.3687809  51.6779383  -1.1638597  44.2011163
  51.8942997  -0.2813959  43.8999991  51.1973450  -1.5552384  43.4716805
  46.4178604   1.7947116  50.7781907  46.2723185   2.1087419  51.6706189
  45.9403808   2.4132016  50.2252806  48.2774987  -1.2150336  50.8262797
  48.2636556  -2.1109243  50.4895095  48.9947415  -1.2079672  51.4601083
  50.1301118  -0.7812996  52.8715924  49.8718895   0.1404075  52.8700255
  49.5986158  -1.1782561  53.5616389  55.0747306  12.3237791  45.6506010
  55.2484184  11.7584214  44.8979862  55.5676198  13.1238686  45.4685500
  40.8924266   4.3352461  53.7169569  40.3477734   5.1112269  53.8489843
  41.7703616   4.6823265  53.5588690  47.6811883  -2.3335956  46.0950367
  47.8027794  -3.2619309  46.2941255  47.3913925  -2.3197270  45.1828683
  60.9286697   5.0874214  47.2696310  61.3717843   4.3381540  46.8715433
  60.0513208   5.0784351  46.8870042  56.0622479  11.6404556  42.7502908
  56.7573383  12.2611249  42.9690223  56.4045629  10.7899907  43.0255286
  41.6790288   3.4622357  56.6099726  40.9372024   3.6104992  57.1964356
  41.3583032   3.7230622  55.7466475  57.9613902   9.0904261  44.2790239
  58.4865226   9.4291534  43.5539559  57.8736254   8.1551277  44.0953374
  49.6233951  13.0038335  56.4080116  49.9321077  12.7587482  57.2802815
  50.4209433  13.2084974  55.9198986  42.1246902  11.3487786  48.6410120
  42.9504922  11.0491557  48.2608764  41.7740954  10.5795408  49.0899909
  47.0928435  10.7014254  50.7107794  46.4708444  10.0384959  50.4110022
  47.7633302  10.7275386  50.0281442  40.3255507   9.2674112  49.5999054
  39.4887415   8.8396286  49.4183055  40.2979152   9.4606555  50.5369845
  47.1652962  -0.8203958  60.3040300  47.2141118   0.0558165  59.9218069
  47.7075476  -1.3626565  59.7311943  57.6507808   9.7237165  59.5841437
  56.8603352   9.7061304  59.0445936  57.4141163  10.2625459  60.3390473
  57.7705683   6.5729631  56.8974165  57.8203688   6.4079639  57.8389688
  57.6619606   5.7056890  56.5072046  55.0609445   2.5560559  58.2133472
  55.9619308   2.4167024  57.9217470  55.1357420   2.7215014  59.1531650
  49.3952251  -0.0672586  57.0586658  48.5255560   0.2260980  56.7869247
  49.6311731   0.5167859  57.7793922  59.2723880   8.9926573  57.1416187
  58.9808688   9.3556553  57.9779648  58.6596011   8.2793581  56.9629519
  44.4094575   5.2783355  45.1927323  44.1640617   4.3745685  45.3907533
  44.5790489   5.2800505  44.2506801  43.6790222   1.0111712  42.6913485
  42.9859467   1.0856067  42.0353521  43.4341974   0.2472056  43.2135002
  50.1537347  11.7466308  41.6578002  49.5811314  12.3656495  41.2048474
  50.7270141  12.2965669  42.1917924  56.2212737   0.9924948  53.8424551
  57.1730160   1.0923045  53.8636775  56.0516187   0.2003216  54.3522635
  53.3734607  12.0303458  42.7886584  54.3065280  11.9649019  42.9919460
  53.2857820  12.8659725  42.3301117  56.0022624  11.3469328  39.7490532
  55.9236255  11.0129192  40.6426289  56.8232290  11.8391096  39.7482004
  58.7000815   4.2131067  52.9566850  58.6677135   3.2747068  53.1426534
  59.3101438   4.2915104  52.2232675  50.5384146   3.0827120  38.9994054
  51.4843250   2.9533328  39.0682472  50.1598391   2.3441782  39.4763482
  64.5177365   5.2747074  52.0972887  65.2480753   5.0132362  52.6580590
  63.9084310   4.5375796  52.1374955  62.5992662   3.4154937  52.6947338
  61.8725825   3.2810902  52.0863830  62.1839949   3.7231765  53.5004056
  50.4222838   7.1344866  60.4594711  51.3425848   7.3123465  60.6534758
  50.3872421   6.1900912  60.3074410  48.7227063   1.0077097  38.9348939
  47.8158518   0.7110209  39.0111653  49.0003044   0.7106915  38.0683226
  39.6405003   2.3283460  49.3847986  39.3207788   1.4748768  49.0922360
  39.0938431   2.5432038  50.1405953  43.4184911   5.0445901  53.1017492
  43.6370921   5.9763009  53.1205526  43.8310685   4.6853876  53.8872296
  48.2912776   0.6179107  62.4920241  48.1909503   1.5673464  62.4232332
  48.0734318   0.2897346  61.6196311  47.4925847  -2.1335968  39.0760919
  48.3545011  -1.8081070  39.3356736  47.6776192  -2.9204472  38.5633984
  39.5093263   5.9486372  51.3541107  38.8156735   5.5340324  50.8411062
  40.2566254   5.9906908  50.7574526  48.1544046   4.0476246  61.3085303
  47.6711128   4.8476606  61.5149192  48.2404985   4.0584191  60.3552747
  41.4230006   5.8804625  49.2307122  41.4000694   5.9792313  48.2789005
  41.7330642   6.7269776  49.5524288  44.0817384   7.9380780  53.3453737
  45.0360637   7.9064723  53.2783668  43.8829907   7.4771404  54.1603963
  44.6716766   6.5081896  55.9124534  45.4909655   7.0025975  55.9359372
  44.9453573   5.5913865  55.8842102  42.4367612  13.4800400  50.3623935
  42.3022080  12.7200801  49.7961933  42.0199675  14.2041300  49.8952723
  53.5726575   8.6637323  39.3700510  54.2762426   8.8687326  39.9858165
  52.8489224   9.2314085  39.6349593  54.4024386   4.4147185  45.4902780
  54.3459587   4.8715736  44.6510412  54.9552728   3.6537869  45.3125623
  62.5241529   2.9432990  48.8224191  61.9641087   3.0126179  49.5955753
  61.9185033   2.7673974  48.1023687  45.5936738  14.3769717  50.5742377
  45.4769122  15.3215149  50.4721067  44.7729185  14.0743278  50.9628176
  55.4813273   9.1019853  41.4198970  56.3158877   8.6701051  41.2376445
  55.3197616   8.9301866  42.3475864  55.1359165   5.6051966  42.7855309
  55.0807969   5.4396237  41.8443753  54.5105220   6.3127999  42.9417499
  39.9251680   0.8420030  56.6116731  40.5710544   0.3318984  57.1003957
  39.7168831   1.5788712  57.1860157  52.4505072   7.9100878  62.1108872
  53.3196232   8.0841530  61.7495507  51.9711824   8.7295295  61.9884601
  44.2649171  -2.0112353  60.7091746  45.1280633  -2.3675548  60.9195070
  43.6914582  -2.3498458  61.3967150  64.1097548  19.6189504  51.5154147
  64.7475958  19.4996251  50.8117487  63.9918391  20.5670348  51.5742099
  56.7774070  21.4252408  47.4412562  56.2138935  21.3342345  46.6728850
  56.6626465  20.6052313  47.9215055  62.3573629  25.0923376  42.7527027
  61.7061608  25.6777456  42.3661041  63.1517991  25.6229571  42.8122065
  56.2829256  22.1812513  43.1514162  57.0560132  21.6341500  43.0127037
  56.6354655  23.0456762  43.3628623  58.6195534  18.3405179  40.7832611
  58.8721054  17.8186701  40.0216074  57.6820093  18.1771325  40.8859295
  63.6638816  17.3440958  48.5907355  64.4501906  16.9260381  48.2397772
  63.9277521  18.2487050  48.7589003  63.8348894  22.7813808  43.2896012
  63.1994727  22.8548434  44.0016916  63.5046300  23.3707407  42.6115091
  69.0647244  17.2816191  49.4940333  69.7972416  16.7115408  49.7278163
  68.3086599  16.8937791  49.9346839  58.3391822  20.2433285  42.9856986
  58.2228080  19.5678189  43.6538071  58.4494082  19.7565659  42.1689139
  60.6823363  19.7043432  46.6903676  60.3181571  19.1774053  47.4016597
  61.5390479  19.3141901  46.5170161  66.5872664  10.9937765  53.9534942
  66.2555989  11.8633176  53.7296157  65.9918277  10.6774049  54.6328972
  60.3228850  14.7333332  41.6865024  60.4903253  15.6013568  42.0535495
  60.1326019  14.8960614  40.7626313  66.4801327  15.7132851  51.0328292
  65.5718205  15.6448260  50.7387053  66.4288923  16.1904796  51.8610117
  60.3018071  17.1890989  42.6711691  60.1817696  17.6348040  43.5097171
  59.6070660  17.5376307  42.1125229  60.5542193  17.1322497  58.9763189
  59.7775527  17.6916417  58.9666054  61.1932756  17.6179280  59.4978059
  68.3462974  13.9149289  52.8106166  67.7037354  14.2081823  52.1645960
  67.8417902  13.8002210  53.6159362  66.0003137  17.6612463  43.4992025
  66.9120993  17.8939849  43.3239723  65.4912784  18.2449507  42.9367104
  64.2843905  22.0837091  57.1353318  64.6927261  21.6419501  56.3907950
  63.5621166  21.5089718  57.3887511  64.6072720  22.6438281  50.8905607
  63.9781582  22.8083995  50.1881674  64.2198382  23.0579891  51.6616571
  68.4861952  23.5792719  48.2449970  67.8012990  23.9591620  47.6947004
  68.5705801  24.1888046  48.9781918  63.7874420  14.6814066  56.1668048
  63.5435352  15.4356126  55.6302324  64.0634351  15.0599413  57.0015295
  65.7412883  21.2252678  54.8445314  65.9529778  21.8684438  54.1679695
  65.6942631  20.3914995  54.3767244  63.3439112  13.8370499  51.7481886
  62.4823591  14.1351752  52.0398624  63.3701547  14.0540898  50.8162919
  60.1600681  22.3812689  48.1555692  60.6239027  22.6600392  47.3660314
  59.8957480  21.4796134  47.9728782  59.0969568  18.5035842  44.9645257
  59.7993611  18.9556885  45.4319183  58.7650196  17.8619660  45.5925150
  66.8558711  24.1024633  53.0167671  67.6776155  23.7004821  52.7350353
  66.8521114  23.9992868  53.9683787  54.7909647  17.1263973  47.2245867
  53.9940810  17.2382668  47.7429363  54.5635239  17.4650626  46.3586758
  74.9464704  20.4463382  49.3652643  74.1928412  19.8770780  49.2096647
  75.0812245  20.4126046  50.3123277  60.3363332  25.3176784  45.0407362
  60.2009007  26.1628320  45.4692210  60.8773145  25.5196062  44.2773296
  63.6855796   8.8407346  53.5706255  63.3420065   9.7308988  53.4945366
  64.0534758   8.6509004  52.7075840  63.6506078  18.8315957  42.0778691
  63.1352702  19.6020562  42.3167078  63.3783387  18.1581093  42.7011752
  61.2353189  13.6765658  47.1363929  60.3794786  13.2872508  46.9569568
  61.6480141  13.7557619  46.2763714  62.7652336  11.2112001  51.5355489
  62.2617132  11.1742136  50.7223294  63.0582943  12.1204744  51.5952145
  59.0095222  11.2950731  50.5421670  59.8748219  11.0993540  50.1827560
  59.0772731  11.0661083  51.4691027  68.6240353  21.5848312  44.0131864
  67.8469795  21.2459471  43.5687026  69.3031834  21.5900935  43.3386829
  63.4392382  16.7043049  43.9038472  63.1342517  17.0189198  44.7548615
  64.3922824  16.7824469  43.9465805  61.8838813  22.8633273  45.5531426
  61.3560175  22.1286032  45.2404663  61.3826316  23.6407949  45.3071394
  66.8631659  21.0582293  50.6698472  66.2055334  21.7481554  50.7578601
  67.6672059  21.4478725  51.0132458  56.6157541  13.5252939  47.9138037
  57.1901293  13.3028120  47.1811230  57.2028524  13.5941633  48.6666639
  65.6737118  19.4126666  48.7202414  66.1869000  20.0456658  49.2224124
  66.3238342  18.8127861  48.3545774  56.9427128  15.5557400  41.9333923
  56.1064440  15.8932086  42.2543197  56.8031898  15.4206380  40.9961059
  58.9180209  10.3994188  46.6413107  58.2644621  10.0843205  46.0169721
  58.8760683   9.7769928  47.3672930  60.0291414  20.6813483  38.5566399
  59.1218475  20.4502736  38.7557548  60.5262446  19.8851102  38.7440380
  62.9352997  18.2867537  46.0963435  63.6824816  18.7988934  45.7870557
  63.2044586  17.9651590  46.9567828  61.2079647  20.7826078  43.0790389
  60.2990866  20.4985111  43.1762859  61.2374731  21.2025156  42.2193696
  66.4398914  24.3932667  46.8481556  65.9861242  23.5523577  46.9046747
  65.8092881  25.0294066  47.1856337  65.3831834  15.3224653  48.0782224
  64.6454591  14.8102039  48.4092466  65.6358608  14.8825035  47.2665501
  64.8831854  26.2309164  47.7831375  65.1754828  26.7914221  47.0643740
  65.3930474  26.5237725  48.5384534  65.4843461   8.1000905  48.6723993
  65.7902338   7.2398269  48.3849908  66.2096066   8.6918525  48.4722987
  51.7767817  18.5031592  47.0605591  51.5792217  17.9100953  46.3356658
  51.2214481  18.1983802  47.7781530  60.9055735  22.3234821  40.4178467
  60.4675165  21.6070680  39.9584105  61.6466176  22.5510936  39.8563559
  57.6956901  17.0131758  46.9390563  56.8824767  17.3125929  47.3455755
  58.1915895  16.6187447  47.6565045  63.2931113  17.4773583  55.7705457
  63.6480500  17.7045056  56.6299923  63.9403244  17.8091959  55.1482712
  69.0228850  20.5992018  46.4754786  68.8846748  20.7893614  45.5475975
  68.6665068  21.3611401  46.9322837  69.0498229  22.6668545  51.4866058
  69.4834736  22.5743835  52.3349112  69.7629810  22.6426046  50.8486074
  54.2714043  18.0295626  44.7446543  53.3411631  17.9680081  44.9616505
  54.3671515  17.5071579  43.9483184  54.1899592  14.5550439  47.3324785
  54.4506410  15.4695772  47.2233945  55.0116765  14.0874881  47.4821398
  69.9113779  22.7092246  54.0198943  70.1049669  23.6138057  54.2658218
  69.8114397  22.2499665  54.8537528  61.5650090  12.5950137  56.5189270
  60.9178005  13.2940086  56.4253747  62.3351105  13.0286281  56.8865518
  62.0907771  23.8363169  49.7373465  61.7557603  23.7963939  50.6331115
  61.5911717  23.1707885  49.2643876  65.0266962  21.1819203  40.0110525
  64.4096133  20.4566031  39.9143578  64.5583451  21.9428563  39.6677599
  56.8165508  15.4004627  39.1331829  55.9394975  15.2793428  38.7694076
  57.2923261  14.6090706  38.8810718  66.6838501  23.8557695  55.9030285
  65.7965280  23.5183617  56.0256684  67.2537052  23.1240727  56.1399050
  71.1655842  19.2665913  50.6646847  71.1545718  20.1490628  50.2940780
  70.2973221  18.9137464  50.4701384  64.3955865  22.3197234  46.5966979
  63.4612144  22.4398697  46.4271683  64.5732534  21.4169701  46.3326988
  59.8961053  15.7042930  48.7500240  59.5258841  15.1513971  49.4381145
  60.3920146  15.1001064  48.1975240  65.8504648  24.5058375  44.1303165
  66.1264492  24.3914970  45.0397039  64.9809146  24.1075860  44.0915338
  65.7545079  10.5295141  51.1707914  64.8408159  10.7599368  51.3390121
  66.1838181  10.6133585  52.0221946  65.5251538  18.7185033  53.6707808
  64.8722988  18.9660940  53.0160261  65.9031918  17.9049171  53.3370285
  62.8200877  27.6812911  45.0351027  63.3488644  27.1705366  44.4221189
  63.0829097  27.3655441  45.8996560  51.5444202  16.9946483  44.5744735
  51.8397643  16.0857161  44.5211789  50.6432238  16.9734222  44.2525737
  55.0738449  15.0702479  50.5572284  54.3525035  15.6838447  50.4179757
  55.8631705  15.6060244  50.4788929  65.5165189  26.5162767  53.0074693
  64.5695525  26.3968118  52.9353020  65.8647963  25.6285265  53.0900955
  53.2732044  14.6760580  44.6984060  52.9444750  13.7957959  44.5159166
  53.6271415  14.6208249  45.5860449  62.5211623  26.3115483  49.2079046
  62.3736585  25.3832190  49.3886616  63.3465116  26.3335574  48.7236121
  56.3873867  14.9633550  45.0659538  56.7269939  15.4919471  44.3438146
  56.8345987  15.3013956  45.8418104  66.1245745  27.1344042  50.2943918
  67.0492292  26.9286903  50.1568370  65.9561048  26.8860443  51.2033260
  59.0817308  13.3470601  54.5162606  58.7414128  12.5478414  54.9183286
  58.3756314  13.6472312  53.9439439  59.7333780  10.4319913  52.9689929
  60.5559849   9.9580391  52.8468819  59.9771843  11.2110397  53.4688615
  58.3742014  13.4608172  43.2652831  59.0950377  13.8389424  42.7616547
  57.7507318  14.1797048  43.3687809  62.5173137  14.1653321  44.2011163
  62.7336751  15.0477958  43.8999991  62.0367204  13.7739534  43.4716805
  59.1168741  14.1141582  50.8262797  59.1030310  13.2182675  50.4895095
  59.8341169  14.1212246  51.4601083  60.9694872  14.5478922  52.8715924
  60.7112650  15.4695993  52.8700255  60.4379912  14.1509357  53.5616389
  65.9141061  27.6529709  45.6506010  66.0877938  27.0876132  44.8979862
  66.4069952  28.4530604  45.4685500  58.5205637  12.9955962  46.0950367
  58.6421548  12.0672608  46.2941255  58.2307680  13.0094648  45.1828683
  61.3896828  10.6810873  49.2317087  61.4118524  10.7450206  48.2769067
  61.8064887   9.8415381  49.4257593  71.7680452  20.4166132  47.2696310
  72.2111598  19.6673457  46.8715433  70.8906962  20.4076268  46.8870042
  66.9016233  26.9696474  42.7502908  67.5967138  27.5903166  42.9690223
  67.2439383  26.1191825  43.0255286  68.8007656  24.4196179  44.2790239
  69.3258980  24.7583452  43.5539559  68.7130009  23.4843194  44.0953374
  68.4901562  25.0529083  59.5841437  67.6997106  25.0353222  59.0445936
  68.2534917  25.5917376  60.3390473  68.6099437  21.9021549  56.8974165
  68.6597442  21.7371557  57.8389688  68.5013361  21.0348808  56.5072046
  65.9003200  17.8852477  58.2133472  66.8013063  17.7458942  57.9217470
  65.9751174  18.0506932  59.1531650  70.1117634  24.3218491  57.1416187
  69.8202443  24.6848471  57.9779648  69.4989766  23.6085499  56.9629519
  71.3113317  21.8871370  49.6618757  72.1460208  22.3261174  49.8256318
  71.4472445  21.4110024  48.8427003  68.3604823  19.4451105  55.6096245
  68.8358944  19.6378752  54.8015096  67.4370388  19.5010291  55.3639629
  55.2488329  20.6075272  45.1927323  55.0034371  19.7037602  45.3907533
  55.4184244  20.6092423  44.2506801  62.9385039  11.4798949  54.5752079
  63.4566983  12.2159976  54.2498567  62.5840172  11.7862942  55.4098838
  54.5183977  16.3403630  42.6913485  53.8253222  16.4147985  42.0353521
  54.2735729  15.5763974  43.2135002  63.1897633   7.8999231  50.0952975
  63.4699387   7.2322420  50.7213402  63.9748240   8.0928327  49.5827639
  67.0606492  16.3216865  53.8424551  68.0123914  16.4214963  53.8636775
  66.8909942  15.5295134  54.3522635  65.0820871  13.4072449  54.0283951
  64.4870803  13.6877461  53.3330440  64.7970568  13.8966349  54.8000693
  64.2128361  27.3595375  42.7886584  65.1459035  27.2940937  42.9919460
  64.1251574  28.1951642  42.3301117  66.8416378  26.6761246  39.7490532
  66.7630010  26.3421109  40.6426289  67.6626045  27.1683014  39.7482004
  69.5394569  19.5422985  52.9566850  69.5070889  18.6038986  53.1426534
  70.1495193  19.6207022  52.2232675  61.3777900  18.4119038  38.9994054
  62.3237005  18.2825246  39.0682472  60.9992145  17.6733700  39.4763482
  69.6889058  16.3334028  53.0025133  69.1728106  15.5492485  52.8155062
  70.5729006  16.0052745  53.1671653  67.3499785  10.0775044  48.9620946
  67.1524606   9.7690132  49.8464278  67.9599490  10.8036683  49.0918876
  75.3571119  20.6038992  52.0972887  76.0874508  20.3424280  52.6580590
  74.7478065  19.8667714  52.1374955  73.4386416  18.7446854  52.6947338
  72.7119580  18.6102819  52.0863830  73.0233703  19.0523683  53.5004056
  59.5620817  16.3369014  38.9348939  58.6552273  16.0402127  39.0111653
  59.8396798  16.0398832  38.0683226  61.1782883  10.8805904  45.0893181
  60.3683611  10.5352989  45.4648427  61.8667300  10.5713448  45.6780792
  63.1073431   9.9583951  46.7117477  63.6604470  10.3779404  47.3707500
  63.3443518   9.0319699  46.7540433  58.3319602  13.1955950  39.0760919
  59.1938766  13.5210848  39.3356736  58.5169946  12.4087446  38.5633984
  66.4852238  12.0684476  46.2196142  65.9050908  12.7269280  45.8374194
  66.2188171  11.2461821  45.8083559  64.9355805  11.4689534  48.4217462
  65.4355583  11.5806068  47.6131781  65.5791413  11.1650587  49.0618270
  65.2677116  14.2284566  45.2752490  64.3802971  14.5134217  45.0572685
  65.6831106  14.0678330  44.4279767  68.6191653  14.2531087  48.9906829
  69.3952043  14.7427540  49.2631446  67.8939787  14.6789142  49.4478699
  71.0564211  14.9658707  50.0480770  71.6508702  14.7254443  49.3374078
  71.1290795  14.2465837  50.6754306  64.4120330  23.9929241  39.3700510
  65.1156180  24.1979244  39.9858165  63.6882979  24.5606003  39.6349593
  65.2418140  19.7439102  45.4902780  65.1853342  20.2007654  44.6510412
  65.7946483  18.9829787  45.3125623  69.0522946  15.5328834  46.3152900
  68.7959880  15.1325470  47.1461107  68.4275814  16.2472628  46.1903039
  73.3635284  18.2724907  48.8224191  72.8034842  18.3418097  49.5955753
  72.7578787  18.0965892  48.1023687  66.3207027  24.4311770  41.4198970
  67.1552631  23.9992969  41.2376445  66.1591370  24.2593784  42.3475864
  65.9752920  20.9343884  42.7855309  65.9201723  20.7688155  41.8443753
  65.3498975  21.6419917  42.9417499  59.2849045  10.4351993  42.3640628
  59.2727715  11.3793833  42.5208898  60.1772467  10.2522138  42.0700089
  63.1001164   7.0294769  46.6186564  62.3333560   6.4753256  46.7643247
  63.5111869   7.1016638  47.4800716  74.9491302  34.9481421  51.5154147
  75.5869712  34.8288169  50.8117487  74.8312145  35.8962265  51.5742099
  72.2400792  36.0543701  57.4101877  72.2289432  35.6596500  56.5382381
  72.4021431  35.3209774  58.0035648  74.5032571  32.6732875  48.5907355
  75.2895660  32.2552298  48.2397772  74.7671275  33.5778967  48.7589003
  79.9040998  32.6108108  49.4940333  80.6366170  32.0407325  49.7278163
  79.1480354  32.2229709  49.9346839  77.4266418  26.3229683  53.9534942
  77.0949743  27.1925094  53.7296157  76.8312032  26.0065967  54.6328972
  71.1622605  30.0625250  41.6865024  71.3297007  30.9305486  42.0535495
  70.9719774  30.2252531  40.7626313  73.9197938  38.5242229  53.3530855
  73.6198661  39.4267267  53.2446662  73.5748997  38.2574412  54.2052007
  77.3195082  31.0424769  51.0328292  76.4111959  30.9740177  50.7387053
  77.2682678  31.5196714  51.8610117  71.1411826  32.5182907  42.6711691
  71.0211451  32.9639958  43.5097171  70.4464414  32.8668225  42.1125229
  71.3935947  32.4614414  58.9763189  70.6169282  33.0208334  58.9666054
  72.0326511  32.9471197  59.4978059  79.1856728  29.2441207  52.8106166
  78.5431108  29.5373740  52.1645960  78.6811657  29.1294127  53.6159362
  76.8396892  32.9904380  43.4992025  77.7514748  33.2231767  43.3239723
  76.3306539  33.5741425  42.9367104  69.6482320  35.2699868  58.5381156
  70.3897004  35.8084912  58.2615980  68.9419305  35.8966156  58.6952708
  75.1237659  37.4129008  57.1353318  75.5321015  36.9711419  56.3907950
  74.4014921  36.8381636  57.3887511  71.4768729  32.3501615  54.5086875
  72.3229925  32.7741029  54.6521524  71.4167367  31.6935239  55.2025438
  75.4466474  37.9730199  50.8905607  74.8175337  38.1375913  50.1881674
  75.0592136  38.3871808  51.6616571  79.3255706  38.9084637  48.2449970
  78.6406744  39.2883538  47.6947004  79.4099555  39.5179963  48.9781918
  74.6268175  30.0105983  56.1668048  74.3829107  30.7648044  55.6302324
  74.9028105  30.3891331  57.0015295  76.5806638  36.5544596  54.8445314
  76.7923533  37.1976356  54.1679695  76.5336386  35.7206912  54.3767244
  74.1832867  29.1662416  51.7481886  73.3217346  29.4643670  52.0398624
  74.2095301  29.3832815  50.8162919  77.6952466  39.4316551  53.0167671
  78.5169909  39.0296738  52.7350353  77.6914868  39.3284785  53.9683787
  71.4609069  38.9800594  55.1728382  71.5253502  39.4421002  56.0086554
  70.7519993  38.3497959  55.3010692  85.7858459  35.7755300  49.3652643
  85.0322167  35.2062698  49.2096647  85.9206000  35.7417964  50.3123277
  70.5792387  28.1418161  59.2941974  71.3202101  28.7425314  59.2146436
  70.8110310  27.3995799  58.7360016  65.7233725  33.3274528  57.5720203
  65.6087240  32.4259785  57.8727302  64.8678243  33.5738225  57.2205020
  72.8025563  41.2692268  59.1707704  72.3589417  40.4828647  58.8528609
  73.4642777  41.4571419  58.5051595  71.3579855  39.0639198  58.0412614
  71.8908192  38.3027486  57.8111922  70.8293936  38.7712850  58.7836768
  74.5249550  24.1699264  53.5706255  74.1813820  25.0600905  53.4945366
  74.8928513  23.9800921  52.7075840  74.4899833  34.1607875  42.0778691
  73.9746456  34.9312480  42.3167078  74.2177141  33.4873011  42.7011752
  72.0746944  29.0057576  47.1363929  71.2188540  28.6164426  46.9569568
  72.4873896  29.0849536  46.2763714  73.6046091  26.5403919  51.5355489
  73.1010886  26.5034054  50.7223294  73.8976697  27.4496662  51.5952145
  69.8488976  26.6242649  50.5421670  70.7141973  26.4285457  50.1827560
  69.9166485  26.3953000  51.4691027  79.4634107  36.9140230  44.0131864
  78.6863550  36.5751389  43.5687026  80.1425588  36.9192853  43.3386829
  74.2786136  32.0334967  43.9038472  73.9736272  32.3481116  44.7548615
  75.2316578  32.1116387  43.9465805  77.7025414  36.3874211  50.6698472
  77.0449088  37.0773472  50.7578601  78.5065813  36.7770643  51.0132458
  67.4551296  28.8544857  47.9138037  68.0295047  28.6320038  47.1811230
  68.0422278  28.9233551  48.6666639  76.5130873  34.7418583  48.7202414
  77.0262755  35.3748575  49.2224124  77.1632097  34.1419779  48.3545774
  69.7573963  25.7286105  46.6413107  69.1038376  25.4135123  46.0169721
  69.7154437  25.1061846  47.3672930  72.9911704  32.2168039  50.9660754
  72.0734265  32.4382986  50.8082442  73.4071847  32.2914349  50.1072462
  73.7746751  33.6159455  46.0963435  74.5218570  34.1280852  45.7870557
  74.0438341  33.2943507  46.9567828  77.2792669  39.7224585  46.8481556
  76.8254996  38.8815495  46.9046747  76.6486636  40.3585983  47.1856337
  76.2225589  30.6516571  48.0782224  75.4848345  30.1393957  48.4092466
  76.4752362  30.2116953  47.2665501  75.7225608  41.5601082  47.7831375
  76.0148583  42.1206139  47.0643740  76.2324229  41.8529643  48.5384534
  76.3237216  23.4292823  48.6723993  76.6296093  22.5690186  48.3849908
  77.0489821  24.0210443  48.4722987  74.1324867  32.8065500  55.7705457
  74.4874255  33.0336973  56.6299923  74.7796998  33.1383877  55.1482712
  79.8622604  35.9283936  46.4754786  79.7240503  36.1185532  45.5475975
  79.5058823  36.6903319  46.9322837  68.0264730  29.9142031  52.5551798
  68.6664110  29.7730790  51.8574761  67.1942261  29.6276545  52.1790400
  79.8891984  37.9960463  51.4866058  80.3228490  37.9035752  52.3349112
  80.6023564  37.9717964  50.8486074  73.6219879  41.5962557  53.0199158
  73.6756901  42.1653494  53.7876874  72.7534660  41.7664442  52.6553195
  66.5018272  31.2980113  54.5023609  67.1741325  31.0897476  53.8536258
  65.6748059  31.1002199  54.0628842  80.7507533  38.0384164  54.0198943
  80.9443423  38.9429974  54.2658218  80.6508151  37.5791583  54.8537528
  72.4043844  27.9242054  56.5189270  71.7571759  28.6232004  56.4253747
  73.1744859  28.3578198  56.8865518  75.8122642  38.1890907  59.5939824
  75.6608148  37.9601458  58.6769907  75.8027321  39.1461508  59.6071169
  72.5807978  35.7622819  54.5786090  73.5100038  35.9133979  54.4055057
  72.1599008  35.8506840  53.7234736  75.8660717  36.5111121  40.0110525
  75.2489888  35.7857949  39.9143578  75.3977205  37.2720481  39.6677599
  77.5214849  41.2210029  57.6716305  77.4627395  40.5369249  57.0046888
  77.9234367  41.9629019  57.2196931  68.2457004  31.2707894  56.5705366
  67.7094361  30.8198632  57.2226962  67.6573712  31.4053802  55.8275830
  77.5232256  39.1849613  55.9030285  76.6359035  38.8475535  56.0256684
  78.0930807  38.4532644  56.1399050  63.9796125  30.4063901  53.6558360
  63.8954314  29.7989571  52.9208770  63.1578832  30.8972920  53.6567856
  74.1519839  28.8917465  49.0228555  74.6488539  28.1387427  48.7029625
  73.3806821  28.9281782  48.4571765  82.0049596  34.5957830  50.6646847
  81.9939473  35.4782546  50.2940780  81.1366976  34.2429381  50.4701384
  73.5132093  43.7437899  55.0249687  74.2260065  44.3785364  54.9525588
  73.0222121  43.8401765  54.2089689  70.7354808  31.0334848  48.7500240
  70.3652595  30.4805888  49.4381145  71.2313900  30.4292981  48.1975240
  78.6222171  33.4906471  47.1317013  79.0882623  34.3234463  47.0577315
  79.0729672  33.0251453  47.8362271  68.5644006  41.4932343  55.8455258
  69.2653466  42.1268826  55.9984652  68.0939121  41.8347074  55.0850897
  76.5938834  25.8587058  51.1707914  75.6801914  26.0891285  51.3390121
  77.0231935  25.9425502  52.0221946  76.3645292  34.0476950  53.6707808
  75.7116743  34.2952858  53.0160261  76.7425672  33.2341089  53.3370285
  72.4132865  34.7896761  60.1573845  71.7373502  34.6890891  60.8276220
  73.2360499  34.6335975  60.6209842  66.1320141  28.4438839  54.9953346
  66.1961468  29.3053670  54.5830744  66.0687262  27.8312840  54.2625704
  76.0066523  40.9224946  60.2480116  76.5506427  41.5354905  59.7535070
  75.4253367  41.4804525  60.7647129  65.9132204  30.3994397  50.5572284
  65.1918789  31.0130365  50.4179757  66.7025460  30.9352162  50.4788929
  76.3558944  41.8454684  53.0074693  75.4089279  41.7260036  52.9353020
  76.7041717  40.9577182  53.0900955  68.7158517  27.7348823  56.8312935
  69.2392919  27.9811120  57.5939245  68.4970851  28.5668858  56.4116073
  76.9639499  42.4635959  50.2943918  77.8886047  42.2578821  50.1568370
  76.7954802  42.2152361  51.2033260  69.9211062  28.6762518  54.5162606
  69.5807883  27.8770332  54.9183286  69.2150069  28.9764229  53.9439439
  70.5727534  25.7611831  52.9689929  71.3953603  25.2872309  52.8468819
  70.8165598  26.5402315  53.4688615  69.2135769  28.7900089  43.2652831
  69.9344131  29.1681342  42.7616547  68.5901073  29.5088966  43.3687809
  73.3566892  29.4945238  44.2011163  73.5730506  30.3769876  43.8999991
  72.8760959  29.1031452  43.4716805  69.9562496  29.4433500  50.8262797
  69.9424065  28.5474593  50.4895095  70.6734924  29.4504163  51.4601083
  71.8088626  29.8770840  52.8715924  71.5506404  30.7987910  52.8700255
  71.2773667  29.4801274  53.5616389  69.3599392  28.3247880  46.0950367
  69.4815303  27.3964526  46.2941255  69.0701434  28.3386566  45.1828683
  72.2290582  26.0102790  49.2317087  72.2512279  26.0742123  48.2769067
  72.6458641  25.1707299  49.4257593  82.6074206  35.7458050  47.2696310
  83.0505352  34.9965375  46.8715433  81.7300717  35.7368186  46.8870042
  79.6401411  39.7488097  44.2790239  80.1652735  40.0875370  43.5539559
  79.5523763  38.8135112  44.0953374  71.3021460  43.6622170  56.4080116
  71.6108586  43.4171317  57.2802815  72.0996942  43.8668809  55.9198986
  79.3295317  40.3821000  59.5841437  78.5390861  40.3645139  59.0445936
  79.0928671  40.9209294  60.3390473  79.4493192  37.2313467  56.8974165
  79.4991197  37.0663474  57.8389688  79.3407115  36.3640726  56.5072046
  76.7396954  33.2144395  58.2133472  77.6406817  33.0750860  57.9217470
  76.8144929  33.3798850  59.1531650  71.0739760  30.5911250  57.0586658
  70.2043069  30.8844816  56.7869247  71.3099240  31.1751695  57.7793922
  80.9511389  39.6510408  57.1416187  80.6596197  40.0140389  57.9779648
  80.3383520  38.9377417  56.9629519  82.1507071  37.2163288  49.6618757
  82.9853963  37.6553092  49.8256318  82.2866200  36.7401941  48.8427003
  79.1998577  34.7743023  55.6096245  79.6752699  34.9670669  54.8015096
  78.2764142  34.8302209  55.3639629  73.7778794  26.8090866  54.5752079
  74.2960737  27.5451893  54.2498567  73.4233926  27.1154860  55.4098838
  74.0291388  23.2291149  50.0952975  74.3093141  22.5614338  50.7213402
  74.8141995  23.4220245  49.5827639  77.9000246  31.6508783  53.8424551
  78.8517669  31.7506881  53.8636775  77.7303696  30.8587052  54.3522635
  75.9214626  28.7364366  54.0283951  75.3264558  29.0169379  53.3330440
  75.6364322  29.2258267  54.8000693  80.3788324  34.8714903  52.9566850
  80.3464644  33.9330903  53.1426534  80.9888947  34.9498939  52.2232675
  72.2171655  33.7410956  38.9994054  73.1630759  33.6117164  39.0682472
  71.8385900  33.0025618  39.4763482  80.5282812  31.6625946  53.0025133
  80.0121861  30.8784403  52.8155062  81.4122761  31.3344663  53.1671653
  78.1893539  25.4066962  48.9620946  77.9918360  25.0982050  49.8464278
  78.7993245  26.1328601  49.0918876  86.1964874  35.9330910  52.0972887
  86.9268262  35.6716198  52.6580590  85.5871819  35.1959631  52.1374955
  84.2780171  34.0738772  52.6947338  83.5513334  33.9394737  52.0863830
  83.8627458  34.3815601  53.5004056  72.1010347  37.7928702  60.4594711
  73.0213357  37.9707301  60.6534758  72.0659930  36.8484747  60.3074410
  72.0176638  26.2097822  45.0893181  71.2077366  25.8644907  45.4648427
  72.7061054  25.9005366  45.6780792  73.9467186  25.2875869  46.7117477
  74.4998224  25.7071322  47.3707500  74.1837272  24.3611617  46.7540433
  77.3245993  27.3976394  46.2196142  76.7444662  28.0561198  45.8374194
  77.0581926  26.5753738  45.8083559  75.7749559  26.7981451  48.4217462
  76.2749338  26.9097986  47.6131781  76.4185167  26.4942504  49.0618270
  69.8331555  34.7060081  61.3085303  69.3498637  35.5060441  61.5149192
  69.9192494  34.7168026  60.3552747  76.1070871  29.5576484  45.2752490
  75.2196726  29.8426135  45.0572685  76.5224860  29.3970247  44.4279767
  79.4585407  29.5823005  48.9906829  80.2345797  30.0719458  49.2631446
  78.7333541  30.0081059  49.4478699  81.8957966  30.2950624  50.0480770
  82.4902457  30.0546360  49.3374078  81.9684549  29.5757755  50.6754306
  76.0811895  35.0731020  45.4902780  76.0247096  35.5299571  44.6510412
  76.6340237  34.3121705  45.3125623  79.8916701  30.8620752  46.3152900
  79.6353635  30.4617388  47.1461107  79.2669569  31.5764546  46.1903039
  84.2029038  33.6016825  48.8224191  83.6428596  33.6710014  49.5955753
  83.5972542  33.4257810  48.1023687  76.8146674  36.2635801  42.7855309
  76.7595478  36.0980073  41.8443753  76.1892729  36.9711834  42.9417499
  74.1292581  38.5684713  62.1108872  74.9983741  38.7425365  61.7495507
  73.6499333  39.3879130  61.9884601  70.1242799  25.7643910  42.3640628
  70.1121469  26.7085750  42.5208898  71.0166221  25.5814056  42.0700089
  73.9394919  22.3586687  46.6186564  73.1727315  21.8045174  46.7643247
  74.3505624  22.4308556  47.4800716  85.7885057  50.2773339  51.5154147
  86.4263467  50.1580086  50.8117487  85.6705900  51.2254183  51.5742099
  82.5974763  50.2300767  51.4515671  82.2593275  50.1141832  50.5636206
  83.4664531  49.8291932  51.4316678  78.4561579  52.0836244  47.4412562
  77.8926444  51.9926181  46.6728850  78.3413974  51.2636148  47.9215055
  83.0794546  51.3835619  57.4101877  83.0683187  50.9888417  56.5382381
  83.2415186  50.6501692  58.0035648  84.0361138  55.7507211  42.7527027
  83.3849117  56.3361292  42.3661041  84.8305500  56.2813406  42.8122065
  79.8001807  54.1672731  56.3581061  79.5091673  55.0718362  56.2427727
  80.4358792  54.2089258  57.0725130  80.7258014  51.5449579  52.9482421
  81.3221586  51.3205602  52.2339383  80.7832986  50.8034325  53.5507868
  85.3426325  48.0024793  48.5907355  86.1289415  47.5844216  48.2397772
  85.6065030  48.9070885  48.7589003  85.5136403  53.4397643  43.2896012
  84.8782236  53.5132270  44.0016916  85.1833809  54.0291242  42.6115091
  90.7434753  47.9400026  49.4940333  91.4759924  47.3699243  49.7278163
  89.9874108  47.5521627  49.9346839  82.3610872  50.3627268  46.6903676
  81.9969079  49.8357889  47.4016597  83.2177988  49.9725737  46.5170161
  88.2660173  41.6521600  53.9534942  87.9343498  42.5217011  53.7296157
  87.6705786  41.3357884  54.6328972  84.7591692  53.8534146  53.3530855
  84.4592416  54.7559185  53.2446662  84.4142752  53.5866329  54.2052007
  78.2104174  50.3047943  49.3867559  77.2854670  50.1724157  49.5945251
  78.4588587  51.0842162  49.8837501  88.1588836  46.3716686  51.0328292
  87.2505714  46.3032095  50.7387053  88.1076432  46.8488631  51.8610117
  82.2329702  47.7906332  58.9763189  81.4563036  48.3500252  58.9666054
  82.8720265  48.2763115  59.4978059  90.0250483  44.5733125  52.8106166
  89.3824863  44.8665658  52.1645960  89.5205411  44.4586045  53.6159362
  87.6790646  48.3196298  43.4992025  88.5908502  48.5523685  43.3239723
  87.1700293  48.9033342  42.9367104  80.4876074  50.5991785  58.5381156
  81.2290759  51.1376829  58.2615980  79.7813060  51.2258074  58.6952708
  85.9631414  52.7420926  57.1353318  86.3714770  52.3003336  56.3907950
  85.2408675  52.1673553  57.3887511  82.3162484  47.6793533  54.5086875
  83.1623679  48.1032946  54.6521524  82.2561122  47.0227157  55.2025438
  86.2860229  53.3022116  50.8905607  85.6569091  53.4667831  50.1881674
  85.8985891  53.7163726  51.6616571  90.1649460  54.2376554  48.2449970
  89.4800499  54.6175456  47.6947004  90.2493310  54.8471881  48.9781918
  85.4661929  45.3397901  56.1668048  85.2222861  46.0939962  55.6302324
  85.7421860  45.7183249  57.0015295  87.4200392  51.8836513  54.8445314
  87.6317287  52.5268273  54.1679695  87.3730140  51.0498830  54.3767244
  85.0226621  44.4954334  51.7481886  84.1611100  44.7935588  52.0398624
  85.0489056  44.7124733  50.8162919  81.8388190  53.0396525  48.1555692
  82.3026536  53.3184228  47.3660314  81.5744989  52.1379969  47.9728782
  78.7312272  52.5868006  51.0935455  79.3013629  53.0155274  50.4552939
  79.3220383  52.3050591  51.7919641  80.7757077  49.1619677  44.9645257
  81.4781120  49.6140721  45.4319183  80.4437705  48.5203496  45.5925150
  79.2237438  47.7531434  59.3396466  78.5936099  48.4347714  59.5731863
  79.1173526  47.6414515  58.3949604  88.5346220  54.7608469  53.0167671
  89.3563664  54.3588656  52.7350353  88.5308623  54.6576703  53.9683787
  82.3002823  54.3092512  55.1728382  82.3647256  54.7712919  56.0086554
  81.5913747  53.6789877  55.3010692  96.6252213  51.1047217  49.3652643
  95.8715921  50.5354615  49.2096647  96.7599754  51.0709882  50.3123277
  82.0150841  55.9760620  45.0407362  81.8796516  56.8212155  45.4692210
  82.5560654  56.1779897  44.2773296  78.5018181  42.0552199  61.7021717
  78.1085126  41.5018398  62.3769361  79.3184321  42.3662778  62.0928235
  81.4186142  43.4710078  59.2941974  82.1595855  44.0717232  59.2146436
  81.6504065  42.7287716  58.7360016  76.5627480  48.6566446  57.5720203
  76.4480995  47.7551703  57.8727302  75.7071998  48.9030143  57.2205020
  83.6419318  56.5984186  59.1707704  83.1983172  55.8120565  58.8528609
  84.3036531  56.7863337  58.5051595  78.4006439  58.1279988  53.6968383
  78.9513864  57.9997051  52.9245377  77.5617915  58.4274877  53.3463275
  85.7400556  56.8786986  57.1989105  85.7219031  57.6995867  56.7069375
  86.6620476  56.7541061  57.4239247  82.1973610  54.3931115  58.0412614
  82.7301947  53.6319404  57.8111922  81.6687691  54.1004767  58.7836768
  85.3643305  39.4991181  53.5706255  85.0207574  40.3892823  53.4945366
  85.7322267  39.3092839  52.7075840  85.3293587  49.4899793  42.0778691
  84.8140211  50.2604397  42.3167078  85.0570896  48.8164929  42.7011752
  82.9140698  44.3349493  47.1363929  82.0582295  43.9456344  46.9569568
  83.3267650  44.4141454  46.2763714  84.4439845  41.8695837  51.5355489
  83.9404641  41.8325972  50.7223294  84.7370452  42.7788579  51.5952145
  80.6882731  41.9534566  50.5421670  81.5535728  41.7577375  50.1827560
  80.7560240  41.7244918  51.4691027  90.3027862  52.2432147  44.0131864
  89.5257304  51.9043307  43.5687026  90.9819343  52.2484770  43.3386829
  85.1179891  47.3626885  43.9038472  84.8130026  47.6773034  44.7548615
  86.0710333  47.4408305  43.9465805  83.5626322  53.5217108  45.5531426
  83.0347684  52.7869868  45.2404663  83.0613825  54.2991784  45.3071394
  88.5419168  51.7166128  50.6698472  87.8842843  52.4065390  50.7578601
  89.3459568  52.1062560  51.0132458  87.3524627  50.0710501  48.7202414
  87.8656509  50.7040493  49.2224124  88.0025851  49.4711697  48.3545774
  80.5967718  41.0578023  46.6413107  79.9432130  40.7427040  46.0169721
  80.5548192  40.4353764  47.3672930  83.8305458  47.5459957  50.9660754
  82.9128020  47.7674904  50.8082442  84.2465602  47.6206267  50.1072462
  84.6140506  48.9451372  46.0963435  85.3612325  49.4572770  45.7870557
  84.8832095  48.6235425  46.9567828  82.8867156  51.4409913  43.0790389
  81.9778375  51.1568946  43.1762859  82.9162240  51.8608992  42.2193696
  88.1186423  55.0516503  46.8481556  87.6648751  54.2107412  46.9046747
  87.4880390  55.6877901  47.1856337  87.0619343  45.9808489  48.0782224
  86.3242100  45.4685875  48.4092466  87.3146117  45.5408870  47.2665501
  86.5619363  56.8892999  47.7831375  86.8542337  57.4498056  47.0643740
  87.0717983  57.1821560  48.5384534  87.1630970  38.7584741  48.6723993
  87.4689847  37.8982104  48.3849908  87.8883575  39.3502361  48.4722987
  81.4352050  49.0538534  49.1800184  81.4900660  48.1012370  49.1042661
  80.6243252  49.2097973  49.6641483  82.5843244  52.9818657  40.4178467
  82.1462674  52.2654516  39.9584105  83.3253685  53.2094772  39.8563559
  81.5252988  57.6673350  48.8724828  81.4829167  57.8934197  47.9433360
  82.4415687  57.4336725  49.0210629  84.9718622  48.1357418  55.7705457
  85.3268009  48.3628891  56.6299923  85.6190753  48.4675795  55.1482712
  90.7016359  51.2575854  46.4754786  90.5634257  51.4477450  45.5475975
  90.3452577  52.0195237  46.9322837  78.8658485  45.2433949  52.5551798
  79.5057864  45.1022708  51.8574761  78.0336015  44.9568462  52.1790400
  90.7285738  53.3252381  51.4866058  91.1622245  53.2327670  52.3349112
  91.4417319  53.3009881  50.8486074  79.6418789  54.5436379  48.6686790
  80.4359387  54.0486700  48.4669365  78.9310481  54.0154243  48.3054496
  84.4613633  56.9254475  53.0199158  84.5150655  57.4945411  53.7876874
  83.5928415  57.0956360  52.6553195  91.5901288  53.3676081  54.0198943
  91.7837178  54.2721892  54.2658218  91.4901906  52.9083501  54.8537528
  83.2437599  43.2533972  56.5189270  82.5965514  43.9523922  56.4253747
  84.0138614  43.6870116  56.8865518  86.6516396  53.5182824  59.5939824
  86.5001903  53.2893376  58.6769907  86.6421076  54.4753426  59.6071169
  83.4201733  51.0914737  54.5786090  84.3493793  51.2425897  54.4055057
  82.9992763  51.1798758  53.7234736  82.2190065  55.1165401  52.3484628
  82.0801150  54.7484186  53.2210566  81.4304661  55.6313041  52.1768585
  83.7695280  54.4947004  49.7373465  83.4345112  54.4547774  50.6331115
  83.2699226  53.8291720  49.2643876  77.7439524  49.9014634  55.2626047
  77.6059322  49.1694873  55.8637586  78.6544447  49.8123534  54.9810234
  86.7054471  51.8403038  40.0110525  86.0883642  51.1149867  39.9143578
  86.2370960  52.6012399  39.6677599  80.3721824  49.6134593  54.7509726
  81.0821443  48.9727786  54.7096345  80.3291133  49.8647488  55.6735907
  88.3608603  56.5501947  57.6716305  88.3021149  55.8661167  57.0046888
  88.7628122  57.2920937  57.2196931  79.0850758  46.5999811  56.5705366
  78.5488115  46.1490550  57.2226962  78.4967467  46.7345720  55.8275830
  77.3799302  63.3663861  50.4650024  77.6195900  63.9982385  51.1429043
  76.5368498  63.0151901  50.7515384  88.3626010  54.5141531  55.9030285
  87.4752789  54.1767452  56.0256684  88.9324561  53.7824562  56.1399050
  81.8927164  59.1742983  52.8691528  81.8197335  59.9797955  53.3810833
  81.4504557  59.3734949  52.0439550  81.6816943  58.4114753  46.3794350
  80.8984465  58.9536433  46.4732574  82.3809689  58.9288733  46.7788591
  84.9913594  44.2209383  49.0228555  85.4882293  43.4679345  48.7029625
  84.2200575  44.2573699  48.4571765  92.8443351  49.9249748  50.6646847
  92.8333227  50.8074463  50.2940780  91.9760730  49.5721299  50.4701384
  84.3525847  59.0729817  55.0249687  85.0653820  59.7077282  54.9525588
  83.8615876  59.1693683  54.2089689  86.0743374  52.9781070  46.5966979
  85.1399653  53.0982532  46.4271683  86.2520043  52.0753537  46.3326988
  81.5748562  46.3626766  48.7500240  81.2046350  45.8097806  49.4381145
  82.0707655  45.7584899  48.1975240  89.4615926  48.8198389  47.1317013
  89.9276378  49.6526381  47.0577315  89.9123426  48.3543371  47.8362271
  79.4037761  56.8224261  55.8455258  80.1047220  57.4560744  55.9984652
  78.9332876  57.1638992  55.0850897  87.5292157  55.1642210  44.1303165
  87.8052001  55.0498805  45.0397039  86.6596655  54.7659695  44.0915338
  87.4332588  41.1878976  51.1707914  86.5195668  41.4183203  51.3390121
  87.8625690  41.2717420  52.0221946  87.2039047  49.3768868  53.6707808
  86.5510497  49.6244775  53.0160261  87.5819427  48.5633006  53.3370285
  84.1646221  59.4128561  47.7735978  84.3468615  58.5950217  48.2363731
  84.9879207  59.6296253  47.3360868  84.4988386  58.3396746  45.0351027
  85.0276153  57.8289201  44.4221189  84.7616606  58.0239277  45.8996560
  83.2526620  50.1188679  60.1573845  82.5767257  50.0182808  60.8276220
  84.0754254  49.9627893  60.6209842  81.9949403  61.4255606  54.3931461
  82.5467711  61.5887228  55.1580546  82.3355596  62.0160044  53.7211486
  76.9713896  43.7730756  54.9953346  77.0355222  44.6345587  54.5830744
  76.9081016  43.1604758  54.2625704  76.4466168  45.8453889  58.6426380
  77.0738207  45.4630966  59.2563904  75.5894087  45.6268091  59.0082073
  86.8460277  56.2516864  60.2480116  87.3900181  56.8646822  59.7535070
  86.2647122  56.8096442  60.7647129  85.1317790  59.3737582  51.3795143
  85.0068929  58.5727322  50.8706089  85.7896881  59.8683775  50.8909113
  87.1952698  57.1746602  53.0074693  86.2483034  57.0551953  52.9353020
  87.5435471  56.2869100  53.0900955  79.5552272  43.0640741  56.8312935
  80.0786674  43.3103038  57.5939245  79.3364605  43.8960776  56.4116073
  84.1999132  56.9699318  49.2079046  84.0524094  56.0416026  49.3886616
  85.0252625  56.9919409  48.7236121  87.8033254  57.7927877  50.2943918
  88.7279801  57.5870738  50.1568370  87.6348557  57.5444278  51.2033260
  80.7604817  44.0054436  54.5162606  80.4201637  43.2062249  54.9183286
  80.0543823  44.3056147  53.9439439  81.4121289  41.0903749  52.9689929
  82.2347358  40.6164227  52.8468819  81.6559352  41.8694232  53.4688615
  84.1960646  44.8237156  44.2011163  84.4124260  45.7061794  43.8999991
  83.7154713  44.4323369  43.4716805  78.9359867  47.7822869  50.7781907
  78.7904448  48.0963172  51.6706189  78.4585071  48.4007770  50.2252806
  80.7956250  44.7725417  50.8262797  80.7817819  43.8766510  50.4895095
  81.5128678  44.7796081  51.4601083  82.6482381  45.2062757  52.8715924
  82.3900159  46.1279828  52.8700255  82.1167421  44.8093192  53.5616389
  87.5928570  58.3113544  45.6506010  87.7665447  57.7459967  44.8979862
  88.0857461  59.1114439  45.4685500  83.0684337  41.3394708  49.2317087
  83.0906033  41.4034041  48.2769067  83.4852396  40.4999217  49.4257593
  93.4467961  51.0749967  47.2696310  93.8899107  50.3257293  46.8715433
  92.5694471  51.0660104  46.8870042  88.5803742  57.6280309  42.7502908
  89.2754647  58.2487002  42.9690223  88.9226892  56.7775660  43.0255286
  90.4795165  55.0780014  44.2790239  91.0046489  55.4167287  43.5539559
  90.3917518  54.1427030  44.0953374  82.1415214  58.9914088  56.4080116
  82.4502340  58.7463235  57.2802815  82.9390696  59.1960727  55.9198986
  82.1635826  61.1451998  48.6385492  81.7240816  60.6528376  49.3318349
  82.9143943  60.6024965  48.3977567  79.6109698  56.6890007  50.7107794
  78.9889708  56.0260712  50.4110022  80.2814565  56.7151139  50.0281442
  79.6834226  45.1671795  60.3040300  79.7322381  46.0433918  59.9218069
  80.2256740  44.6249188  59.7311943  90.1689071  55.7112918  59.5841437
  89.3784615  55.6937057  59.0445936  89.9322426  56.2501212  60.3390473
  90.2886946  52.5605384  56.8974165  90.3384951  52.3955392  57.8389688
  90.1800870  51.6932643  56.5072046  87.5790709  48.5436312  58.2133472
  88.4800572  48.4042777  57.9217470  87.6538683  48.7090767  59.1531650
  81.9133514  45.9203167  57.0586658  81.0436824  46.2136733  56.7869247
  82.1492995  46.5043612  57.7793922  91.7905143  54.9802326  57.1416187
  91.4989952  55.3432307  57.9779648  91.1777275  54.2669334  56.9629519
  92.9900826  52.5455206  49.6618757  93.8247717  52.9845010  49.8256318
  93.1259954  52.0693859  48.8427003  90.0392332  50.1034941  55.6096245
  90.5146453  50.2962587  54.8015096  89.1157897  50.1594126  55.3639629
  84.6172548  42.1382784  54.5752079  85.1354492  42.8743811  54.2498567
  84.2627681  42.4446777  55.4098838  84.8685142  38.5583067  50.0952975
  85.1486896  37.8906256  50.7213402  85.6535749  38.7512162  49.5827639
  86.7608380  44.0656284  54.0283951  86.1658312  44.3461297  53.3330440
  86.4758077  44.5550185  54.8000693  85.8915870  58.0179211  42.7886584
  86.8246544  57.9524772  42.9919460  85.8039083  58.8535478  42.3301117
  88.5203887  57.3345081  39.7490532  88.4417519  57.0004945  40.6426289
  89.3413554  57.8266849  39.7482004  91.2182078  50.2006820  52.9566850
  91.1858398  49.2622821  53.1426534  91.8282702  50.2790857  52.2232675
  83.0565409  49.0702873  38.9994054  84.0024514  48.9409081  39.0682472
  82.6779654  48.3317535  39.4763482  91.3676567  46.9917864  53.0025133
  90.8515615  46.2076320  52.8155062  92.2516515  46.6636580  53.1671653
  89.0287294  40.7358879  48.9620946  88.8312115  40.4273968  49.8464278
  89.6386999  41.4620518  49.0918876  97.0358628  51.2622827  52.0972887
  97.7662017  51.0008115  52.6580590  96.4265574  50.5251549  52.1374955
  95.1173925  49.4030690  52.6947338  94.3907089  49.2686655  52.0863830
  94.7021212  49.7107518  53.5004056  82.9404102  53.1220619  60.4594711
  83.8607111  53.2999218  60.6534758  82.9053685  52.1776665  60.3074410
  82.8570392  41.5389739  45.0893181  82.0471120  41.1936824  45.4648427
  83.5454809  41.2297283  45.6780792  84.7860940  40.6167786  46.7117477
  85.3391979  41.0363240  47.3707500  85.0231027  39.6903534  46.7540433
  80.8094040  46.6054860  62.4920241  80.7090766  47.5549217  62.4232332
  80.5915582  46.2773099  61.6196311  88.1639747  42.7268311  46.2196142
  87.5838416  43.3853115  45.8374194  87.8975680  41.9045656  45.8083559
  86.6143314  42.1273369  48.4217462  87.1143092  42.2389904  47.6131781
  87.2578922  41.8234422  49.0618270  80.6725310  50.0351999  61.3085303
  80.1892391  50.8352359  61.5149192  80.7586249  50.0459944  60.3552747
  77.1898029  52.4957649  55.9124534  78.0090918  52.9901728  55.9359372
  77.4634837  51.5789618  55.8842102  86.9464625  44.8868402  45.2752490
  86.0590480  45.1718052  45.0572685  87.3618615  44.7262165  44.4279767
  90.2979162  44.9114923  48.9906829  91.0739552  45.4011375  49.2631446
  89.5727296  45.3372977  49.4478699  92.7351720  45.6242542  50.0480770
  93.3296211  45.3838278  49.3374078  92.8078304  44.9049673  50.6754306
  86.0907839  54.6513076  39.3700510  86.7943689  54.8563079  39.9858165
  85.3670488  55.2189838  39.6349593  86.9205649  50.4022938  45.4902780
  86.8640851  50.8591489  44.6510412  87.4733992  49.6413622  45.3125623
  90.7310455  46.1912670  46.3152900  90.4747389  45.7909305  47.1461107
  90.1063323  46.9056464  46.1903039  95.0422793  48.9308743  48.8224191
  94.4822351  49.0001932  49.5955753  94.4366296  48.7549727  48.1023687
  87.9994536  55.0895606  41.4198970  88.8340140  54.6576804  41.2376445
  87.8378879  54.9177619  42.3475864  87.6540429  51.5927719  42.7855309
  87.5989232  51.4271990  41.8443753  87.0286484  52.3003752  42.9417499
  84.9686336  53.8976631  62.1108872  85.8377495  54.0717283  61.7495507
  84.4893087  54.7171048  61.9884601  80.9636554  41.0935828  42.3640628
  80.9515224  42.0377668  42.5208898  81.8559976  40.9105973  42.0700089
  79.1372516  61.0173732  53.7898306  80.0399763  61.0497342  54.1064801
  78.9109886  60.0874183  53.8044641  80.8926118  59.7704718  50.4508384
  79.9421749  59.7706580  50.3372757  81.1958604  59.0237453  49.9344419
  84.7788673  37.6878605  46.6186564  84.0121069  37.1337091  46.7643247
  85.1899378  37.7600473  47.4800716  76.7830434  43.9763400  60.7091746
  77.6461896  43.6200205  60.9195070  76.2095845  43.6377295  61.3967150
  96.6278811  65.6065257  51.5154147  97.2657221  65.4872004  50.8117487
  96.5099654  66.5546101  51.5742099  93.4368518  65.5592685  51.4515671
  93.0987029  65.4433750  50.5636206  94.3058286  65.1583850  51.4316678
  89.2955333  67.4128161  47.4412562  88.7320199  67.3218098  46.6728850
  89.1807728  66.5928066  47.9215055  93.9188301  66.7127537  57.4101877
  93.9076941  66.3180335  56.5382381  94.0808940  65.9793609  58.0035648
  86.8419765  68.9079353  50.2796783  87.6341057  68.5670178  49.8643082
  87.0816415  69.0174328  51.1998936  94.8754892  71.0799129  42.7527027
  94.2242872  71.6653209  42.3661041  95.6699255  71.6105324  42.8122065
  88.8010519  68.1688266  43.1514162  89.5741395  67.6217253  43.0127037
  89.1535918  69.0332515  43.3628623  90.6395562  69.4964648  56.3581061
  90.3485428  70.4010279  56.2427727  91.2752546  69.5381176  57.0725130
  91.5651769  66.8741497  52.9482421  92.1615341  66.6497519  52.2339383
  91.6226740  66.1326242  53.5507868  91.1376797  64.3280932  40.7832611
  91.3902318  63.8062454  40.0216074  90.2001356  64.1647078  40.8859295
  96.1820080  63.3316711  48.5907355  96.9683169  62.9136134  48.2397772
  96.4458784  64.2362803  48.7589003  96.3530157  68.7689561  43.2896012
  95.7175990  68.8424187  44.0016916  96.0227564  69.3583160  42.6115091
  90.8573086  66.2309038  42.9856986  90.7409344  65.5553942  43.6538071
  90.9675346  65.7441412  42.1689139  99.1053927  56.9813518  53.9534942
  98.7737252  57.8508929  53.7296157  98.5099541  56.6649802  54.6328972
  92.8410114  60.7209085  41.6865024  93.0084516  61.5889321  42.0535495
  92.6507283  60.8836367  40.7626313  95.5985447  69.1826064  53.3530855
  95.2986170  70.0851103  53.2446662  95.2536506  68.9158247  54.2052007
  89.0497928  65.6339861  49.3867559  88.1248425  65.5016075  49.5945251
  89.2982342  66.4134080  49.8837501  98.9982591  61.7008604  51.0328292
  98.0899468  61.6324013  50.7387053  98.9470186  62.1780549  51.8610117
  92.8199335  63.1766743  42.6711691  92.6998960  63.6223793  43.5097171
  92.1251923  63.5252060  42.1125229  86.4106739  65.2773134  50.2211348
  86.5399121  65.5307613  51.1350760  85.7304191  65.8700842  49.9016003
  90.5806227  75.9470384  46.3201822  90.5030256  76.8978209  46.3990303
  89.9767870  75.6016257  46.9776749  93.0723456  63.1198250  58.9763189
  92.2956791  63.6792170  58.9666054  93.7114020  63.6055033  59.4978059
  98.5184401  63.6488216  43.4992025  99.4302257  63.8815602  43.3239723
  98.0094048  64.2325260  42.9367104  91.3269829  65.9283703  58.5381156
  92.0684513  66.4668747  58.2615980  90.6206814  66.5549992  58.6952708
  96.8025168  68.0712844  57.1353318  97.2108524  67.6295254  56.3907950
  96.0802430  67.4965471  57.3887511  93.1556238  63.0085450  54.5086875
  94.0017434  63.4324864  54.6521524  93.0954876  62.3519075  55.2025438
  97.1253983  68.6314034  50.8905607  96.4962846  68.7959748  50.1881674
  96.7379645  69.0455644  51.6616571  96.3055684  60.6689819  56.1668048
  96.0616616  61.4231879  55.6302324  96.5815614  61.0475166  57.0015295
  98.2594147  67.2128431  54.8445314  98.4711042  67.8560191  54.1679695
  98.2123895  66.3790748  54.3767244  95.8620376  59.8246252  51.7481886
  95.0004855  60.1227505  52.0398624  95.8882810  60.0416651  50.8162919
  92.6781945  68.3688442  48.1555692  93.1420290  68.6476145  47.3660314
  92.4138743  67.4671887  47.9728782  89.5706026  67.9159924  51.0935455
  90.1407383  68.3447192  50.4552939  90.1614138  67.6342508  51.7919641
  91.6150831  64.4911595  44.9645257  92.3174874  64.9432638  45.4319183
  91.2831460  63.8495413  45.5925150  90.0631193  63.0823351  59.3396466
  89.4329853  63.7639632  59.5731863  89.9567280  62.9706433  58.3949604
  85.3576165  62.7495147  50.2662390  84.5675219  63.0052676  49.7902501
  85.8487412  63.5643485  50.3714431  87.3090910  63.1139727  47.2245867
  86.5122074  63.2258421  47.7429363  87.0816503  63.4526379  46.3586758
  93.1396578  69.6384430  55.1728382  93.2041010  70.1004837  56.0086554
  92.4307502  69.0081795  55.3010692  83.6413868  63.0025638  52.6977381
  83.8921906  63.8872648  52.9634957  84.1773416  62.8230239  51.9252473
  92.8544596  71.3052537  45.0407362  92.7190270  72.1504073  45.4692210
  93.3954408  71.5071815  44.2773296  89.3411935  57.3844117  61.7021717
  88.9478881  56.8310316  62.3769361  90.1578076  57.6954696  62.0928235
  86.3073993  68.8227975  45.6135287  86.8198514  69.6171226  45.7640852
  86.9596706  68.1254266  45.5468889  88.1168878  71.9393732  47.6958040
  88.2935506  72.8611696  47.5079024  88.9125711  71.6252151  48.1252420
  92.2579896  58.8001996  59.2941974  92.9989610  59.4009149  59.2146436
  92.4897819  58.0579634  58.7360016  87.4021234  63.9858363  57.5720203
  87.2874749  63.0843621  57.8727302  86.5465752  64.2322060  57.2205020
  94.4813072  71.9276104  59.1707704  94.0376926  71.1412482  58.8528609
  95.1430286  72.1155254  58.5051595  96.5794310  72.2078904  57.1989105
  96.5612785  73.0287785  56.7069375  97.5014230  72.0832979  57.4239247
  93.0367364  69.7223033  58.0412614  93.5695701  68.9611321  57.8111922
  92.5081445  69.4296685  58.7836768  96.2037059  54.8283099  53.5706255
  95.8601329  55.7184741  53.4945366  96.5716022  54.6384757  52.7075840
  84.2722910  67.1516630  46.3894858  85.1098132  67.5613638  46.1728565
  84.4501178  66.2116072  46.3595051  96.1687342  64.8191710  42.0778691
  95.6533965  65.5896315  42.3167078  95.8964650  64.1456846  42.7011752
  93.7534453  59.6641411  47.1363929  92.8976049  59.2748261  46.9569568
  94.1661405  59.7433372  46.2763714  95.2833600  57.1987754  51.5355489
  94.7798395  57.1617889  50.7223294  95.5764206  58.1080497  51.5952145
  91.5276485  57.2826484  50.5421670  92.3929482  57.0869293  50.1827560
  91.5953994  57.0536836  51.4691027  95.9573645  62.6918802  43.9038472
  95.6523781  63.0064951  44.7548615  96.9104087  62.7700222  43.9465805
  94.4020077  68.8509026  45.5531426  93.8741439  68.1161785  45.2404663
  93.9007580  69.6283702  45.3071394  89.1338805  59.5128692  47.9138037
  89.7082556  59.2903873  47.1811230  89.7209787  59.5817386  48.6666639
  98.1918382  65.4002419  48.7202414  98.7050264  66.0332411  49.2224124
  98.8419606  64.8003614  48.3545774  89.4608392  61.5433153  41.9333923
  88.6245704  61.8807839  42.2543197  89.3213161  61.4082133  40.9961059
  91.4361472  56.3869941  46.6413107  90.7825885  56.0718958  46.0169721
  91.3941946  55.7645681  47.3672930  92.5472677  66.6689236  38.5566399
  91.6399739  66.4378489  38.7557548  93.0443709  65.8726855  38.7440380
  95.4540756  75.3786743  41.4763085  94.7802455  75.6818440  42.0848043
  95.8406578  76.1815823  41.1268542  94.6699213  62.8751874  50.9660754
  93.7521774  63.0966821  50.8082442  95.0859356  62.9498185  50.1072462
  95.4534260  64.2743290  46.0963435  96.2006079  64.7864687  45.7870557
  95.7225850  63.9527343  46.9567828  93.7260911  66.7701831  43.0790389
  92.8172130  66.4860864  43.1762859  93.7555994  67.1900909  42.2193696
  98.9580178  70.3808420  46.8481556  98.5042505  69.5399330  46.9046747
  98.3274145  71.0169819  47.1856337  97.9013098  61.3100406  48.0782224
  97.1635854  60.7977793  48.4092466  98.1539871  60.8700788  47.2665501
  97.4013117  72.2184917  47.7831375  97.6936092  72.7789974  47.0643740
  97.9111738  72.5113478  48.5384534  98.0024725  54.0876658  48.6723993
  98.3083602  53.2274022  48.3849908  98.7277330  54.6794278  48.4722987
  84.2949081  64.4907345  47.0605591  84.0973481  63.8976706  46.3356658
  83.7395745  64.1859555  47.7781530  92.2745805  64.3830451  49.1800184
  92.3294414  63.4304288  49.1042661  91.4637007  64.5389890  49.6641483
  93.4236998  68.3110574  40.4178467  92.9856428  67.5946433  39.9584105
  94.1647439  68.5386689  39.8563559  90.2138165  63.0007511  46.9390563
  89.4006030  63.3001682  47.3455755  90.7097159  62.6063200  47.6565045
  92.3646742  72.9965268  48.8724828  92.3222921  73.2226114  47.9433360
  93.2809441  72.7628643  49.0210629  95.8112376  63.4649336  55.7705457
  96.1661764  63.6920809  56.6299923  96.4584507  63.7967712  55.1482712
  89.7052239  60.5725867  52.5551798  90.3451619  60.4314626  51.8574761
  88.8729770  60.2860380  52.1790400  90.4812543  69.8728297  48.6686790
  91.2753142  69.3778617  48.4669365  89.7704236  69.3446160  48.3054496
  95.3007388  72.2546393  53.0199158  95.3544410  72.8237329  53.7876874
  94.4322169  72.4248278  52.6553195  86.7895307  64.0171379  44.7446543
  85.8592895  63.9555834  44.9616505  86.8852779  63.4947332  43.9483184
  86.7080856  60.5426192  47.3324785  86.9687673  61.4571525  47.2233945
  87.5298028  60.0750634  47.4821398  88.1805781  61.9563949  54.5023609
  88.8528834  61.7481311  53.8536258  87.3535568  61.7586035  54.0628842
  94.0831353  58.5825890  56.5189270  93.4359268  59.2815839  56.4253747
  94.8532368  59.0162034  56.8865518  97.4910151  68.8474742  59.5939824
  97.3395657  68.6185294  58.6769907  97.4814830  69.8045343  59.6071169
  94.2595487  66.4206655  54.5786090  95.1887547  66.5717814  54.4055057
  93.8386517  66.5090675  53.7234736  93.0583819  70.4457319  52.3484628
  92.9194905  70.0776103  53.2210566  92.2698415  70.9604958  52.1768585
  93.6531971  75.5466416  43.6910164  93.8283727  75.0754459  44.5055787
  92.9664759  76.1732182  43.9191425  94.6089034  69.8238922  49.7373465
  94.2738867  69.7839692  50.6331115  94.1092980  69.1583638  49.2643876
  88.5833278  65.2306552  55.2626047  88.4453076  64.4986791  55.8637586
  89.4938202  65.1415452  54.9810234  97.5448226  67.1694956  40.0110525
  96.9277397  66.4441784  39.9143578  97.0764714  67.9304316  39.6677599
  91.2115579  64.9426511  54.7509726  91.9215197  64.3019703  54.7096345
  91.1684887  65.1939406  55.6735907  99.2002358  71.8793864  57.6716305
  99.1414904  71.1953085  57.0046888  99.6021876  72.6212854  57.2196931
  89.9244513  61.9291729  56.5705366  89.3881870  61.4782467  57.2226962
  89.3361221  62.0637638  55.8275830  88.2193056  78.6955778  50.4650024
  88.4589655  79.3274302  51.1429043  87.3762253  78.3443818  50.7515384
  89.3346772  61.3880380  39.1331829  88.4576238  61.2669181  38.7694076
  89.8104525  60.5966459  38.8810718  99.2019765  69.8433448  55.9030285
  98.3146544  69.5059370  56.0256684  99.7718316  69.1116480  56.1399050
  80.8548912  66.1757540  49.2273336  81.5419952  65.8619270  48.6394352
  80.6997041  67.0798905  48.9540588  85.6583634  61.0647737  53.6558360
  85.5741823  60.4573406  52.9208770  84.8366341  61.5556755  53.6567856
  92.7320918  74.5034901  52.8691528  92.6591090  75.3089872  53.3810833
  92.2898311  74.7026867  52.0439550  92.5210698  73.7406671  46.3794350
  91.7378220  74.2828351  46.4732574  93.2203443  74.2580650  46.7788591
  95.8307348  59.5501300  49.0228555  96.3276048  58.7971263  48.7029625
  95.0594330  59.5865617  48.4571765  95.1919602  74.4021735  55.0249687
  95.9047574  75.0369200  54.9525588  94.7009630  74.4985601  54.2089689
  96.9137129  68.3072987  46.5966979  95.9793407  68.4274450  46.4271683
  97.0913797  67.4045454  46.3326988  92.4142317  61.6918683  48.7500240
  92.0440104  61.1389724  49.4381145  92.9101409  61.0876817  48.1975240
  90.2431515  72.1516178  55.8455258  90.9440975  72.7852661  55.9984652
  89.7726630  72.4930910  55.0850897  98.3685911  70.4934128  44.1303165
  98.6445755  70.3790723  45.0397039  97.4990410  70.0951613  44.0915338
  98.2726343  56.5170894  51.1707914  97.3589423  56.7475121  51.3390121
  98.7019444  56.6009338  52.0221946  98.0432801  64.7060786  53.6707808
  97.3904252  64.9536693  53.0160261  98.4213181  63.8924924  53.3370285
  95.0039975  74.7420479  47.7735978  95.1862370  73.9242135  48.2363731
  95.8272961  74.9588171  47.3360868  95.3382141  73.6688664  45.0351027
  95.8669907  73.1581119  44.4221189  95.6010360  73.3531194  45.8996560
  94.0920374  65.4480597  60.1573845  93.4161011  65.3474726  60.8276220
  94.9148008  65.2919810  60.6209842  85.8399233  71.6852533  52.7786360
  86.4252670  70.9396221  52.9114265  85.6424072  71.9956490  53.6623024
  88.6937889  74.7203781  47.7948803  88.0248264  75.2049908  47.3112843
  88.5550758  74.9673001  48.7092181  80.4316888  64.2558133  51.4990804
  80.4700988  63.7221724  52.2927922  79.9257181  63.7293339  50.8801781
  92.8343157  76.7547524  54.3931461  93.3861465  76.9179146  55.1580546
  93.1749351  77.3451962  53.7211486  87.8107650  59.1022674  54.9953346
  87.8748977  59.9637505  54.5830744  87.7474771  58.4896676  54.2625704
  87.2859923  61.1745807  58.6426380  87.9131962  60.7922884  59.2563904
  86.4287842  60.9560008  59.0082073  97.6854032  71.5808782  60.2480116
  98.2293936  72.1938740  59.7535070  97.1040876  72.1388360  60.7647129
  95.9711544  74.7029500  51.3795143  95.8462684  73.9019240  50.8706089
  96.6290636  75.1975693  50.8909113  87.5919713  61.0578232  50.5572284
  86.8706298  61.6714200  50.4179757  88.3812968  61.5935997  50.4788929
  98.0346453  72.5038520  53.0074693  97.0876788  72.3843871  52.9353020
  98.3829226  71.6161018  53.0900955  90.3946026  58.3932659  56.8312935
  90.9180428  58.6394955  57.5939245  90.1758360  59.2252694  56.4116073
  85.7913307  60.6636333  44.6984060  85.4626013  59.7833712  44.5159166
  86.1452678  60.6084002  45.5860449  95.0392886  72.2991236  49.2079046
  94.8917849  71.3707943  49.3886616  95.8646380  72.3211327  48.7236121
  88.9055130  60.9509303  45.0659538  89.2451203  61.4795224  44.3438146
  89.3527251  61.2889709  45.8418104  98.6427008  73.1219795  50.2943918
  99.5673555  72.9162656  50.1568370  98.4742311  72.8736196  51.2033260
  91.5998571  59.3346354  54.5162606  91.2595392  58.5354167  54.9183286
  90.8937578  59.6348065  53.9439439  92.2515043  56.4195666  52.9689929
  93.0741112  55.9456144  52.8468819  92.4953107  57.1986150  53.4688615
  90.8923278  59.4483925  43.2652831  91.6131640  59.8265177  42.7616547
  90.2688582  60.1672801  43.3687809  95.0354400  60.1529074  44.2011163
  95.2518015  61.0353712  43.8999991  94.5548468  59.7615287  43.4716805
  89.7753622  63.1114787  50.7781907  89.6298203  63.4255090  51.6706189
  89.2978825  63.7299687  50.2252806  91.6350005  60.1017335  50.8262797
  91.6211574  59.2058428  50.4895095  92.3522433  60.1087999  51.4601083
  93.4876135  60.5354675  52.8715924  93.2293913  61.4571746  52.8700255
  92.9561176  60.1385110  53.5616389  98.4322324  73.6405462  45.6506010
  98.6059202  73.0751885  44.8979862  98.9251215  74.4406357  45.4685500
  84.2499284  65.6520131  53.7169569  83.7052752  66.4279939  53.8489843
  85.1278634  65.9990936  53.5588690  91.0386901  58.9831715  46.0950367
  91.1602812  58.0548361  46.2941255  90.7488943  58.9970401  45.1828683
  93.9078091  56.6686626  49.2317087  93.9299788  56.7325959  48.2769067
  94.3246150  55.8291134  49.4257593  99.4197497  72.9572227  42.7502908
 100.1148401  73.5778919  42.9690223  99.7620647  72.1067578  43.0255286
  85.0365306  64.7790028  56.6099726  84.2947042  64.9272663  57.1964356
  84.7158050  65.0398293  55.7466475  92.9808969  74.3206006  56.4080116
  93.2896095  74.0755153  57.2802815  93.7784451  74.5252644  55.9198986
  93.0029581  76.4743915  48.6385492  92.5634571  75.9820294  49.3318349
  93.7537698  75.9316883  48.3977567  85.4821920  72.6655456  48.6410120
  86.3079939  72.3659228  48.2608764  85.1315972  71.8963079  49.0899909
  90.4503453  72.0181924  50.7107794  89.8283462  71.3552630  50.4110022
  91.1208320  72.0443056  50.0281442  83.6830525  70.5841783  49.5999054
  82.8462433  70.1563957  49.4183055  83.6554170  70.7774226  50.5369845
  90.5227980  60.4963713  60.3040300  90.5716136  61.3725835  59.9218069
  91.0650494  59.9541106  59.7311943  90.0116960  70.5685848  44.1866254
  90.1605080  71.2521312  43.5332927  90.8183403  70.5490938  44.7015710
  98.4184463  63.8728230  58.2133472  99.3194326  63.7334695  57.9217470
  98.4932438  64.0382685  59.1531650  87.7669593  66.5951025  45.1927323
  87.5215635  65.6913355  45.3907533  87.9365507  66.5968176  44.2506801
  95.4566303  57.4674702  54.5752079  95.9748246  58.2035729  54.2498567
  95.1021435  57.7738695  55.4098838  87.0365240  62.3279383  42.6913485
  86.3434485  62.4023738  42.0353521  86.7916992  61.5639727  43.2135002
  95.7078897  53.8874984  50.0952975  95.9880650  53.2198173  50.7213402
  96.4929504  54.0804080  49.5827639  93.5112365  73.0633978  41.6578002
  92.9386332  73.6824165  41.2048474  94.0845159  73.6133340  42.1917924
  97.6002134  59.3948202  54.0283951  97.0052067  59.6753214  53.3330440
  97.3151831  59.8842103  54.8000693  96.7309625  73.3471128  42.7886584
  97.6640298  73.2816690  42.9919460  96.6432838  74.1827395  42.3301117
  93.8959164  64.3994791  38.9994054  94.8418268  64.2700999  39.0682472
  93.5173409  63.6609453  39.4763482  93.7797856  68.4512537  60.4594711
  94.7000866  68.6291136  60.6534758  93.7447439  67.5068583  60.3074410
  92.0802081  62.3244767  38.9348939  91.1733536  62.0277880  39.0111653
  92.3578062  62.0274585  38.0683226  82.9980021  63.6451131  49.3847986
  82.6782806  62.7916439  49.0922360  82.4513449  63.8599709  50.1405953
  86.7759929  66.3613572  53.1017492  86.9945939  67.2930680  53.1205526
  87.1885703  66.0021546  53.8872296  95.6254695  55.9459704  46.7117477
  96.1785733  56.3655157  47.3707500  95.8624781  55.0195452  46.7540433
  91.6487794  61.9346778  62.4920241  91.5484521  62.8841135  62.4232332
  91.4309336  61.6065016  61.6196311  90.8500865  59.1831703  39.0760919
  91.7120029  59.5086601  39.3356736  91.0351210  58.3963199  38.5633984
  82.8668281  67.2654042  51.3541107  82.1731753  66.8507995  50.8411062
  83.6141272  67.3074579  50.7574526  99.0033502  58.0560229  46.2196142
  98.4232171  58.7145033  45.8374194  98.7369435  57.2337574  45.8083559
  97.4537068  57.4565287  48.4217462  97.9536847  57.5681821  47.6131781
  98.0972676  57.1526340  49.0618270  91.5119064  65.3643916  61.3085303
  91.0286146  66.1644277  61.5149192  91.5980003  65.3751861  60.3552747
  84.7805024  67.1972296  49.2307122  84.7575712  67.2959983  48.2789005
  85.0905660  68.0437447  49.5524288  87.4392402  69.2548451  53.3453737
  88.3935655  69.2232393  53.2783668  87.2404925  68.7939075  54.1603963
  88.0291784  67.8249567  55.9124534  88.8484673  68.3193646  55.9359372
  88.3028591  66.9081535  55.8842102  97.7858380  60.2160319  45.2752490
  96.8984235  60.5009970  45.0572685  98.2012369  60.0554083  44.4279767
  85.7942630  74.7968071  50.3623935  85.6597098  74.0368471  49.7961933
  85.3774693  75.5208970  49.8952723  96.9301593  69.9804994  39.3700510
  97.6337444  70.1854997  39.9858165  96.2064242  70.5481756  39.6349593
  97.7599404  65.7314855  45.4902780  97.7034605  66.1883407  44.6510412
  98.3127746  64.9705540  45.3125623  88.9511756  75.6937388  50.5742377
  88.8344140  76.6382820  50.4721067  88.1304203  75.3910949  50.9628176
  98.8388291  70.4187523  41.4198970  99.6733895  69.9868722  41.2376445
  98.6772634  70.2469537  42.3475864  98.4934183  66.9219637  42.7855309
  98.4382987  66.7563908  41.8443753  97.8680238  67.6295670  42.9417499
  83.2826698  62.1587701  56.6116731  83.9285562  61.6486655  57.1003957
  83.0743849  62.8956383  57.1860157  95.8080090  69.2268549  62.1108872
  96.6771250  69.4009201  61.7495507  95.3286842  70.0462965  61.9884601
  91.8030308  56.4227746  42.3640628  91.7908978  57.3669586  42.5208898
  92.6953730  56.2397891  42.0700089  89.9766270  76.3465650  53.7898306
  90.8793517  76.3789260  54.1064801  89.7503640  75.4166100  53.8044641
  91.7319872  75.0996636  50.4508384  90.7815503  75.0998498  50.3372757
  92.0352359  74.3529371  49.9344419  95.6182428  53.0170522  46.6186564
  94.8514824  52.4629009  46.7643247  96.0293133  53.0892391  47.4800716
  87.6224189  59.3055318  60.7091746  88.4855651  58.9492123  60.9195070
  87.0489600  58.9669213  61.3967150 100.1349088  82.7420079  47.4412562
  99.5713953  82.6510016  46.6728850 100.0201483  81.9219983  47.9215055
  97.6813520  84.2371271  50.2796783  98.4734812  83.8962095  49.8643082
  97.9210170  84.3466246  51.1998936  99.8891683  80.9631778  49.3867559
  98.9642179  80.8307993  49.5945251 100.1376096  81.7425998  49.8837501
  97.2500494  80.6065052  50.2211348  97.3792875  80.8599531  51.1350760
  96.5697945  81.1992760  49.9016003  96.1969919  78.0787065  50.2662390
  95.4068973  78.3344593  49.7902501  96.6881167  78.8935403  50.3714431
  98.1484665  78.4431644  47.2245867  97.3515828  78.5550338  47.7429363
  97.9210257  78.7818296  46.3586758  94.4807622  78.3317555  52.6977381
  94.7315661  79.2164565  52.9634957  95.0167171  78.1522157  51.9252473
  97.1467748  84.1519893  45.6135287  97.6592268  84.9463143  45.7640852
  97.7990460  83.4546183  45.5468889  98.2414989  79.3150281  57.5720203
  98.1268504  78.4135538  57.8727302  97.3859507  79.5613978  57.2205020
  95.1116664  82.4808547  46.3894858  95.9491886  82.8905556  46.1728565
  95.2894932  81.5407989  46.3595051  95.1342835  79.8199263  47.0605591
  94.9367235  79.2268623  46.3356658  94.5789499  79.5151473  47.7781530
  97.6289061  79.3463296  44.7446543  96.6986649  79.2847752  44.9616505
  97.7246533  78.8239249  43.9483184  97.5474610  75.8718109  47.3324785
  97.8081427  76.7863443  47.2233945  98.3691783  75.4042552  47.4821398
  99.0199536  77.2855866  54.5023609  99.6922589  77.0773229  53.8536258
  98.1929322  77.0877952  54.0628842  91.6942667  81.5049458  49.2273336
  92.3813706  81.1911188  48.6394352  91.5390795  82.4090822  48.9540588
  96.4977389  76.3939654  53.6558360  96.4135577  75.7865324  52.9208770
  95.6760095  76.8848673  53.6567856  96.6792988  87.0144451  52.7786360
  97.2646425  86.2688139  52.9114265  96.4817826  87.3248408  53.6623024
  91.2710643  79.5850051  51.4990804  91.3094742  79.0513642  52.2927922
  90.7650935  79.0585257  50.8801781  98.6501405  74.4314592  54.9953346
  98.7142731  75.2929423  54.5830744  98.5868525  73.8188593  54.2625704
  98.1253677  76.5037724  58.6426380  98.7525716  76.1214802  59.2563904
  97.2681596  76.2851926  59.0082073  94.9019220  78.3114153  44.5744735
  95.1972661  77.4024832  44.5211789  94.0007256  78.2901893  44.2525737
  98.4313467  76.3870150  50.5572284  97.7100053  77.0006118  50.4179757
  99.2206723  76.9227915  50.4788929  96.6307062  75.9928251  44.6984060
  96.3019768  75.1125630  44.5159166  96.9846432  75.9375920  45.5860449
  95.0893039  80.9812049  53.7169569  94.5446507  81.7571857  53.8489843
  95.9672388  81.3282853  53.5588690  95.8759060  80.1081945  56.6099726
  95.1340796  80.2564581  57.1964356  95.5551805  80.3690211  55.7466475
  96.3215674  87.9947374  48.6410120  97.1473694  87.6951146  48.2608764
  95.9709726  87.2254996  49.0899909  94.5224279  85.9133700  49.5999054
  93.6856187  85.4855875  49.4183055  94.4947925  86.1066144  50.5369845
  98.6063347  81.9242943  45.1927323  98.3609389  81.0205273  45.3907533
  98.7759262  81.9260094  44.2506801  97.8758995  77.6571301  42.6913485
  97.1828240  77.7315656  42.0353521  97.6310747  76.8931644  43.2135002
  93.8373776  78.9743049  49.3847986  93.5176560  78.1208357  49.0922360
  93.2907204  79.1891627  50.1405953  97.6153683  81.6905489  53.1017492
  97.8339693  82.6222597  53.1205526  98.0279457  81.3313464  53.8872296
  93.7062036  82.5945960  51.3541107  93.0125507  82.1799913  50.8411062
  94.4535027  82.6366497  50.7574526  95.6198778  82.5264214  49.2307122
  95.5969466  82.6251901  48.2789005  95.9299415  83.3729365  49.5524288
  98.2786156  84.5840369  53.3453737  99.2329410  84.5524311  53.2783668
  98.0798680  84.1230993  54.1603963  98.8685538  83.1541485  55.9124534
  99.6878427  83.6485564  55.9359372  99.1422346  82.2373453  55.8842102
  94.1220452  77.4879619  56.6116731  94.7679316  76.9778573  57.1003957
  93.9137604  78.2248300  57.1860157  98.4617943  74.6347236  60.7091746
  99.3249405  74.2784041  60.9195070  97.8883354  74.2961131  61.3967150
  54.3238503  -0.0734278  37.0042089  55.1159795  -0.4143453  36.5888389
  54.5635153   0.0360698  37.9244243  62.3573630   2.0985499  29.4772334
  61.7061610   2.6839579  29.0906348  63.1517993   2.6291693  29.5367371
  58.1214300   0.5151018  43.0826368  57.8304166   1.4196649  42.9673034
  58.7571284   0.5567546  43.7970437  58.0624965   6.9656754  33.0447129
  57.9848994   7.9164579  33.1235609  57.4586608   6.6202626  33.7022055
  60.3363333   2.3238907  31.7652669  60.2009008   3.1690443  32.1937516
  60.8773146   2.5258184  31.0018602  53.7892731  -0.1585655  32.3380594
  54.3017251   0.6357595  32.4886158  54.4415444  -0.8559365  32.2714195
  55.5987616   2.9580101  34.4203347  55.7754244   3.8798066  34.2324331
  56.3944449   2.6438520  34.8497727  61.9631810   2.9462473  45.8953011
  61.5195664   2.1598852  45.5773915  62.6249023   3.1341624  45.2296901
  56.7218931   4.4758275  40.4213689  57.2726356   4.3475338  39.6490683
  55.8830407   4.7753164  40.0708582  64.0613048   3.2265273  43.9234412
  64.0431523   4.0474154  43.4314681  64.9832968   3.1019348  44.1484553
  62.9359494   6.3973113  28.2008392  62.2621193   6.7004809  28.8093349
  63.3225316   7.2002193  27.8513849  64.8831855   3.2371287  34.5076681
  65.1754829   3.7976344  33.7889047  65.3930476   3.5299848  35.2629840
  59.8465480   4.0151638  35.5970134  59.8041659   4.2412484  34.6678666
  60.7628179   3.7815012  35.7455936  62.7826125   3.2732762  39.7444465
  62.8363148   3.8423698  40.5122181  61.9140907   3.4434647  39.3798502
  61.1350709   6.5652785  30.4155471  61.3102465   6.0940828  31.2301093
  60.4483497   7.1918551  30.6436731  55.7011794   9.7142148  37.1895331
  55.9408392  10.3460672  37.8674349  54.8580991   9.3630188  37.4760690
  60.2139656   5.5221270  39.5936835  60.1409828   6.3276242  40.1056139
  59.7717049   5.7213236  38.7684856  60.0029436   4.7593040  33.1039656
  59.2196958   5.3014721  33.1977881  60.7022181   5.2767020  33.5033898
  62.6738340   5.4208104  41.7494994  63.3866312   6.0555569  41.6770895
  62.1828368   5.5171970  40.9334995  57.7250253   3.1702548  42.5700564
  58.4259713   3.8039031  42.7229959  57.2545368   3.5117279  41.8096204
  62.4858713   5.7606848  34.4981285  62.6681108   4.9428504  34.9609037
  63.3091699   5.9774541  34.0606175  62.8200878   4.6875034  31.7596333
  63.3488645   4.1767488  31.1466496  63.0829098   4.3717564  32.6241867
  53.3217971   2.7038903  39.5031667  53.9071408   1.9582591  39.6359571
  53.1242810   3.0142860  40.3868331  56.1756626   5.7390150  34.5194109
  55.5067002   6.2236278  34.0358149  56.0369496   5.9859371  35.4337488
  60.3161895   7.7733894  41.1176768  60.8680203   7.9365515  41.8825853
  60.6568088   8.3638332  40.4456793  63.4530282   5.7215869  38.1040450
  63.3281422   4.9205609  37.5951395  64.1109373   6.2162063  37.6154420
  62.5211624   3.3177606  35.9324352  62.3736586   2.3894313  36.1131922
  63.3465117   3.3397696  35.4481428  66.1245746   4.1406164  37.0189225
  67.0492293   3.9349026  36.8813676  65.9561049   3.8922565  37.9278567
  65.9141062   4.6591832  32.3751316  66.0877940   4.0938254  31.6225169
  66.4069953   5.4592727  32.1930806  60.4627706   5.3392375  43.1325422
  60.7714833   5.0941522  44.0048122  61.2603188   5.5439014  42.6444292
  60.4848318   7.4930285  35.3630799  60.0453309   7.0006664  36.0563655
  61.2356435   6.9503253  35.1222874  52.9640657   3.6841826  35.3655427
  53.7898677   3.3845598  34.9854070  52.6134709   2.9149448  35.8145215
  51.1649262   1.6028152  36.3244360  50.3281171   1.1750327  36.1428362
  51.1372908   1.7960596  37.2615152  57.4935697   1.5872217  30.9111561
  57.6423818   2.2707682  30.2578234  58.3002141   1.5677307  31.4261017
  60.9931103   4.0820348  28.3823308  60.4205070   4.7010535  27.9293780
  61.5663897   4.6319710  28.9163230  64.2128363   4.3657498  29.5131891
  65.1459036   4.3003060  29.7164766  64.1251576   5.2013765  29.0546423
  50.3487019  -1.7159588  38.0786414  49.6550490  -2.1305635  37.5656368
  51.0960010  -1.6739052  37.4819833  54.9211139   0.2734821  40.0699043
  55.8754393   0.2418763  40.0028975  54.7223663  -0.1874556  40.8849269
  53.2761368   5.8154440  37.0869241  53.1415836   5.0554841  36.5207239
  52.8593430   6.5395340  36.6198030  56.4330494   6.7123757  37.2987684
  56.3162878   7.6569190  37.1966374  55.6122940   6.4097319  37.6873483
  57.4585008   7.3652019  40.5143612  58.3612255   7.3975629  40.8310107
  57.2322378   6.4352470  40.5289948  59.2138610   6.1183006  37.1753691
  58.2634241   6.1184867  37.0618063  59.5171096   5.3715740  36.6589726
  74.9491304  11.9543544  38.2399453  75.5869714  11.8350291  37.5362793
  74.8312147  12.9024388  38.2987405  71.7581010  11.9070972  38.1760978
  71.4199521  11.7912037  37.2881513  72.6270778  11.5062137  38.1561984
  67.6167826  13.7606449  34.1657869  67.0532691  13.6696385  33.3974157
  67.5020221  12.9406353  34.6460361  72.2400793  13.0605824  44.1347184
  72.2289434  12.6658622  43.2627687  72.4021432  12.3271896  44.7280955
  65.1632258  15.2557640  37.0042089  65.9553550  14.9148465  36.5888389
  65.4028908  15.3652615  37.9244243  73.1967384  17.4277416  29.4772334
  72.5455364  18.0131497  29.0906348  73.9911747  17.9583611  29.5367371
  67.1223012  14.5166553  29.8759468  67.8953888  13.9695540  29.7372344
  67.4748410  15.3810803  30.0873930  68.9608054  15.8442936  43.0826368
  68.6697920  16.7488567  42.9673034  69.5965038  15.8859463  43.7970437
  69.8864261  13.2219784  39.6727727  70.4827833  12.9975807  38.9584690
  69.9439232  12.4804530  40.2753175  69.4589289  10.6759220  27.5077918
  69.7114810  10.1540741  26.7461381  68.5213848  10.5125365  27.6104602
  74.5032572   9.6794998  35.3152661  75.2895661   9.2614421  34.9643078
  74.7671277  10.5841090  35.4834310  74.6742650  15.1167848  30.0141318
  74.0388483  15.1902475  30.7262223  74.3440056  15.7061447  29.3360397
  79.9040999   9.6170231  36.2185640  80.6366171   9.0469448  36.4523469
  79.1480355   9.2291832  36.6592145  69.1785578  12.5787325  29.7102293
  69.0621836  11.9032229  30.3783377  69.2887838  12.0919699  28.8934446
  71.5217119  12.0397473  33.4148982  71.1575326  11.5128094  34.1261904
  72.3784235  11.6495942  33.2415468  71.1622606   7.0687372  28.4110331
  71.3297008   7.9367609  28.7780802  70.9719775   7.2314654  27.4871620
  73.9197939  15.5304351  40.0776161  73.6198662  16.4329390  39.9691968
  73.5748999  15.2636534  40.9297314  67.3710421  11.9818148  36.1112866
  66.4460917  11.8494362  36.3190557  67.6194834  12.7612367  36.6082808
  77.3195083   8.0486891  37.7573599  76.4111960   7.9802300  37.4632359
  77.2682679   8.5258836  38.5855424  71.1411827   9.5245030  29.3956998
  71.0211452   9.9702081  30.2342478  70.4464415   9.8730347  28.8370536
  64.7319232  11.6251422  36.9456655  64.8611613  11.8785900  37.8596066
  64.0516683  12.2179130  36.6261310  68.9018719  22.2948672  33.0447129
  68.8242749  23.2456497  33.1235609  68.2980363  21.9494544  33.7022055
  71.3935949   9.4676537  45.7008496  70.6169283  10.0270457  45.6911360
  72.0326512   9.9533320  46.2223366  76.8396893   9.9966503  30.2237332
  77.7514749  10.2293890  30.0485029  76.3306540  10.5803547  29.6612410
  69.6482321  12.2761990  45.2626463  70.3897005  12.8147034  44.9861286
  68.9419307  12.9028279  45.4198015  75.1237661  14.4191131  43.8598624
  75.5321017  13.9773541  43.1153257  74.4014922  13.8443758  44.1132817
  71.4768731   9.3563738  41.2332181  72.3229926   9.7803151  41.3766830
  71.4167368   8.6997362  41.9270744  75.4466475  14.9792321  37.6150913
  74.8175338  15.1438036  36.9126981  75.0592137  15.3933931  38.3861877
  79.3255707  15.9146759  34.9695277  78.6406745  16.2945661  34.4192310
  79.4099557  16.5242086  35.7027225  74.6268176   7.0168106  42.8913355
  74.3829108   7.7710166  42.3547631  74.9028107   7.3953454  43.7260602
  76.5806639  13.5606718  41.5690620  76.7923534  14.2038478  40.8925002
  76.5336387  12.7269035  41.1012551  74.1832868   6.1724539  38.4727193
  73.3217347   6.4705792  38.7643930  74.2095302   6.3894938  37.5408225
  70.9994437  14.7166729  34.8800998  71.4632783  14.9954432  34.0905621
  70.7351235  13.8150174  34.6974089  67.8918518  14.2638211  37.8180762
  68.4619875  14.6925479  37.1798246  68.4826630  13.9820796  38.5164947
  69.9363323  10.8389882  31.6890563  70.6387367  11.2910926  32.1564490
  69.6043952  10.1973701  32.3170457  68.3843685   9.4301638  46.0641773
  67.7542345  10.1117919  46.2977170  68.2779773   9.3184720  45.1194911
  63.6788657   9.0973435  36.9907697  62.8887711   9.3530963  36.5147808
  64.1699905   9.9121772  37.0959738  77.6952467  16.4378674  39.7412978
  78.5169911  16.0358861  39.4595659  77.6914870  16.3346908  40.6929094
  65.6303403   9.4618014  33.9491174  64.8334566   9.5736708  34.4674669
  65.4028995   9.8004666  33.0832064  71.4609070  15.9862717  41.8973688
  71.5253503  16.4483124  42.7331860  70.7519994  15.3560082  42.0255998
  61.9626360   9.3503925  39.4222688  62.2134399  10.2350935  39.6880264
  62.4985909   9.1708526  38.6497780  85.7858460  12.7817422  36.0897949
  85.0322168  12.2124820  35.9341954  85.9206001  12.7480087  37.0368584
  71.1757088  17.6530824  31.7652669  71.0402763  18.4982360  32.1937516
  71.7166900  17.8550102  31.0018602  64.6286485  15.1706263  32.3380594
  65.1411006  15.9649513  32.4886158  65.2809198  14.4732553  32.2714195
  66.4381370  18.2872019  34.4203347  66.6147998  19.2089983  34.2324331
  67.2338204  17.9730438  34.8497727  65.7233727  10.3336651  44.2965510
  65.6087242   9.4321908  44.5972609  64.8678244  10.5800347  43.9450327
  72.8025564  18.2754391  45.8953011  72.3589418  17.4890770  45.5773915
  73.4642778  18.4633541  45.2296901  67.5612685  19.8050193  40.4213689
  68.1120111  19.6767256  39.6490683  66.7224161  20.1045082  40.0708582
  74.9006802  18.5557191  43.9234412  74.8825278  19.3766072  43.4314681
  75.8226722  18.4311266  44.1484553  71.3579857  16.0701320  44.7657920
  71.8908193  15.3089609  44.5357228  70.8293938  15.7774972  45.5082075
  62.5935402  13.4994917  33.1140164  63.4310624  13.9091925  32.8973872
  62.7713670  12.5594359  33.0840358  74.4899834  11.1669997  28.8023997
  73.9746458  11.9374602  29.0412385  74.2177143  10.4935134  29.4257059
  72.0746945   6.0119698  33.8609236  71.2188542   5.6226549  33.6814874
  72.4873897   6.0911659  33.0009021  79.4634108  13.9202352  30.7377171
  78.6863551  13.5813512  30.2932333  80.1425589  13.9254975  30.0632136
  74.2786137   9.0397090  30.6283778  73.9736273   9.3543239  31.4793922
  75.2316579   9.1178509  30.6711111  72.7232569  15.1987313  32.2776732
  72.1953931  14.4640072  31.9649970  72.2220072  15.9761989  32.0316701
  77.7025415  13.3936333  37.3943779  77.0449090  14.0835595  37.4823907
  78.5065814  13.7832765  37.7377765  67.4551297   5.8606979  34.6383344
  68.0295049   5.6382161  33.9056537  68.0422279   5.9295674  35.3911945
  76.5130874  11.7480706  35.4447720  77.0262756  12.3810698  35.9469430
  77.1632098  11.1481902  35.0791080  67.7820884   7.8911440  28.6579229
  66.9458196   8.2286127  28.9788504  67.6425654   7.7560420  27.7206366
  70.8685169  13.0167523  25.2811705  69.9612231  12.7856777  25.4802854
  71.3656201  12.2205142  25.4685687  73.7753248  21.7265030  28.2008392
  73.1014947  22.0296727  28.8093349  74.1619070  22.5294111  27.8513849
  72.9911705   9.2230162  37.6906061  72.0734266   9.4445109  37.5327749
  73.4071849   9.2976472  36.8317768  73.7746753  10.6221577  32.8208741
  74.5218572  11.1342975  32.5115863  74.0438342  10.3005630  33.6813135
  72.0473403  13.1180118  29.8035695  71.1384622  12.8339151  29.9008165
  72.0768487  13.5379197  28.9439002  77.2792670  16.7286708  33.5726863
  76.8254997  15.8877617  33.6292054  76.6486637  17.3648106  33.9101643
  76.2225590   7.6578694  34.8027530  75.4848347   7.1456080  35.1337773
  76.4752363   7.2179075  33.9910807  75.7225609  18.5663204  34.5076681
  76.0148584  19.1268261  33.7889047  76.2324230  18.8591765  35.2629840
  62.6161573  10.8385632  33.7850898  62.4185973  10.2454993  33.0601964
  62.0608237  10.5337842  34.5026836  70.5958297  10.7308739  35.9045491
  70.6506907   9.7782575  35.8287967  69.7849499  10.8868178  36.3886789
  71.7449491  14.6588862  27.1423774  71.3068921  13.9424721  26.6829411
  72.4859931  14.8864977  26.5808865  68.5350657   9.3485798  33.6635870
  67.7218522   9.6479969  34.0701062  69.0309651   8.9541487  34.3810352
  70.6859235  19.3443555  35.5970134  70.6435413  19.5704402  34.6678666
  71.6021934  19.1106930  35.7455936  74.1324868   9.8127623  42.4950764
  74.4874256  10.0399096  43.3545229  74.7797000  10.1446000  41.8728019
  79.8622605  12.9346059  33.2000093  79.7240504  13.1247655  32.2721282
  79.5058824  13.6965442  33.6568144  68.0264732   6.9204154  39.2797105
  68.6664111   6.7792913  38.5820068  67.1942262   6.6338667  38.9035707
  79.8891985  15.0022586  38.2111364  80.3228492  14.9097875  39.0594418
  80.6023566  14.9780086  37.5731380  68.8025035  16.2206584  35.3932097
  69.5965634  15.7256904  35.1914672  68.0916728  15.6924447  35.0299803
  73.6219880  18.6024680  39.7444465  73.6756902  19.1715616  40.5122181
  72.7534661  18.7726565  39.3798502  65.1107799  10.3649666  31.4691850
  64.1805387  10.3034122  31.6861812  65.2065271   9.8425619  30.6728491
  65.0293348   6.8904479  34.0570091  65.2900165   7.8049812  33.9479252
  65.8510520   6.4228921  34.2066704  66.5018273   8.3042236  41.2268916
  67.1741327   8.0959598  40.5781565  65.6748060   8.1064322  40.7874148
  80.7507535  15.0446286  40.7444250  80.9443425  15.9492097  40.9903524
  80.6508153  14.5853705  41.5782835  75.8122643  15.1953029  46.3185130
  75.6608150  14.9663581  45.4015214  75.8027323  16.1523631  46.3316475
  72.5807980  12.7684942  41.3031397  73.5100040  12.9196101  41.1300364
  72.1599010  12.8568963  40.4480043  71.3796311  16.7935606  39.0729934
  71.2407397  16.4254391  39.9455872  70.5910908  17.3083246  38.9013892
  71.9744463  21.8944703  30.4155471  72.1496219  21.4232746  31.2301093
  71.2877251  22.5210469  30.6436731  72.9301527  16.1717209  36.4618772
  72.5951359  16.1317979  37.3576422  72.4305472  15.5061925  35.9889182
  66.9045771  11.5784839  41.9871353  66.7665568  10.8465078  42.5882892
  67.8150694  11.4893739  41.7055541  75.8660718  13.5173243  26.7355832
  75.2489889  12.7920071  26.6388884  75.3977207  14.2782604  26.3922906
  69.5328071  11.2904798  41.4755033  70.2427690  10.6497991  41.4341651
  69.4897379  11.5417693  42.3981214  77.5214850  18.2272152  44.3961612
  77.4627396  17.5431372  43.7292195  77.9234368  18.9691142  43.9442238
  68.2457005   8.2770016  43.2950672  67.7094362   7.8260755  43.9472269
  67.6573714   8.4115925  42.5521137  66.5405549  25.0434066  37.1895331
  66.7802147  25.6752590  37.8674349  65.6974745  24.6922106  37.4760690
  67.6559264   7.7358668  25.8577136  66.7788730   7.6147468  25.4939383
  68.1317017   6.9444746  25.6056025  77.5232257  16.1911736  42.6275592
  76.6359036  15.8537657  42.7501991  78.0930808  15.4594767  42.8644357
  59.1761404  12.5235827  35.9518643  59.8632444  12.2097557  35.3639658
  59.0209533  13.4277192  35.6785894  63.9796126   7.4126024  40.3803667
  63.8954315   6.8051693  39.6454077  63.1578833   7.9035042  40.3813163
  71.0533411  20.8513188  39.5936835  70.9803582  21.6568159  40.1056139
  70.6110804  21.0505154  38.7684856  70.8423190  20.0884958  33.1039656
  70.0590712  20.6306638  33.1977881  71.5415935  20.6058938  33.5033898
  82.0049598  11.6019953  37.3892153  81.9939474  12.4844668  37.0186086
  81.1366977  11.2491504  37.1946690  73.5132094  20.7500022  41.7494994
  74.2260066  21.3847487  41.6770895  73.0222123  20.8463888  40.9334995
  75.2349621  14.6551275  33.3212285  74.3005900  14.7752737  33.1516990
  75.4126289  13.7523741  33.0572295  70.7354809   8.0396970  35.4745546
  70.3652597   7.4868011  36.1626452  71.2313902   7.4355104  34.9220546
  78.6222172  10.4968594  33.8562319  79.0882625  11.3296586  33.7822622
  79.0729673  10.0313576  34.5607578  68.5644008  18.4994465  42.5700564
  69.2653467  19.1330948  42.7229959  68.0939123  18.8409197  41.8096204
  76.6898403  16.8412415  30.8548471  76.9658247  16.7269010  31.7642345
  75.8202902  16.4429900  30.8160644  76.3645294  11.0539073  40.3953115
  75.7116744  11.3014980  39.7405567  76.7425673  10.2403211  40.0615592
  73.3252467  21.0898766  34.4981285  73.5074862  20.2720422  34.9609037
  74.1485453  21.3066458  34.0606175  73.6594633  20.0166951  31.7596333
  74.1882399  19.5059406  31.1466496  73.9222853  19.7009481  32.6241867
  72.4132867  11.7958884  46.8819152  71.7373504  11.6953013  47.5521527
  73.2360500  11.6398098  47.3455149  64.1611726  18.0330820  39.5031667
  64.7465163  17.2874508  39.6359571  63.9636564  18.3434777  40.3868331
  67.0150381  21.0682068  34.5194109  66.3460756  21.5528196  34.0358149
  66.8763251  21.3151288  35.4337488  58.7529380  10.6036421  38.2236110
  58.7913480  10.0700011  39.0173228  58.2469673  10.0771626  37.6047087
  71.1555649  23.1025811  41.1176768  71.7073958  23.2657433  41.8825853
  71.4961843  23.6930249  40.4456793  66.1320143   5.4500961  41.7198652
  66.1961469   6.3115792  41.3076050  66.0687263   4.8374963  40.9871011
  65.6072415   7.5224094  45.3671687  66.2344454   7.1401171  45.9809211
  64.7500334   7.3038296  45.7327379  76.0066524  17.9287069  46.9725422
  76.5506428  18.5417027  46.4780377  75.4253369  18.4866647  47.4892435
  62.3837958   9.3300523  31.2990042  62.6791399   8.4211201  31.2457095
  61.4825994   9.3088262  30.9771044  74.2924037  21.0507787  38.1040450
  74.1675176  20.2497527  37.5951395  74.9503128  21.5453980  37.6154420
  65.9132205   7.4056519  37.2817590  65.1918791   8.0192487  37.1425063
  66.7025461   7.9414284  37.2034236  76.3558945  18.8516807  39.7320000
  75.4089281  18.7322158  39.6598327  76.7041718  17.9639305  39.8146261
  68.7158519   4.7410946  43.5558242  69.2392920   4.9873242  44.3184551
  68.4970852   5.5730981  43.1361379  64.1125800   7.0114621  31.4229367
  63.7838506   6.1311999  31.2404473  64.4665170   6.9562289  32.3105756
  73.3605378  18.6469523  35.9324352  73.2130341  17.7186231  36.1131922
  74.1858872  18.6689614  35.4481428  67.2267623   7.2987590  31.7904844
  67.5663695   7.8273512  31.0683453  67.6739743   7.6367996  32.5663411
  76.9639500  19.4698082  37.0189225  77.8886048  19.2640943  36.8813676
  76.7954804  19.2214483  37.9278567  69.9211064   5.6824641  41.2407912
  69.5807884   4.8832454  41.6428592  69.2150070   5.9826352  40.6684746
  69.2135770   5.7962212  29.9898137  69.9344132   6.1743465  29.4861854
  68.5901074   6.5151089  30.0933115  73.3566893   6.5007361  30.9256470
  73.5730507   7.3831999  30.6245298  72.8760960   6.1093574  30.1962112
  68.0966114   9.4593074  37.5027214  67.9510695   9.7733377  38.3951496
  67.6191318  10.0777974  36.9498113  69.9562497   6.4495622  37.5508104
  69.9424066   5.5536715  37.2140402  70.6734925   6.4566286  38.1846390
  71.8088628   6.8832962  39.5961231  71.5506406   7.8050033  39.5945562
  71.2773668   6.4863397  40.2861695  76.7534817  19.9883749  32.3751316
  76.9271694  19.4230172  31.6225169  77.2463708  20.7884644  32.1930806
  62.5711776  11.9998419  40.4414875  62.0265244  12.7758226  40.5735150
  63.4491126  12.3469223  40.2833997  69.3599393   5.3310002  32.8195674
  69.4815304   4.4026649  33.0186561  69.0701435   5.3448688  31.9073989
  82.6074208  12.7520172  33.9941616  83.0505354  12.0027498  33.5960739
  81.7300718  12.7430309  33.6115348  77.7409989  19.3050514  29.4748215
  78.4360894  19.9257207  29.6935529  78.0833139  18.4545865  29.7500593
  63.3577798  11.1268315  43.3345032  62.6159534  11.2750950  43.9209663
  63.0370542  11.3876580  42.4711782  79.6401412  16.7550219  31.0035546
  80.1652736  17.0937492  30.2784866  79.5523765  15.8197235  30.8198680
  71.3021461  20.6684293  43.1325422  71.6108587  20.4233440  44.0048122
  72.0996943  20.8730931  42.6444292  71.3242073  22.8222203  35.3630799
  70.8847063  22.3298581  36.0563655  72.0750190  22.2795170  35.1222874
  63.8034412  19.0133743  35.3655427  64.6292432  18.7137515  34.9854070
  63.4528464  18.2441366  35.8145215  68.7715945  18.3660212  37.4353100
  68.1495954  17.7030917  37.1355328  69.4420812  18.3921344  36.7526748
  62.0043017  16.9320070  36.3244360  61.1674925  16.5042244  36.1428362
  61.9766662  17.1252513  37.2615152  68.8440473   6.8442000  47.0285606
  68.8928628   7.7204123  46.6463376  69.3862987   6.3019393  46.4557250
  79.3295318  17.3883123  46.3086743  78.5390862  17.3707262  45.7691243
  79.0928673  17.9271417  47.0635780  79.4493193  14.2375589  43.6219472
  79.4991198  14.0725597  44.5634995  79.3407117  13.3702848  43.2317353
  68.3329452  16.9164135  30.9111561  68.4817572  17.5999599  30.2578234
  69.1395895  16.8969225  31.4261017  76.7396956  10.2206517  44.9378779
  77.6406818  10.0812982  44.6462777  76.8144930  10.3860972  45.8776956
  71.0739761   7.5973372  43.7831965  70.2043070   7.8906938  43.5114554
  71.3099241   8.1813817  44.5039229  80.9511390  16.6572531  43.8661494
  80.6596198  17.0202511  44.7024955  80.3383521  15.9439539  43.6874826
  82.1507072  14.2225411  36.3864064  82.9853964  14.6615215  36.5501624
  82.2866201  13.7464064  35.5672310  79.1998578  11.7805146  42.3341552
  79.6752700  11.9732792  41.5260403  78.2764144  11.8364331  42.0884935
  66.0882085  12.9429313  31.9172630  65.8428127  12.0391643  32.1152840
  66.2577999  12.9446463  30.9752108  65.3577732   8.6757670  29.4158791
  64.6646977   8.7502025  28.7598827  65.1129484   7.9118014  29.9380308
  71.8324857  19.4112266  28.3823308  71.2598825  20.0302453  27.9293780
  72.4057651  19.9611627  28.9163230  77.9000247   8.6570906  40.5669857
  78.8517670   8.7569003  40.5882081  77.7303698   7.8649174  41.0767942
  75.0522117  19.6949416  29.5131891  75.9852790  19.6294977  29.7164766
  74.9645330  20.5305682  29.0546423  77.6810134  19.0115286  26.4735838
  77.6023765  18.6775150  27.3671596  78.5019801  19.5037054  26.4727311
  80.3788325  11.8777025  39.6812157  80.3464645  10.9393026  39.8671841
  80.9888949  11.9561062  38.9477982  72.2171656  10.7473078  25.7239361
  73.1630761  10.6179286  25.7927779  71.8385901  10.0087740  26.2008789
  86.1964875  12.9393032  38.8218194  86.9268263  12.6778320  39.3825897
  85.5871820  12.2021754  38.8620262  84.2780172  11.0800895  39.4192645
  83.5513336  10.9456860  38.8109136  83.8627459  11.3877723  40.2249363
  72.1010348  14.7990824  47.1840018  73.0213358  14.9769423  47.3780064
  72.0659932  13.8546870  47.0319717  70.4014573   8.6723055  25.6594246
  69.4946028   8.3756167  25.7356960  70.6790554   8.3752873  24.7928532
  61.3192513   9.9929418  36.1093292  60.9995298   9.1394726  35.8167666
  60.7725942  10.2077996  36.8651260  65.0972421  12.7091859  39.8262799
  65.3158431  13.6408967  39.8450833  65.5098195  12.3499833  40.6117603
  69.9700286   8.2825065  49.2165548  69.8697013   9.2319422  49.1477639
  69.7521828   7.9543304  48.3441618  69.1713358   5.5309990  25.8006225
  70.0332522   5.8564888  26.0602043  69.3563702   4.7441486  25.2879291
  61.1880773  13.6132330  38.0786414  60.4944245  13.1986282  37.5656368
  61.9353764  13.6552866  37.4819833  69.8331556  11.7122204  48.0330610
  69.3498638  12.5122564  48.2394499  69.9192495  11.7230149  47.0798054
  63.1017516  13.5450583  35.9552429  63.0788204  13.6438271  35.0034312
  63.4118153  14.3915734  36.2769595  65.7604894  15.6026738  40.0699043
  66.7148147  15.5710681  40.0028975  65.5617417  15.1417362  40.8849269
  64.1155123  21.1446358  37.0869241  63.9809591  20.3846759  36.5207239
  63.6987185  21.8687258  36.6198030  75.2514086  16.3283281  26.0945817
  75.9549936  16.5333284  26.7103472  74.5276734  16.8960043  26.3594900
  76.0811896  12.0793143  32.2148087  76.0247097  12.5361694  31.3755719
  76.6340238  11.3183827  32.0370929  84.2029040  10.6078948  35.5469498
  83.6428598  10.6772137  36.3201060  83.5972543  10.4319932  34.8268994
  67.2724249  22.0415675  37.2987684  67.1556633  22.9861107  37.1966374
  66.4516695  21.7389236  37.6873483  77.1600783  16.7665811  28.1444277
  77.9946387  16.3347009  27.9621751  76.9985126  16.5947824  29.0721171
  76.8146675  13.2697924  29.5100616  76.7595479  13.1042195  28.5689060
  76.1892731  13.9773957  29.6662806  61.6039190   8.5065988  43.3362038
  62.2498054   7.9964942  43.8249263  61.3956341   9.2434670  43.9105463
  74.1292582  15.5746836  48.8354179  74.9983742  15.7487488  48.4740814
  73.6499334  16.3941253  48.7129908  68.2978763  22.6943937  40.5143612
  69.2006009  22.7267547  40.8310107  68.0716133  21.7644388  40.5289948
  70.0532365  21.4474923  37.1753691  69.1027996  21.4476785  37.0618063
  70.3564851  20.7007658  36.6589726  65.9436681   5.6533605  47.4337052
  66.8068143   5.2970410  47.6440377  65.3702092   5.3147500  48.1212457
  85.7885058  27.2835462  38.2399453  86.4263468  27.1642209  37.5362793
  85.6705901  28.2316306  38.2987405  82.5974764  27.2362890  38.1760978
  82.2593276  27.1203955  37.2881513  83.4664533  26.8354055  38.1561984
  78.4561580  29.0898366  34.1657869  77.8926445  28.9988303  33.3974157
  78.3413975  28.2698271  34.6460361  83.0794547  28.3897742  44.1347184
  83.0683188  27.9950540  43.2627687  83.2415187  27.6563814  44.7280955
  76.0026012  30.5849558  37.0042089  76.7947304  30.2440382  36.5888389
  76.2422662  30.6944533  37.9244243  84.0361139  32.7569334  29.4772334
  83.3849119  33.3423414  29.0906348  84.8305502  33.2875529  29.5367371
  77.9616766  29.8458471  29.8759468  78.7347642  29.2987458  29.7372344
  78.3142165  30.7102720  30.0873930  79.8001809  31.1734853  43.0826368
  79.5091675  32.0780484  42.9673034  80.4358793  31.2151381  43.7970437
  80.7258015  28.5511702  39.6727727  81.3221588  28.3267724  38.9584690
  80.7832987  27.8096447  40.2753175  80.2983044  26.0051137  27.5077918
  80.5508565  25.4832658  26.7461381  79.3607603  25.8417283  27.6104602
  85.3426327  25.0086916  35.3152661  86.1289416  24.5906339  34.9643078
  85.6065031  25.9133008  35.4834310  85.5136404  30.4459766  30.0141318
  84.8782237  30.5194392  30.7262223  85.1833810  31.0353365  29.3360397
  90.7434754  24.9462149  36.2185640  91.4759926  24.3761366  36.4523469
  89.9874110  24.5583749  36.6592145  80.0179333  27.9079243  29.7102293
  79.9015591  27.2324147  30.3783377  80.1281592  27.4211617  28.8934446
  82.3610874  27.3689390  33.4148982  81.9969081  26.8420011  34.1261904
  83.2177989  26.9787859  33.2415468  88.2660174  18.6583723  40.6780248
  87.9343499  19.5279134  40.4541463  87.6705788  18.3420007  41.3574279
  82.0016361  22.3979290  28.4110331  82.1690763  23.2659526  28.7780802
  81.8113530  22.5606572  27.4871620  84.7591694  30.8596269  40.0776161
  84.4592417  31.7621308  39.9691968  84.4142753  30.5928452  40.9297314
  78.2104175  27.3110066  36.1112866  77.2854672  27.1786280  36.3190557
  78.4588588  28.0904285  36.6082808  88.1588837  23.3778809  37.7573599
  87.2505715  23.3094217  37.4632359  88.1076433  23.8550754  38.5855424
  81.9805581  24.8536947  29.3956998  81.8605207  25.2993998  30.2342478
  81.2858170  25.2022265  28.8370536  75.5712986  26.9543339  36.9456655
  75.7005367  27.2077818  37.8596066  74.8910438  27.5471047  36.6261310
  79.7412473  37.6240589  33.0447129  79.6636503  38.5748414  33.1235609
  79.1374117  37.2786462  33.7022055  82.2329703  24.7968455  45.7008496
  81.4563037  25.3562375  45.6911360  82.8720266  25.2825238  46.2223366
  90.0250484  21.5795247  39.5351472  89.3824864  21.8727781  38.8891267
  89.5205412  21.4648168  40.3404669  87.6790648  25.3258421  30.2237332
  88.5908504  25.5585807  30.0485029  87.1700295  25.9095465  29.6612410
  80.4876076  27.6053908  45.2626463  81.2290760  28.1438952  44.9861286
  79.7813061  28.2320197  45.4198015  85.9631415  29.7483048  43.8598624
  86.3714771  29.3065459  43.1153257  85.2408677  29.1735676  44.1132817
  82.3162485  24.6855655  41.2332181  83.1623680  25.1095069  41.3766830
  82.2561123  24.0289280  41.9270744  86.2860230  30.3084239  37.6150913
  85.6569092  30.4729953  36.9126981  85.8985892  30.7225849  38.3861877
  90.1649462  31.2438677  34.9695277  89.4800500  31.6237578  34.4192310
  90.2493311  31.8534004  35.7027225  85.4661931  22.3460024  42.8913355
  85.2222862  23.1002084  42.3547631  85.7421861  22.7245371  43.7260602
  87.4200393  28.8898636  41.5690620  87.6317289  29.5330396  40.8925002
  87.3730142  28.0560953  41.1012551  85.0226622  21.5016457  38.4727193
  84.1611101  21.7997710  38.7643930  85.0489057  21.7186855  37.5408225
  81.8388192  30.0458647  34.8800998  82.3026537  30.3246350  34.0905621
  81.5744990  29.1442092  34.6974089  78.7312273  29.5930129  37.8180762
  79.3013630  30.0217397  37.1798246  79.3220385  29.3112713  38.5164947
  80.7757078  26.1681800  31.6890563  81.4781121  26.6202843  32.1564490
  80.4437706  25.5265618  32.3170457  79.2237439  24.7593556  46.0641773
  78.5936100  25.4409837  46.2977170  79.1173527  24.6476638  45.1194911
  74.5182412  24.4265352  36.9907697  73.7281466  24.6822881  36.5147808
  75.0093659  25.2413690  37.0959738  88.5346221  31.7670591  39.7412978
  89.3563665  31.3650779  39.4595659  88.5308624  31.6638826  40.6929094
  76.4697157  24.7909931  33.9491174  75.6728320  24.9028626  34.4674669
  76.2422749  25.1296584  33.0832064  82.3002825  31.3154635  41.8973688
  82.3647257  31.7775042  42.7331860  81.5913749  30.6852000  42.0255998
  72.8020115  24.6795843  39.4222688  73.0528153  25.5642853  39.6880264
  73.3379663  24.5000444  38.6497780  96.6252214  28.1109340  36.0897949
  95.8715923  27.5416738  35.9341954  96.7599756  28.0772004  37.0368584
  82.0150842  32.9822742  31.7652669  81.8796517  33.8274278  32.1937516
  82.5560655  33.1842020  31.0018602  78.5018182  19.0614322  48.4267024
  78.1085128  18.5080521  49.1014668  79.3184322  19.3724900  48.8173541
  75.4680240  30.4998180  32.3380594  75.9804760  31.2941430  32.4886158
  76.1202953  29.8024471  32.2714195  77.2775124  33.6163936  34.4203347
  77.4541753  34.5381901  34.2324331  78.0731958  33.3022356  34.8497727
  81.4186143  20.4772201  46.0187280  82.1595856  21.0779354  45.9391743
  81.6504066  19.7349839  45.4605323  76.5627481  25.6628568  44.2965510
  76.4480996  24.7613826  44.5972609  75.7071999  25.9092265  43.9450327
  83.6419319  33.6046309  45.8953011  83.1983173  32.8182687  45.5773915
  84.3036532  33.7925459  45.2296901  78.4006440  35.1342110  40.4213689
  78.9513865  35.0059174  39.6490683  77.5617916  35.4336999  40.0708582
  85.7400557  33.8849109  43.9234412  85.7219032  34.7057990  43.4314681
  86.6620477  33.7603184  44.1484553  82.1973611  31.3993238  44.7657920
  82.7301948  30.6381526  44.5357228  81.6687692  31.1066890  45.5082075
  85.3643306  16.5053304  40.2951562  85.0207575  17.3954946  40.2190673
  85.7322269  16.3154962  39.4321147  73.4329157  28.8286834  33.1140164
  74.2704379  29.2383843  32.8973872  73.6107424  27.8886277  33.0840358
  85.3293589  26.4961915  28.8023997  84.8140212  27.2666520  29.0412385
  85.0570897  25.8227051  29.4257059  82.9140700  21.3411616  33.8609236
  82.0582296  20.9518466  33.6814874  83.3267651  21.4203577  33.0009021
  84.4439846  18.8757959  38.2600795  83.9404642  18.8388094  37.4468601
  84.7370453  19.7850702  38.3197452  80.6882732  18.9596689  37.2666977
  81.5535729  18.7639498  36.9072867  80.7560241  18.7307041  38.1936334
  90.3027863  29.2494270  30.7377171  89.5257306  28.9105429  30.2932333
  90.9819344  29.2546893  30.0632136  85.1179892  24.3689007  30.6283778
  84.8130027  24.6835156  31.4793922  86.0710334  24.4470427  30.6711111
  83.5626324  30.5279231  32.2776732  83.0347685  29.7931990  31.9649970
  83.0613826  31.3053907  32.0316701  88.5419170  28.7228251  37.3943779
  87.8842844  29.4127512  37.4823907  89.3459569  29.1124683  37.7377765
  78.2945051  21.1898897  34.6383344  78.8688803  20.9674078  33.9056537
  78.8816034  21.2587591  35.3911945  87.3524629  27.0772624  35.4447720
  87.8656510  27.7102616  35.9469430  88.0025852  26.4773819  35.0791080
  78.6214638  23.2203358  28.6579229  77.7851951  23.5578044  28.9788504
  78.4819408  23.0852338  27.7206366  80.5967719  18.0640146  33.3658413
  79.9432131  17.7489163  32.7415028  80.5548193  17.4415886  34.0918236
  81.7078924  28.3459441  25.2811705  80.8005986  28.1148694  25.4802854
  82.2049956  27.5497060  25.4685687  84.6147003  37.0556948  28.2008392
  83.9408702  37.3588645  28.8093349  85.0012825  37.8586028  27.8513849
  83.8305459  24.5522079  37.6906061  82.9128021  24.7737026  37.5327749
  84.2465603  24.6268390  36.8317768  84.6140507  25.9513495  32.8208741
  85.3612326  26.4634892  32.5115863  84.8832097  25.6297548  33.6813135
  82.8867157  28.4472036  29.8035695  81.9778377  28.1631069  29.9008165
  82.9162241  28.8671114  28.9439002  88.1186425  32.0578625  33.5726863
  87.6648752  31.2169535  33.6292054  87.4880391  32.6940024  33.9101643
  87.0619344  22.9870611  34.8027530  86.3242101  22.4747997  35.1337773
  87.3146118  22.5470993  33.9910807  86.5619364  33.8955122  34.5076681
  86.8542338  34.4560179  33.7889047  87.0717985  34.1883683  35.2629840
  87.1630972  15.7646863  35.3969300  87.4689848  14.9044227  35.1095215
  87.8883576  16.3564483  35.1968294  73.4555328  26.1677550  33.7850898
  73.2579728  25.5746911  33.0601964  72.9001992  25.8629760  34.5026836
  81.4352051  26.0600656  35.9045491  81.4900661  25.1074493  35.8287967
  80.6243253  26.2160095  36.3886789  82.5843245  29.9880779  27.1423774
  82.1462675  29.2716638  26.6829411  83.3253686  30.2156894  26.5808865
  79.3744411  24.6777716  33.6635870  78.5612277  24.9771887  34.0701062
  79.8703405  24.2833405  34.3810352  81.5252989  34.6735473  35.5970134
  81.4829168  34.8996319  34.6678666  82.4415688  34.4398848  35.7455936
  84.9718623  25.1419541  42.4950764  85.3268011  25.3691014  43.3545229
  85.6190754  25.4737917  41.8728019  90.7016360  28.2637976  33.2000093
  90.5634258  28.4539572  32.2721282  90.3452579  29.0257359  33.6568144
  78.8658486  22.2496072  39.2797105  79.5057865  22.1084831  38.5820068
  78.0336017  21.9630585  38.9035707  90.7285740  30.3314503  38.2111364
  91.1622246  30.2389792  39.0594418  91.4417320  30.3072004  37.5731380
  79.6418790  31.5498502  35.3932097  80.4359388  31.0548822  35.1914672
  78.9310482  31.0216365  35.0299803  84.4613634  33.9316598  39.7444465
  84.5150657  34.5007534  40.5122181  83.5928416  34.1018483  39.3798502
  75.9501553  25.6941584  31.4691850  75.0199142  25.6326039  31.6861812
  76.0459025  25.1717536  30.6728491  75.8687102  22.2196397  34.0570091
  76.1293920  23.1341730  33.9479252  76.6904275  21.7520839  34.2066704
  77.3412028  23.6334154  41.2268916  78.0135081  23.4251516  40.5781565
  76.5141814  23.4356240  40.7874148  91.5901289  30.3738204  40.7444250
  91.7837179  31.2784015  40.9903524  91.4901907  29.9145623  41.5782835
  83.2437600  20.2596095  43.2434577  82.5965515  20.9586044  43.1499053
  84.0138615  20.6932239  43.6110825  86.6516398  30.5244947  46.3185130
  86.5001904  30.2955498  45.4015214  86.6421077  31.4815548  46.3316475
  83.4201734  28.0976860  41.3031397  84.3493794  28.2488019  41.1300364
  82.9992764  28.1860880  40.4480043  82.2190066  32.1227524  39.0729934
  82.0801152  31.7546308  39.9455872  81.4304662  32.6375163  38.9013892
  82.8138218  37.2236620  30.4155471  82.9889974  36.7524664  31.2301093
  82.1271006  37.8502387  30.6436731  83.7695281  31.5009127  36.4618772
  83.4345114  31.4609897  37.3576422  83.2699227  30.8353843  35.9889182
  77.7439525  26.9076757  41.9871353  77.6059323  26.1756996  42.5882892
  78.6544449  26.8185657  41.7055541  86.7054473  28.8465161  26.7355832
  86.0883643  28.1211989  26.6388884  86.2370961  29.6074521  26.3922906
  80.3721826  26.6196716  41.4755033  81.0821444  25.9789908  41.4341651
  80.3291134  26.8709611  42.3981214  88.3608604  33.5564069  44.3961612
  88.3021151  32.8723289  43.7292195  88.7628123  34.2983059  43.9442238
  79.0850760  23.6061934  43.2950672  78.5488117  23.1552672  43.9472269
  78.4967468  23.7407843  42.5521137  78.4953019  23.0650585  25.8577136
  77.6182485  22.9439386  25.4939383  78.9710772  22.2736664  25.6056025
  88.3626012  31.5203653  42.6275592  87.4752790  31.1829575  42.7501991
  88.9324563  30.7886685  42.8644357  70.0155159  27.8527745  35.9518643
  70.7026199  27.5389475  35.3639658  69.8603287  28.7569110  35.6785894
  74.8189881  22.7417942  40.3803667  74.7348070  22.1343611  39.6454077
  73.9972587  23.2326960  40.3813163  81.8927165  36.1805106  39.5936835
  81.8197337  36.9860077  40.1056139  81.4504558  36.3797071  38.7684856
  81.6816945  35.4176876  33.1039656  80.8984467  35.9598556  33.1977881
  82.3809690  35.9350855  33.5033898  84.9913595  21.2271505  35.7473862
  85.4882294  20.4741467  35.4274932  84.2200576  21.2635822  35.1817071
  92.8443352  26.9311871  37.3892153  92.8333228  27.8136586  37.0186086
  91.9760732  26.5783421  37.1946690  84.3525849  36.0791940  41.7494994
  85.0653821  36.7139404  41.6770895  83.8615877  36.1755806  40.9334995
  86.0743375  29.9843192  33.3212285  85.1399654  30.1044655  33.1516990
  86.2520044  29.0815659  33.0572295  81.5748564  23.3688888  35.4745546
  81.2046351  22.8159928  36.1626452  82.0707656  22.7647022  34.9220546
  89.4615927  25.8260512  33.8562319  89.9276379  26.6588503  33.7822622
  89.9123427  25.3605493  34.5607578  79.4037762  33.8286383  42.5700564
  80.1047222  34.4622866  42.7229959  78.9332877  34.1701115  41.8096204
  87.5292158  32.1704333  30.8548471  87.8052002  32.0560928  31.7642345
  86.6596657  31.7721818  30.8160644  87.4332590  18.1941099  37.8953221
  86.5195669  18.4245325  38.0635428  87.8625691  18.2779543  38.7467253
  87.2039048  26.3830991  40.3953115  86.5510498  26.6306898  39.7405567
  87.5819428  25.5695129  40.0615592  84.1646222  36.4190684  34.4981285
  84.3468616  35.6012340  34.9609037  84.9879208  36.6358376  34.0606175
  84.4988387  35.3458869  31.7596333  85.0276154  34.8351323  31.1466496
  84.7616607  35.0301399  32.6241867  83.2526621  27.1250802  46.8819152
  82.5767258  27.0244931  47.5521527  84.0754255  26.9690015  47.3455149
  75.0005480  33.3622738  39.5031667  75.5858917  32.6166426  39.6359571
  74.8030319  33.6726695  40.3868331  77.8544135  36.3973986  34.5194109
  77.1854511  36.8820113  34.0358149  77.7157005  36.6443206  35.4337488
  69.5923135  25.9328338  38.2236110  69.6307234  25.3991929  39.0173228
  69.0863428  25.4063544  37.6047087  81.9949404  38.4317729  41.1176768
  82.5467712  38.5949351  41.8825853  82.3355597  39.0222167  40.4456793
  76.9713897  20.7792879  41.7198652  77.0355224  21.6407710  41.3076050
  76.9081017  20.1666881  40.9871011  76.4466170  22.8516011  45.3671687
  77.0738209  22.4693089  45.9809211  75.5894089  22.6330213  45.7327379
  86.8460278  33.2578987  46.9725422  87.3900182  33.8708945  46.4780377
  86.2647123  33.8158565  47.4892435  73.2231712  24.6592441  31.2990042
  73.5185154  23.7503119  31.2457095  72.3219748  24.6380180  30.9771044
  85.1317791  36.3799705  38.1040450  85.0068931  35.5789444  37.5951395
  85.7896882  36.8745898  37.6154420  76.7525959  22.7348437  37.2817590
  76.0312545  23.3484405  37.1425063  77.5419215  23.2706202  37.2034236
  87.1952700  34.1808725  39.7320000  86.2483035  34.0614076  39.6598327
  87.5435473  33.2931223  39.8146261  79.5552273  20.0702864  43.5558242
  80.0786675  20.3165160  44.3184551  79.3364606  20.9022898  43.1361379
  74.9519554  22.3406538  31.4229367  74.6232260  21.4603917  31.2404473
  75.3058925  22.2854207  32.3105756  84.1999133  33.9761441  35.9324352
  84.0524095  33.0478148  36.1131922  85.0252626  33.9981532  35.4481428
  78.0661377  22.6279508  31.7904844  78.4057450  23.1565429  31.0683453
  78.5133498  22.9659914  32.5663411  87.8033255  34.7990000  37.0189225
  88.7279802  34.5932861  36.8813676  87.6348558  34.5506401  37.9278567
  80.7604818  21.0116559  41.2407912  80.4201638  20.2124372  41.6428592
  80.0543824  21.3118270  40.6684746  81.4121290  18.0965871  39.6935235
  82.2347359  17.6226349  39.5714126  81.6559353  18.8756355  40.1933922
  80.0529524  21.1254130  29.9898137  80.7737887  21.5035382  29.4861854
  79.4294829  21.8443006  30.0933115  84.1960647  21.8299279  30.9256470
  84.4124262  22.7123916  30.6245298  83.7154714  21.4385492  30.1962112
  78.9359869  24.7884992  37.5027214  78.7904449  25.1025295  38.3951496
  78.4585072  25.4069892  36.9498113  80.7956252  21.7787540  37.5508104
  80.7817820  20.8828633  37.2140402  81.5128680  21.7858204  38.1846390
  82.6482382  22.2124880  39.5961231  82.3900160  23.1341951  39.5945562
  82.1167423  21.8155315  40.2861695  87.5928571  35.3175667  32.3751316
  87.7665449  34.7522090  31.6225169  88.0857462  36.1176562  32.1930806
  73.4105531  27.3290336  40.4414875  72.8658999  28.1050144  40.5735150
  74.2884881  27.6761141  40.2833997  80.1993147  20.6601920  32.8195674
  80.3209059  19.7318566  33.0186561  79.9095190  20.6740606  31.9073989
  83.0684338  18.3456830  35.9562394  83.0906035  18.4096164  35.0014373
  83.4852397  17.5061339  36.1502900  93.4467962  28.0812090  33.9941616
  93.8899108  27.3319415  33.5960739  92.5694472  28.0722226  33.6115348
  88.5803743  34.6342432  29.4748215  89.2754648  35.2549124  29.6935529
  88.9226894  33.7837783  29.7500593  74.1971553  26.4560232  43.3345032
  73.4553289  26.6042868  43.9209663  73.8764297  26.7168498  42.4711782
  90.4795167  32.0842137  31.0035546  91.0046491  32.4229410  30.2784866
  90.3917519  31.1489152  30.8198680  82.1415215  35.9976211  43.1325422
  82.4502342  35.7525357  44.0048122  82.9390697  36.2022849  42.6444292
  82.1635827  38.1514120  35.3630799  81.7240818  37.6590499  36.0563655
  82.9143944  37.6087088  35.1222874  74.6428166  34.3425661  35.3655427
  75.4686186  34.0429433  34.9854070  74.2922218  33.5733284  35.8145215
  79.6109700  33.6952129  37.4353100  78.9889709  33.0322834  37.1355328
  80.2814566  33.7213261  36.7526748  72.8436771  32.2611988  36.3244360
  72.0068680  31.8334162  36.1428362  72.8160417  32.4544431  37.2615152
  79.6834227  22.1733917  47.0285606  79.7322382  23.0496040  46.6463376
  80.2256741  21.6311310  46.4557250  90.1689073  32.7175041  46.3086743
  89.3784616  32.6999180  45.7691243  89.9322427  33.2563334  47.0635780
  90.2886948  29.5667507  43.6219472  90.3384953  29.4017514  44.5634995
  90.1800871  28.6994766  43.2317353  79.1723206  32.2456053  30.9111561
  79.3211327  32.9291517  30.2578234  79.9789650  32.2261143  31.4261017
  87.5790710  25.5498435  44.9378779  88.4800573  25.4104900  44.6462777
  87.6538685  25.7152890  45.8776956  81.9133515  22.9265290  43.7831965
  81.0436825  23.2198856  43.5114554  82.1492996  23.5105735  44.5039229
  91.7905145  31.9864449  43.8661494  91.4989953  32.3494429  44.7024955
  91.1777276  31.2731457  43.6874826  92.9900827  29.5517328  36.3864064
  93.8247718  29.9907132  36.5501624  93.1259956  29.0755982  35.5672310
  90.0392333  27.1097063  42.3341552  90.5146454  27.3024710  41.5260403
  89.1157898  27.1656249  42.0884935  76.9275839  28.2721230  31.9172630
  76.6821881  27.3683560  32.1152840  77.0971754  28.2738381  30.9752108
  84.6172549  19.1444907  41.2997385  85.1354493  19.8805934  40.9743874
  84.2627682  19.4508900  42.1344145  76.1971487  24.0049588  29.4158791
  75.5040732  24.0793943  28.7598827  75.9523239  23.2409932  29.9380308
  84.8685143  15.5645189  36.8198282  85.1486897  14.8968378  37.4458709
  85.6535750  15.7574285  36.3072946  82.6718612  34.7404183  28.3823308
  82.0992579  35.3594370  27.9293780  83.2451406  35.2903545  28.9163230
  88.7394002  23.9862823  40.5669857  89.6911425  24.0860921  40.5882081
  88.5697452  23.1941092  41.0767942  86.7608381  21.0718406  40.7529258
  86.1658313  21.3523419  40.0575747  86.4758078  21.5612307  41.5245999
  85.8915872  35.0241333  29.5131891  86.8246545  34.9586895  29.7164766
  85.8039085  35.8597600  29.0546423  88.5203888  34.3407204  26.4735838
  88.4417520  34.0067067  27.3671596  89.3413555  34.8328972  26.4727311
  91.2182080  27.2068943  39.6812157  91.1858400  26.2684944  39.8671841
  91.8282703  27.2852980  38.9477982  83.0565410  26.0764996  25.7239361
  84.0024515  25.9471204  25.7927779  82.6779655  25.3379658  26.2008789
  91.3676568  23.9979986  39.7270440  90.8515617  23.2138443  39.5400369
  92.2516517  23.6698703  39.8916959  89.0287295  17.7421002  35.6866253
  88.8312116  17.4336090  36.5709585  89.6387001  18.4682641  35.8164183
  97.0358629  28.2684950  38.8218194  97.7662018  28.0070238  39.3825897
  96.4265575  27.5313672  38.8620262  95.1173927  26.4092812  39.4192645
  94.3907090  26.2748777  38.8109136  94.7021213  26.7169641  40.2249363
  82.9404103  30.1282742  47.1840018  83.8607112  30.3061341  47.3780064
  82.9053686  29.1838787  47.0319717  81.2408328  24.0014972  25.6594246
  80.3339783  23.7048085  25.7356960  81.5184309  23.7044790  24.7928532
  72.1586268  25.3221336  36.1093292  71.8389052  24.4686644  35.8167666
  71.6119696  25.5369914  36.8651260  75.9366176  28.0383777  39.8262799
  76.1552185  28.9700885  39.8450833  76.3491949  27.6791751  40.6117603
  82.8570393  18.5451862  31.8138487  82.0471122  18.1998947  32.1893733
  83.5454810  18.2359406  32.4026099  84.7860942  17.6229909  33.4362784
  85.3391980  18.0425362  34.0952807  85.0231028  16.6965657  33.4785740
  80.8094041  23.6116982  49.2165548  80.7090768  24.5611339  49.1477639
  80.5915583  23.2835221  48.3441618  80.0107112  20.8601908  25.8006225
  80.8726276  21.1856806  26.0602043  80.1957456  20.0733403  25.2879291
  72.0274528  28.9424247  38.0786414  71.3337999  28.5278200  37.5656368
  72.7747519  28.9844784  37.4819833  88.1639749  19.7330434  32.9441448
  87.5838418  20.3915238  32.5619501  87.8975681  18.9107779  32.5328866
  86.6143315  19.1335492  35.1462769  87.1143093  19.2452026  34.3377087
  87.2578923  18.8296545  35.7863577  80.6725311  27.0414121  48.0330610
  80.1892393  27.8414481  48.2394499  80.7586250  27.0522066  47.0798054
  73.9411270  28.8742501  35.9552429  73.9181959  28.9730188  35.0034312
  74.2511907  29.7207652  36.2769595  76.5998648  30.9318656  40.0699043
  77.5541902  30.9002598  40.0028975  76.4011172  30.4709280  40.8849269
  77.1898031  29.5019772  42.6369841  78.0090919  29.9963851  42.6604678
  77.4634838  28.5851740  42.6087409  86.9464627  21.8930524  31.9997797
  86.0590482  22.1780175  31.7817991  87.3618616  21.7324288  31.1525073
  90.2979163  21.9177045  35.7152136  91.0739553  22.4073498  35.9876753
  89.5727297  22.3435100  36.1724005  92.7351721  22.6304665  36.7726076
  93.3296212  22.3900401  36.0619385  92.8078305  21.9111795  37.3999613
  74.9548877  36.4738276  37.0869241  74.8203345  35.7138676  36.5207239
  74.5380939  37.1979175  36.6198030  86.0907840  31.6575199  26.0945817
  86.7943690  31.8625202  26.7103472  85.3670489  32.2251961  26.3594900
  86.9205650  27.4085060  32.2148087  86.8640852  27.8653612  31.3755719
  87.4733993  26.6475745  32.0370929  90.7310456  23.1974792  33.0398206
  90.4747391  22.7971428  33.8706414  90.1063324  23.9118586  32.9148345
  95.0422794  25.9370865  35.5469498  94.4822352  26.0064055  36.3201060
  94.4366298  25.7611850  34.8268994  78.1118003  37.3707593  37.2987684
  77.9950387  38.3153025  37.1966374  77.2910449  37.0681154  37.6873483
  87.9994538  32.0957728  28.1444277  88.8340142  31.6638927  27.9621751
  87.8378880  31.9239742  29.0721171  87.6540430  28.5989842  29.5100616
  87.5989234  28.4334113  28.5689060  87.0286485  29.3065874  29.6662806
  72.4432945  23.8357906  43.3362038  73.0891808  23.3256860  43.8249263
  72.2350096  24.5726588  43.9105463  84.9686337  30.9038753  48.8354179
  85.8377497  31.0779406  48.4740814  84.4893088  31.7233170  48.7129908
  80.9636555  18.0997951  29.0885934  80.9515225  19.0439790  29.2454205
  81.8559977  17.9168096  28.7945395  79.1372517  38.0235854  40.5143612
  80.0399764  38.0559465  40.8310107  78.9109887  37.0936305  40.5289948
  80.8926119  36.7766841  37.1753691  79.9421750  36.7768703  37.0618063
  81.1958605  36.0299576  36.6589726  84.7788675  14.6940727  33.3431871
  84.0121070  14.1399214  33.4888553  85.1899380  14.7662596  34.2046023
  76.7830436  20.9825523  47.4337052  77.6461897  20.6262328  47.6440377
  76.2095846  20.6439418  48.1212457  96.6278813  42.6127379  38.2399453
  97.2657223  42.4934127  37.5362793  96.5099656  43.5608223  38.2987405
  93.4368519  42.5654807  38.1760978  93.0987030  42.4495872  37.2881513
  94.3058287  42.1645973  38.1561984  89.2955335  44.4190284  34.1657869
  88.7320200  44.3280221  33.3974157  89.1807730  43.5990188  34.6460361
  93.9188302  43.7189659  44.1347184  93.9076943  43.3242457  43.2627687
  94.0808941  42.9855732  44.7280955  86.8419767  45.9141475  37.0042089
  87.6341059  45.5732300  36.5888389  87.0816417  46.0236451  37.9244243
  94.8754893  48.0861252  29.4772334  94.2242873  48.6715332  29.0906348
  95.6699256  48.6167447  29.5367371  88.8010521  45.1750389  29.8759468
  89.5741397  44.6279376  29.7372344  89.1535919  46.0394638  30.0873930
  90.6395563  46.5026771  43.0826368  90.3485429  47.4072402  42.9673034
  91.2752547  46.5443299  43.7970437  91.5651770  43.8803620  39.6727727
  92.1615342  43.6559642  38.9584690  91.6226741  43.1388365  40.2753175
  91.1376798  41.3343055  27.5077918  91.3902319  40.8124576  26.7461381
  90.2001357  41.1709200  27.6104602  96.1820081  40.3378833  35.3152661
  96.9683170  39.9198256  34.9643078  96.4458785  41.2424925  35.4834310
  96.3530159  45.7751684  30.0141318  95.7175991  45.8486310  30.7262223
  96.0227565  46.3645282  29.3360397  90.8573087  43.2371161  29.7102293
  90.7409345  42.5616064  30.3783377  90.9675347  42.7503535  28.8934446
  93.2004628  42.6981308  33.4148982  92.8362835  42.1711929  34.1261904
  94.0571744  42.3079777  33.2415468  99.1053929  33.9875641  40.6780248
  98.7737253  34.8571051  40.4541463  98.5099542  33.6711925  41.3574279
  92.8410115  37.7271208  28.4110331  93.0084517  38.5951444  28.7780802
  92.6507284  37.8898489  27.4871620  95.5985448  46.1888187  40.0776161
  95.2986171  47.0913225  39.9691968  95.2536508  45.9220370  40.9297314
  89.0497930  42.6401983  36.1112866  88.1248426  42.5078197  36.3190557
  89.2982343  43.4196203  36.6082808  98.9982592  38.7070727  37.7573599
  98.0899469  38.6386135  37.4632359  98.9470188  39.1842672  38.5855424
  92.8199336  40.1828865  29.3956998  92.6998961  40.6285916  30.2342478
  92.1251924  40.5314183  28.8370536  86.4106741  42.2835257  36.9456655
  86.5399122  42.5369736  37.8596066  85.7304192  42.8762965  36.6261310
  90.5806228  52.9532507  33.0447129  90.5030258  53.9040332  33.1235609
  89.9767872  52.6078379  33.7022055  93.0723458  40.1260372  45.7008496
  92.2956792  40.6854292  45.6911360  93.7114021  40.6117155  46.2223366
  98.5184402  40.6550338  30.2237332  99.4302258  40.8877725  30.0485029
  98.0094049  41.2387383  29.6612410  91.3269830  42.9345826  45.2626463
  92.0684514  43.4730870  44.9861286  90.6206816  43.5612114  45.4198015
  96.8025170  45.0774966  43.8598624  97.2108526  44.6357377  43.1153257
  96.0802431  44.5027594  44.1132817  93.1556240  40.0147573  41.2332181
  94.0017435  40.4386986  41.3766830  93.0954877  39.3581197  41.9270744
  97.1253984  45.6376157  37.6150913  96.4962847  45.8021871  36.9126981
  96.7379646  46.0517766  38.3861877  96.3055685  37.6751941  42.8913355
  96.0616617  38.4294002  42.3547631  96.5815616  38.0537289  43.7260602
  98.2594148  44.2190554  41.5690620  98.4711043  44.8622314  40.8925002
  98.2123896  43.3852870  41.1012551  95.8620377  36.8308374  38.4727193
  95.0004856  37.1289628  38.7643930  95.8882811  37.0478773  37.5408225
  92.6781946  45.3750565  34.8800998  93.1420292  45.6538268  34.0905621
  92.4138744  44.4734009  34.6974089  89.5706027  44.9222046  37.8180762
  90.1407384  45.3509315  37.1798246  90.1614139  44.6404631  38.5164947
  91.6150832  41.4973717  31.6890563  92.3174876  41.9494761  32.1564490
  91.2831461  40.8557536  32.3170457  90.0631194  40.0885474  46.0641773
  89.4329854  40.7701755  46.2977170  89.9567282  39.9768555  45.1194911
  85.3576166  39.7557270  36.9907697  84.5675220  40.0114798  36.5147808
  85.8487414  40.5705608  37.0959738  87.3090912  40.1201849  33.9491174
  86.5122075  40.2320543  34.4674669  87.0816504  40.4588501  33.0832064
  93.1396579  46.6446552  41.8973688  93.2041012  47.1066960  42.7331860
  92.4307503  46.0143917  42.0255998  83.6413869  40.0087760  39.4222688
  83.8921908  40.8934770  39.6880264  84.1773418  39.8292362  38.6497780
  92.8544597  48.3114660  31.7652669  92.7190272  49.1566196  32.1937516
  93.3954409  48.5133937  31.0018602  89.3411937  34.3906240  48.4267024
  88.9478882  33.8372438  49.1014668  90.1578077  34.7016818  48.8173541
  86.3073994  45.8290098  32.3380594  86.8198515  46.6233348  32.4886158
  86.9596707  45.1316388  32.2714195  88.1168879  48.9455854  34.4203347
  88.2935507  49.8673819  34.2324331  88.9125713  48.6314273  34.8497727
  92.2579898  35.8064119  46.0187280  92.9989611  36.4071272  45.9391743
  92.4897820  35.0641757  45.4605323  87.4021236  40.9920486  44.2965510
  87.2874751  40.0905743  44.5972609  86.5465753  41.2384183  43.9450327
  94.4813073  48.9338226  45.8953011  94.0376927  48.1474605  45.5773915
  95.1430287  49.1217377  45.2296901  89.2400194  50.4634028  40.4213689
  89.7907620  50.3351091  39.6490683  88.4011670  50.7628917  40.0708582
  96.5794311  49.2141026  43.9234412  96.5612787  50.0349907  43.4314681
  97.5014231  49.0895101  44.1484553  93.0367365  46.7285156  44.7657920
  93.5695702  45.9673444  44.5357228  92.5081447  46.4358808  45.5082075
  96.2037060  31.8345222  40.2951562  95.8601330  32.7246863  40.2190673
  96.5716023  31.6446879  39.4321147  84.2722911  44.1578752  33.1140164
  85.1098133  44.5675761  32.8973872  84.4501179  43.2178194  33.0840358
  96.1687343  41.8253833  28.8023997  95.6533967  42.5958437  29.0412385
  95.8964652  41.1518969  29.4257059  93.7534454  36.6703534  33.8609236
  92.8976051  36.2810384  33.6814874  94.1661406  36.7495494  33.0009021
  95.2833601  34.2049877  38.2600795  94.7798396  34.1680012  37.4468601
  95.5764208  35.1142620  38.3197452  91.5276487  34.2888607  37.2666977
  92.3929484  34.0931415  36.9072867  91.5953996  34.0598958  38.1936334
  95.9573646  39.6980925  30.6283778  95.6523782  40.0127074  31.4793922
  96.9104088  39.7762345  30.6711111  94.4020078  45.8571148  32.2776732
  93.8741440  45.1223908  31.9649970  93.9007581  46.6345825  32.0316701
  89.1338806  36.5190815  34.6383344  89.7082558  36.2965996  33.9056537
  89.7209788  36.5879509  35.3911945  98.1918383  42.4064541  35.4447720
  98.7050265  43.0394533  35.9469430  98.8419607  41.8065737  35.0791080
  89.4608393  38.5495276  28.6579229  88.6245705  38.8869962  28.9788504
  89.3213163  38.4144255  27.7206366  91.4361474  33.3932063  33.3658413
  90.7825886  33.0781081  32.7415028  91.3941948  32.7707804  34.0918236
  92.5472678  43.6751358  25.2811705  91.6399740  43.4440612  25.4802854
  93.0443710  42.8788978  25.4685687  95.4540757  52.3848866  28.2008392
  94.7802456  52.6880562  28.8093349  95.8406579  53.1877946  27.8513849
  94.6699214  39.8813997  37.6906061  93.7521775  40.1028944  37.5327749
  95.0859358  39.9560307  36.8317768  95.4534262  41.2805413  32.8208741
  96.2006081  41.7926810  32.5115863  95.7225851  40.9589465  33.6813135
  93.7260912  43.7763953  29.8035695  92.8172131  43.4922986  29.9008165
  93.7555996  44.1963032  28.9439002  98.9580179  47.3870543  33.5726863
  98.5042506  46.5461453  33.6292054  98.3274146  48.0231941  33.9101643
  97.9013099  38.3162529  34.8027530  97.1635856  37.8039915  35.1337773
  98.1539872  37.8762910  33.9910807  97.4013118  49.2247040  34.5076681
  97.6936093  49.7852097  33.7889047  97.9111739  49.5175601  35.2629840
  98.0024726  31.0938781  35.3969300  98.3083603  30.2336144  35.1095215
  98.7277331  31.6856401  35.1968294  84.2949082  41.4969467  33.7850898
  84.0973482  40.9038828  33.0601964  83.7395746  41.1921678  34.5026836
  92.2745806  41.3892574  35.9045491  92.3294416  40.4366410  35.8287967
  91.4637008  41.5452013  36.3886789  93.4237000  45.3172697  27.1423774
  92.9856430  44.6008556  26.6829411  94.1647440  45.5448812  26.5808865
  90.2138166  40.0069634  33.6635870  89.4006031  40.3063804  34.0701062
  90.7097160  39.6125322  34.3810352  92.3646744  50.0027391  35.5970134
  92.3222922  50.2288237  34.6678666  93.2809443  49.7690765  35.7455936
  95.8112377  40.4711458  42.4950764  96.1661765  40.6982931  43.3545229
  96.4584509  40.8029835  41.8728019  89.7052241  37.5787989  39.2797105
  90.3451620  37.4376748  38.5820068  88.8729771  37.2922503  38.9035707
  90.4812544  46.8790420  35.3932097  91.2753143  46.3840740  35.1914672
  89.7704237  46.3508283  35.0299803  95.3007389  49.2608515  39.7444465
  95.3544411  49.8299452  40.5122181  94.4322170  49.4310400  39.3798502
  86.7895308  41.0233501  31.4691850  85.8592896  40.9617957  31.6861812
  86.8852780  40.5009454  30.6728491  86.7080857  37.5488314  34.0570091
  86.9687674  38.4633647  33.9479252  87.5298029  37.0812757  34.2066704
  88.1805782  38.9626071  41.2268916  88.8528836  38.7543434  40.5781565
  87.3535569  38.7648157  40.7874148  94.0831354  35.5888012  43.2434577
  93.4359269  36.2877962  43.1499053  94.8532370  36.0224156  43.6110825
  97.4910152  45.8536864  46.3185130  97.3395659  45.6247416  45.4015214
  97.4814832  46.8107466  46.3316475  94.2595489  43.4268777  41.3031397
  95.1887549  43.5779937  41.1300364  93.8386519  43.5152798  40.4480043
  93.0583820  47.4519442  39.0729934  92.9194906  47.0838226  39.9455872
  92.2698417  47.9667081  38.9013892  93.6531972  52.5528538  30.4155471
  93.8283728  52.0816581  31.2301093  92.9664760  53.1794304  30.6436731
  94.6089036  46.8301044  36.4618772  94.2738868  46.7901814  37.3576422
  94.1092981  46.1645760  35.9889182  88.5833280  42.2368674  41.9871353
  88.4453077  41.5048913  42.5882892  89.4938203  42.1477574  41.7055541
  97.5448227  44.1757079  26.7355832  96.9277398  43.4503907  26.6388884
  97.0764716  44.9366439  26.3922906  91.2115580  41.9488634  41.4755033
  91.9215199  41.3081826  41.4341651  91.1684888  42.2001529  42.3981214
  99.2002359  48.8855987  44.3961612  99.1414905  48.2015207  43.7292195
  99.6021877  49.6274977  43.9442238  89.9244514  38.9353852  43.2950672
  89.3881871  38.4844590  43.9472269  89.3361223  39.0699760  42.5521137
  88.2193058  55.7017901  37.1895331  88.4589656  56.3336425  37.8674349
  87.3762254  55.3505941  37.4760690  89.3346773  38.3942503  25.8577136
  88.4576239  38.2731304  25.4939383  89.8104526  37.6028581  25.6056025
  99.2019766  46.8495571  42.6275592  98.3146545  46.5121493  42.7501991
  99.7718317  46.1178602  42.8644357  85.6583635  38.0709859  40.3803667
  85.5741824  37.4635529  39.6454077  84.8366342  38.5618878  40.3813163
  92.7320920  51.5097023  39.5936835  92.6591091  52.3151995  40.1056139
  92.2898313  51.7088989  38.7684856  92.5210699  50.7468793  33.1039656
  91.7378221  51.2890474  33.1977881  93.2203444  51.2642773  33.5033898
  95.8307349  36.5563423  35.7473862  96.3276049  35.8033385  35.4274932
  95.0594331  36.5927739  35.1817071  95.1919603  51.4083857  41.7494994
  95.9047575  52.0431322  41.6770895  94.7009632  51.5047723  40.9334995
  96.9137130  45.3135110  33.3212285  95.9793409  45.4336572  33.1516990
  97.0913798  44.4107577  33.0572295  92.4142318  38.6980806  35.4745546
  92.0440106  38.1451846  36.1626452  92.9101410  38.0938939  34.9220546
  90.2431517  49.1578301  42.5700564  90.9440976  49.7914784  42.7229959
  89.7726632  49.4993032  41.8096204  98.3685912  47.4996251  30.8548471
  98.6445756  47.3852845  31.7642345  97.4990411  47.1013735  30.8160644
  98.2726344  33.5233016  37.8953221  97.3589424  33.7537243  38.0635428
  98.7019446  33.6071460  38.7467253  98.0432803  41.7122908  40.3953115
  97.3904253  41.9598816  39.7405567  98.4213182  40.8987046  40.0615592
  95.0039976  51.7482601  34.4981285  95.1862371  50.9304257  34.9609037
  95.8272962  51.9650294  34.0606175  95.3382142  50.6750787  31.7596333
  95.8669908  50.1643241  31.1466496  95.6010362  50.3593317  32.6241867
  94.0920376  42.4542719  46.8819152  93.4161013  42.3536849  47.5521527
  94.9148009  42.2981933  47.3455149  85.8399235  48.6914656  39.5031667
  86.4252671  47.9458344  39.6359571  85.6424073  49.0018613  40.3868331
  88.6937890  51.7265903  34.5194109  88.0248265  52.2112031  34.0358149
  88.5550760  51.9735124  35.4337488  92.8343158  53.7609647  41.1176768
  93.3861467  53.9241268  41.8825853  93.1749352  54.3514085  40.4456793
  87.8107652  36.1084797  41.7198652  87.8748978  36.9699627  41.3076050
  87.7474772  35.4958798  40.9871011  87.2859924  38.1807929  45.3671687
  87.9131963  37.7985006  45.9809211  86.4287843  37.9622131  45.7327379
  97.6854033  48.5870904  46.9725422  98.2293937  49.2000863  46.4780377
  97.1040878  49.1450483  47.4892435  84.0625467  39.9884358  31.2990042
  84.3578908  39.0795037  31.2457095  83.1613503  39.9672098  30.9771044
  87.5919714  38.0640355  37.2817590  86.8706300  38.6776323  37.1425063
  88.3812970  38.5998120  37.2034236  98.0346454  49.5100642  39.7320000
  97.0876790  49.3905994  39.6598327  98.3829227  48.6223140  39.8146261
  90.3946028  35.3994781  43.5558242  90.9180429  35.6457078  44.3184551
  90.1758361  36.2314816  43.1361379  85.7913309  37.6698456  31.4229367
  85.4626015  36.7895835  31.2404473  86.1452679  37.6146125  32.3105756
  95.0392887  49.3053359  35.9324352  94.8917850  48.3770066  36.1131922
  95.8646381  49.3273449  35.4481428  88.9055132  37.9571426  31.7904844
  89.2451204  38.4857347  31.0683453  89.3527252  38.2951832  32.5663411
  98.6427009  50.1281917  37.0189225  99.5673557  49.9224779  36.8813676
  98.4742313  49.8798318  37.9278567  91.5998573  36.3408476  41.2407912
  91.2595393  35.5416289  41.6428592  90.8937579  36.6410187  40.6684746
  92.2515044  33.4257789  39.6935235  93.0741114  32.9518267  39.5714126
  92.4953108  34.2048273  40.1933922  90.8923279  36.4546047  29.9898137
  91.6131641  36.8327300  29.4861854  90.2688583  37.1734924  30.0933115
  95.0354402  37.1591196  30.9256470  95.2518016  38.0415834  30.6245298
  94.5548469  36.7677410  30.1962112  89.7753623  40.1176909  37.5027214
  89.6298204  40.4317213  38.3951496  89.2978827  40.7361810  36.9498113
  91.6350006  37.1079457  37.5508104  91.6211575  36.2120551  37.2140402
  92.3522434  37.1150121  38.1846390  93.4876137  37.5416798  39.5961231
  93.2293915  38.4633868  39.5945562  92.9561177  37.1447232  40.2861695
  98.4322325  50.6467585  32.3751316  98.6059203  50.0814007  31.6225169
  98.9251217  51.4468480  32.1930806  84.2499285  42.6582254  40.4414875
  83.7052753  43.4342062  40.5735150  85.1278635  43.0053058  40.2833997
  91.0386902  35.9893838  32.8195674  91.1602813  35.0610484  33.0186561
  90.7488944  36.0032524  31.9073989  93.9078092  33.6748748  35.9562394
  93.9299789  33.7388081  35.0014373  94.3246151  32.8353257  36.1502900
  99.4197498  49.9634349  29.4748215 100.1148403  50.5841042  29.6935529
  99.7620648  49.1129700  29.7500593  85.0365307  41.7852150  43.3345032
  84.2947043  41.9334785  43.9209663  84.7158051  42.0460416  42.4711782
  92.9808970  51.3268128  43.1325422  93.2896096  51.0817275  44.0048122
  93.7784452  51.5314767  42.6444292  93.0029582  53.4806038  35.3630799
  92.5634572  52.9882417  36.0563655  93.7537699  52.9379006  35.1222874
  85.4821921  49.6717579  35.3655427  86.3079941  49.3721351  34.9854070
  85.1315973  48.9025201  35.8145215  90.4503454  49.0244047  37.4353100
  89.8283463  48.3614752  37.1355328  91.1208321  49.0505179  36.7526748
  83.6830526  47.5903905  36.3244360  82.8462434  47.1626080  36.1428362
  83.6554171  47.7836349  37.2615152  90.5227981  37.5025835  47.0285606
  90.5716137  38.3787958  46.6463376  91.0650496  36.9603228  46.4557250
  90.0116961  47.5747970  30.9111561  90.1605081  48.2583435  30.2578234
  90.8183404  47.5553060  31.4261017  98.4184465  40.8790353  44.9378779
  99.3194327  40.7396818  44.6462777  98.4932439  41.0444808  45.8776956
  92.7527270  38.2557208  43.7831965  91.8830579  38.5490774  43.5114554
  92.9886750  38.8397653  44.5039229  87.7669594  43.6013148  31.9172630
  87.5215636  42.6975478  32.1152840  87.9365508  43.6030299  30.9752108
  95.4566304  34.4736824  41.2997385  95.9748248  35.2097851  40.9743874
  95.1021437  34.7800818  42.1344145  87.0365241  39.3341506  29.4158791
  86.3434486  39.4085861  28.7598827  86.7916993  38.5701849  29.9380308
  95.7078898  30.8937107  36.8198282  95.9880652  30.2260296  37.4458709
  96.4929505  31.0866203  36.3072946  93.5112366  50.0696101  28.3823308
  92.9386334  50.6886288  27.9293780  94.0845160  50.6195463  28.9163230
  97.6002136  36.4010324  40.7529258  97.0052068  36.6815337  40.0575747
  97.3151832  36.8904225  41.5245999  96.7309626  50.3533251  29.5131891
  97.6640299  50.2878813  29.7164766  96.6432839  51.1889518  29.0546423
  93.8959165  41.4056914  25.7239361  94.8418270  41.2763122  25.7927779
  93.5173410  40.6671576  26.2008789  93.7797857  45.4574660  47.1840018
  94.7000867  45.6353259  47.3780064  93.7447441  44.5130705  47.0319717
  92.0802082  39.3306890  25.6594246  91.1733537  39.0340003  25.7356960
  92.3578063  39.0336708  24.7928532  82.9980022  40.6513253  36.1093292
  82.6782807  39.7978562  35.8167666  82.4513451  40.8661832  36.8651260
  86.7759930  43.3675694  39.8262799  86.9945940  44.2992802  39.8450833
  87.1885704  43.0083669  40.6117603  93.6964148  33.8743780  31.8138487
  92.8864876  33.5290865  32.1893733  94.3848565  33.5651323  32.4026099
  95.6254696  32.9521827  33.4362784  96.1785735  33.3717280  34.0952807
  95.8624782  32.0257575  33.4785740  91.6487795  38.9408900  49.2165548
  91.5484522  39.8903257  49.1477639  91.4309337  38.6127139  48.3441618
  90.8500867  36.1893825  25.8006225  91.7120031  36.5148724  26.0602043
  91.0351211  35.4025321  25.2879291  82.8668282  44.2716165  38.0786414
  82.1731754  43.8570118  37.5656368  83.6141273  44.3136701  37.4819833
  99.0033503  35.0622352  32.9441448  98.4232172  35.7207156  32.5619501
  98.7369436  34.2399696  32.5328866  97.4537070  34.4627409  35.1462769
  97.9536848  34.5743944  34.3377087  98.0972677  34.1588462  35.7863577
  91.5119065  42.3706039  48.0330610  91.0286147  43.1706399  48.2394499
  91.5980004  42.3813984  47.0798054  84.7805025  44.2034419  35.9552429
  84.7575713  44.3022106  35.0034312  85.0905661  45.0499569  36.2769595
  87.4392403  46.2610574  40.0699043  88.3935656  46.2294516  40.0028975
  87.2404926  45.8001197  40.8849269  88.0291785  44.8311690  42.6369841
  88.8484674  45.3255768  42.6604678  88.3028593  43.9143658  42.6087409
  97.7858381  37.2222442  31.9997797  96.8984236  37.5072093  31.7817991
  98.2012370  37.0616205  31.1525073  85.7942632  51.8030193  37.0869241
  85.6597100  51.0430594  36.5207239  85.3774694  52.5271093  36.6198030
  96.9301595  46.9867117  26.0945817  97.6337445  47.1917119  26.7103472
  96.2064243  47.5543879  26.3594900  97.7599405  42.7376978  32.2148087
  97.7034606  43.1945529  31.3755719  98.3127747  41.9767663  32.0370929
  88.9511758  52.6999510  37.2987684  88.8344142  53.6444943  37.1966374
  88.1304204  52.3973072  37.6873483  98.8388292  47.4249646  28.1444277
  99.6733896  46.9930844  27.9621751  98.6772635  47.2531660  29.0721171
  98.4934184  43.9281759  29.5100616  98.4382988  43.7626031  28.5689060
  97.8680240  44.6357792  29.6662806  83.2826699  39.1649824  43.3362038
  83.9285563  38.6548778  43.8249263  83.0743850  39.9018505  43.9105463
  95.8080091  46.2330671  48.8354179  96.6771251  46.4071323  48.4740814
  95.3286843  47.0525088  48.7129908  91.8030310  33.4289868  29.0885934
  91.7908980  34.3731708  29.2454205  92.6953732  33.2460014  28.7945395
  89.9766272  53.3527772  40.5143612  90.8793518  53.3851382  40.8310107
  89.7503642  52.4228223  40.5289948  91.7319874  52.1058759  37.1753691
  90.7815505  52.1060620  37.0618063  92.0352360  51.3591493  36.6589726
  95.6182429  30.0232645  33.3431871  94.8514825  29.4691132  33.4888553
  96.0293134  30.0954514  34.2046023  87.6224190  36.3117441  47.4337052
  88.4855652  35.9554246  47.6440377  87.0489601  35.9731336  48.1212457
 100.1349089  59.7482202  34.1657869  99.5713954  59.6572139  33.3974157
 100.0201484  58.9282106  34.6460361  97.6813521  61.2433393  37.0042089
  98.4734813  60.9024218  36.5888389  97.9210171  61.3528368  37.9244243
  99.8891684  57.9693901  36.1112866  98.9642181  57.8370115  36.3190557
 100.1376097  58.7488120  36.6082808  97.2500495  57.6127175  36.9456655
  97.3792876  57.8661654  37.8596066  96.5697946  58.2054883  36.6261310
  96.1969921  55.0849188  36.9907697  95.4068975  55.3406716  36.5147808
  96.6881168  55.8997525  37.0959738  98.1484666  55.4493767  33.9491174
  97.3515829  55.5612461  34.4674669  97.9210258  55.7880419  33.0832064
  94.4807624  55.3379678  39.4222688  94.7315662  56.2226688  39.6880264
  95.0167172  55.1584280  38.6497780  97.1467749  61.1582016  32.3380594
  97.6592269  61.9525266  32.4886158  97.7990462  60.4608306  32.2714195
  98.9562633  64.2747772  34.4203347  99.1329262  65.1965737  34.2324331
  99.7519467  63.9606191  34.8497727  98.2414990  56.3212404  44.2965510
  98.1268505  55.4197661  44.5972609  97.3859508  56.5676100  43.9450327
  95.1116666  59.4870670  33.1140164  95.9491888  59.8967678  32.8973872
  95.2894933  58.5470112  33.0840358  95.1342837  56.8261385  33.7850898
  94.9367237  56.2330746  33.0601964  94.5789501  56.5213595  34.5026836
  97.6289062  56.3525419  31.4691850  96.6986650  56.2909875  31.6861812
  97.7246534  55.8301372  30.6728491  97.5474611  52.8780232  34.0570091
  97.8081429  53.7925565  33.9479252  98.3691784  52.4104674  34.2066704
  99.0199537  54.2917989  41.2268916  99.6922590  54.0835351  40.5781565
  98.1929323  54.0940075  40.7874148  99.0586812  71.0309819  37.1895331
  99.2983410  71.6628343  37.8674349  98.2156009  70.6797859  37.4760690
  91.6942668  58.5111580  35.9518643  92.3813708  58.1973310  35.3639658
  91.5390796  59.4152945  35.6785894  96.4977390  53.4001777  40.3803667
  96.4135579  52.7927447  39.6454077  95.6760096  53.8910795  40.3813163
  96.6792989  64.0206574  39.5031667  97.2646426  63.2750261  39.6359571
  96.4817828  64.3310530  40.3868331  99.5331644  67.0557821  34.5194109
  98.8642020  67.5403949  34.0358149  99.3944514  67.3027041  35.4337488
  91.2710644  56.5912174  38.2236110  91.3094743  56.0575764  39.0173228
  90.7650937  56.0647379  37.6047087  98.1253679  53.5099847  45.3671687
  98.7525718  53.1276924  45.9809211  97.2681598  53.2914049  45.7327379
  94.9019221  55.3176276  31.2990042  95.1972663  54.4086954  31.2457095
  94.0007257  55.2964015  30.9771044  98.4313468  53.3932272  37.2817590
  97.7100054  54.0068240  37.1425063  99.2206724  53.9290037  37.2034236
  96.6307063  52.9990374  31.4229367  96.3019769  52.1187752  31.2404473
  96.9846434  52.9438042  32.3105756  95.0893040  57.9874172  40.4414875
  94.5446508  58.7633979  40.5735150  95.9672390  58.3344976  40.2833997
  95.8759062  57.1144068  43.3345032  95.1340798  57.2626703  43.9209663
  95.5551806  57.3752333  42.4711782  96.3215675  65.0009497  35.3655427
  97.1473695  64.7013268  34.9854070  95.9709727  64.2317119  35.8145215
  94.5224280  62.9195823  36.3244360  93.6856189  62.4917997  36.1428362
  94.4947926  63.1128266  37.2615152  98.6063348  58.9305066  31.9172630
  98.3609390  58.0267396  32.1152840  98.7759263  58.9322216  30.9752108
  97.8758996  54.6633423  29.4158791  97.1828241  54.7377778  28.7598827
  97.6310748  53.8993767  29.9380308  93.8373777  55.9805171  36.1093292
  93.5176561  55.1270479  35.8167666  93.2907205  56.1953749  36.8651260
  97.6153685  58.6967612  39.8262799  97.8339694  59.6284720  39.8450833
  98.0279458  58.3375586  40.6117603  93.7062037  59.6008083  38.0786414
  93.0125508  59.1862035  37.5656368  94.4535028  59.6428619  37.4819833
  95.6198779  59.5326336  35.9552429  95.5969468  59.6314024  35.0034312
  95.9299416  60.3791487  36.2769595  98.2786157  61.5902491  40.0699043
  99.2329411  61.5586434  40.0028975  98.0798681  61.1293115  40.8849269
  98.8685539  60.1603607  42.6369841  99.6878428  60.6547686  42.6604678
  99.1422347  59.2435576  42.6087409  96.6336386  67.1322111  37.0869241
  96.4990854  66.3722512  36.5207239  96.2168448  67.8563011  36.6198030
  99.7905512  68.0291428  37.2987684  99.6737896  68.9736860  37.1966374
  98.9697958  67.7264989  37.6873483  94.1220454  54.4941741  43.3362038
  94.7679317  53.9840695  43.8249263  93.9137605  55.2310423  43.9105463
  98.4617945  51.6409358  47.4337052  99.3249406  51.2846163  47.6440377
  97.8883355  51.3023253  48.1212457  76.0026013   7.5911680  23.7287396
  76.7947305   7.2502505  23.3133695  76.2422664   7.7006655  24.6489549
  79.8001810   8.1796976  29.8071674  79.5091676   9.0842607  29.6918340
  80.4358794   8.2213504  30.5215744  79.7412475  14.6302712  19.7692436
  79.6636504  15.5810537  19.8480916  79.1374118  14.2848584  20.4267362
  75.4680241   7.5060303  19.0625900  75.9804762   8.3003553  19.2131465
  76.1202954   6.8086593  18.9959502  77.2775126  10.6226059  21.1448654
  77.4541754  11.5444024  20.9569637  78.0731959  10.3084478  21.5743033
  83.6419320  10.6108431  32.6198317  83.1983174   9.8244810  32.3019222
  84.3036534  10.7987582  31.9542208  78.4006441  12.1404233  27.1458996
  78.9513866  12.0121296  26.3735990  77.5617917  12.4399122  26.7953889
  85.7400558  10.8911231  30.6479719  85.7219033  11.7120112  30.1559988
  86.6620478  10.7665306  30.8729860  81.5252990  11.6797596  22.3215441
  81.4829169  11.9058442  21.3923973  82.4415689  11.4460970  22.4701242
  84.4613636  10.9378720  26.4689771  84.5150658  11.5069656  27.2367487
  83.5928417  11.1080605  26.1043809  82.8138219  14.2298743  17.1400777
  82.9889975  13.7586786  17.9546400  82.1271007  14.8564509  17.3682038
  77.3799304  17.3788106  23.9140638  77.6195903  18.0106630  24.5919656
  76.5368501  17.0276146  24.2005997  81.8927166  13.1867228  26.3182142
  81.8197338  13.9922200  26.8301446  81.4504559  13.3859194  25.4930163
  81.6816946  12.4238998  19.8284963  80.8984468  12.9660678  19.9223188
  82.3809691  12.9412978  20.2279204  84.3525850  13.0854062  28.4740300
  85.0653822  13.7201527  28.4016202  83.8615878  13.1817928  27.6580302
  79.4037763  10.8348506  29.2945871  80.1047223  11.4684989  29.4475265
  78.9332878  11.1763237  28.5341510  84.1646223  13.4252806  21.2226592
  84.3468618  12.6074462  21.6854344  84.9879209  13.6420499  20.7851482
  75.0005481  10.3684861  26.2276974  75.5858918   9.6228549  26.3604878
  74.8030320  10.6788817  27.1113638  77.8544137  13.4036108  21.2439416
  77.1854512  13.8882236  20.7603456  77.7157006  13.6505329  22.1582795
  81.9949405  15.4379852  27.8422074  82.5467713  15.6011473  28.6071160
  82.3355599  16.0284290  27.1702099  85.1317793  13.3861827  24.8285757
  85.0068932  12.5851567  24.3196702  85.7896884  13.8808021  24.3399727
  84.1999134  10.9823564  22.6569659  84.0524097  10.0540271  22.8377229
  85.0252628  11.0043654  22.1726734  87.8033256  11.8052122  23.7434532
  88.7279804  11.5994984  23.6058983  87.6348559  11.5568523  24.6523873
  82.1415217  13.0038333  29.8570729  82.4502343  12.7587480  30.7293428
  82.9390699  13.2084972  29.3689599  82.1635829  15.1576243  22.0876105
  81.7240819  14.6652622  22.7808962  82.9143946  14.6149211  21.8468181
  74.6428168  11.3487784  22.0900733  75.4686188  11.0491556  21.7099377
  74.2922220  10.5795406  22.5390522  79.6109701  10.7014252  24.1598407
  78.9889710  10.0384957  23.8600635  80.2814568  10.7275384  23.4772055
  72.8436773   9.2674110  23.0489667  72.0068681   8.8396285  22.8673668
  72.8160418   9.4606554  23.9860458  79.1723208   9.2518175  17.6356868
  79.3211328   9.9353640  16.9823540  79.9789651   9.2323265  18.1506323
  72.0274529   5.9486370  24.8031721  71.3338001   5.5340323  24.2901675
  72.7747520   5.9906906  24.2065140  76.5998650   7.9380779  26.7944350
  77.5541903   7.9064721  26.7274282  76.4011173   7.4771402  27.6094576
  74.9548878  13.4800398  23.8114548  74.8203346  12.7200799  23.2452546
  74.5380941  14.2041298  23.3443337  78.1118004  14.3769715  24.0232991
  77.9950388  15.3215148  23.9211681  77.2910451  14.0743277  24.4118790
  79.1372518  15.0297977  27.2388919  80.0399765  15.0621587  27.5555414
  78.9109888  14.0998428  27.2535255  80.8926120  13.7828964  23.8998998
  79.9421751  13.7830825  23.7863370  81.1958607  13.0361698  23.3835032
  93.4368520  19.5716930  24.9006285  93.0987032  19.4557995  24.0126820
  94.3058288  19.1708095  24.8807291  89.2955336  21.4252406  20.8903176
  88.7320201  21.3342343  20.1219463  89.1807731  20.6052311  21.3705668
  93.9188303  20.7251782  30.8592490  93.9076944  20.3304580  29.9872994
  94.0808943  19.9917854  31.4526262  86.8419768  22.9203598  23.7287396
  87.6341060  22.5794423  23.3133695  87.0816418  23.0298573  24.6489549
  90.6395564  23.5088894  29.8071674  90.3485430  24.4134524  29.6918340
  91.2752549  23.5505421  30.5215744  91.5651771  20.8865742  26.3973034
  92.1615343  20.6621765  25.6829997  91.6226743  20.1450488  26.9998482
  95.5985449  23.1950309  26.8021468  95.2986173  24.0975348  26.6937275
  95.2536509  22.9282492  27.6542621  89.0497931  19.6464106  22.8358172
  88.1248427  19.5140320  23.0435864  89.2982344  20.4258325  23.3328115
  86.4106742  19.2897380  23.6701961  86.5399123  19.5431858  24.5841373
  85.7304193  19.8825088  23.3506616  90.5806229  29.9594629  19.7692436
  90.5030259  30.9102455  19.8480916  89.9767873  29.6140502  20.4267362
  93.0723459  17.1322495  32.4253802  92.2956793  17.6916415  32.4156667
  93.7114022  17.6179278  32.9468673  91.3269831  19.9407948  31.9871769
  92.0684516  20.4792992  31.7106593  90.6206817  20.5674237  32.1443321
  96.8025171  22.0837089  30.5843931  97.2108527  21.6419499  29.8398563
  96.0802432  21.5089716  30.8378124  93.1556241  17.0209695  27.9577488
  94.0017436  17.4449109  28.1012137  93.0954879  16.3643320  28.6516051
  97.1253986  22.6438279  24.3396220  96.4962848  22.8083993  23.6372288
  96.7379648  23.0579889  25.1107184  96.3055686  14.6814064  29.6158662
  96.0616618  15.4356124  29.0792937  96.5815617  15.0599411  30.4505909
  98.2594149  21.2252676  28.2935927  98.4711044  21.8684436  27.6170308
  98.2123897  20.3914993  27.8257857  92.6781947  22.3812687  21.6046305
  93.1420293  22.6600390  20.8150927  92.4138746  21.4796132  21.4219396
  89.5706029  21.9284169  24.5426068  90.1407386  22.3571437  23.9043553
  90.1614140  21.6466754  25.2410254  90.0631195  17.0947596  32.7887079
  89.4329856  17.7763877  33.0222476  89.9567283  16.9830678  31.8440218
  85.3576167  16.7619392  23.7153004  84.5675221  17.0176921  23.2393114
  85.8487415  17.5767730  23.8205044  87.3090913  17.1263972  20.6736480
  86.5122076  17.2382666  21.1919976  87.0816505  17.4650624  19.8077371
  93.1396580  23.6508675  28.6218995  93.2041013  24.1129082  29.4577167
  92.4307504  23.0206040  28.7501305  83.6413870  17.0149883  26.1467994
  83.8921909  17.8996893  26.4125570  84.1773419  16.8354484  25.3743086
  86.3073996  22.8352220  19.0625900  86.8198516  23.6295471  19.2131465
  86.9596708  22.1378511  18.9959502  88.1168880  25.9517977  21.1448654
  88.2935509  26.8735941  20.9569637  88.9125714  25.6376396  21.5743033
  87.4021237  17.9982609  31.0210817  87.2874752  17.0967866  31.3217916
  86.5465755  18.2446305  30.6695633  94.4813075  25.9400349  32.6198317
  94.0376929  25.1536727  32.3019222  95.1430288  26.1279499  31.9542208
  89.2400196  27.4696151  27.1458996  89.7907621  27.3413214  26.3735990
  88.4011672  27.7691040  26.7953889  96.5794313  26.2203149  30.6479719
  96.5612788  27.0412030  30.1559988  97.5014233  26.0957224  30.8729860
  93.0367367  23.7347278  31.4903227  93.5695704  22.9735567  31.2602535
  92.5081448  23.4420930  32.2327381  84.2722912  21.1640875  19.8385471
  85.1098134  21.5737883  19.6219179  84.4501180  20.2240317  19.8085665
  84.2949083  18.5031590  20.5096204  84.0973483  17.9100951  19.7847271
  83.7395747  18.1983800  21.2272143  92.2745807  18.3954697  22.6290797
  92.3294417  17.4428533  22.5533274  91.4637009  18.5514136  23.1132096
  92.3646745  27.0089513  22.3215441  92.3222924  27.2350360  21.3923973
  93.2809444  26.7752888  22.4701242  95.8112379  17.4773581  29.2196070
  96.1661766  17.7045054  30.0790536  96.4584510  17.8091958  28.5973326
  89.7052242  14.5850112  26.0042411  90.3451621  14.4438871  25.3065375
  88.8729772  14.2984625  25.6281013  90.4812546  23.8852542  22.1177404
  91.2753144  23.3902862  21.9159979  89.7704238  23.3570405  21.7545109
  95.3007390  26.2670638  26.4689771  95.3544412  26.8361574  27.2367487
  94.4322172  26.4372523  26.1043809  86.7080858  14.5550437  20.7815398
  86.9687676  15.4695770  20.6724559  87.5298031  14.0874879  20.9312011
  88.1805784  15.9688194  27.9514223  88.8528837  15.7605556  27.3026872
  87.3535570  15.7710280  27.5119455  97.4910153  22.8598987  33.0430437
  97.3395660  22.6309539  32.1260520  97.4814833  23.8169588  33.0561782
  94.2595490  20.4330900  28.0276703  95.1887550  20.5842059  27.8545671
  93.8386520  20.5214921  27.1725350  93.0583822  24.4581564  25.7975241
  92.9194907  24.0900349  26.6701179  92.2698418  24.9729204  25.6259199
  93.6531974  29.5590661  17.1400777  93.8283729  29.0878704  17.9546400
  92.9664762  30.1856427  17.3682038  94.6089037  23.8363167  23.1864079
  94.2738869  23.7963937  24.0821729  94.1092983  23.1707883  22.7134489
  88.5833281  19.2430797  28.7116660  88.4453079  18.5111036  29.3128199
  89.4938204  19.1539697  28.4300848  91.2115581  18.9550756  28.2000339
  91.9215200  18.3143948  28.1586958  91.1684890  19.2063651  29.1226520
  99.2002360  25.8918110  31.1206919  99.1414906  25.2077330  30.4537502
  99.6021879  26.6337100  30.6687545  89.9244515  15.9415974  30.0195979
  89.3881872  15.4906713  30.6717575  89.3361224  16.0761883  29.2766443
  88.2193059  32.7080023  23.9140638  88.4589657  33.3398548  24.5919656
  87.3762255  32.3568063  24.2005997  99.2019767  23.8557694  29.3520898
  98.3146546  23.5183615  29.4747297  99.7718318  23.1240725  29.5889664
  80.8548915  20.1881785  22.6763950  81.5419954  19.8743515  22.0884965
  80.6997043  21.0923150  22.4031201  85.6583637  15.0771982  27.1048973
  85.5741825  14.4697651  26.3699383  84.8366343  15.5681000  27.1058470
  92.7320921  28.5159146  26.3182142  92.6591092  29.3214117  26.8301446
  92.2898314  28.7151112  25.4930163  92.5210700  27.7530916  19.8284963
  91.7378222  28.2952596  19.9223188  93.2203446  28.2704896  20.2279204
  95.1919604  28.4145980  28.4740300  95.9047577  29.0493445  28.4016202
  94.7009633  28.5109846  27.6580302  90.2431518  26.1640423  29.2945871
  90.9440977  26.7976906  29.4475265  89.7726633  26.5055155  28.5341510
  95.0039978  28.7544724  21.2226592  95.1862372  27.9366380  21.6854344
  95.8272964  28.9712416  20.7851482  94.0920377  19.4604842  33.6064458
  93.4161014  19.3598971  34.2766834  94.9148011  19.3044056  34.0700456
  85.8399236  25.6976778  26.2276974  86.4252673  24.9520466  26.3604878
  85.6424074  26.0080735  27.1113638  88.6937891  28.7328026  21.2439416
  88.0248266  29.2174153  20.7603456  88.5550761  28.9797246  22.1582795
  80.4316891  18.2682379  24.9481417  80.4700990  17.7345969  25.7418535
  79.9257183  17.7417584  24.3292394  92.8343160  30.7671769  27.8422074
  93.3861468  30.9303391  28.6071160  93.1749353  31.3576207  27.1702099
  87.8107653  13.1146919  28.4443959  87.8748979  13.9761750  28.0321357
  87.7474773  12.5020921  27.7116318  87.2859925  15.1870052  32.0916993
  87.9131964  14.8047129  32.7054518  86.4287844  14.9684254  32.4572686
  97.6854034  25.5933027  33.6970729  98.2293938  26.2062985  33.2025684
  97.1040879  26.1512605  34.2137742  84.0625468  16.9946481  18.0235348
  84.3578909  16.0857159  17.9702402  83.1613504  16.9734220  17.7016351
  95.9711547  28.7153745  24.8285757  95.8462686  27.9143485  24.3196702
  96.6290638  29.2099938  24.3399727  87.5919715  15.0702477  24.0062897
  86.8706301  15.6838445  23.8670370  88.3812971  15.6060242  23.9279543
  98.0346455  26.5162765  26.4565307  97.0876791  26.3968116  26.3843633
  98.3829229  25.6285263  26.5391568  90.3946029  12.4056904  30.2803549
  90.9180431  12.6519200  31.0429858  90.1758362  13.2376939  29.8606686
  95.0392889  26.3115481  22.6569659  94.8917851  25.3832189  22.8377229
  95.8646382  26.3335572  22.1726734  98.6427011  27.1344040  23.7434532
  99.5673558  26.9286901  23.6058983  98.4742314  26.8860441  24.6523873
  91.5998574  13.3470599  27.9653219  91.2595394  12.5478412  28.3673899
  90.8937580  13.6472310  27.3930052  89.7753624  17.1239032  24.2272521
  89.6298205  17.4379335  25.1196802  89.2978828  17.7423932  23.6743419
  93.4876138  14.5478920  26.3206538  93.2293916  15.4695991  26.3190868
  92.9561178  14.1509355  27.0107002  84.2499287  19.6644376  27.1660182
  83.7052755  20.4404184  27.2980456  85.1278636  20.0115181  27.0079303
  85.0365308  18.7914273  30.0590339  84.2947044  18.9396908  30.6454969
  84.7158053  19.0522538  29.1957088  92.9808971  28.3330251  29.8570729
  93.2896097  28.0879398  30.7293428  93.7784453  28.5376889  29.3689599
  93.0029583  30.4868161  22.0876105  92.5634573  29.9944539  22.7808962
  93.7537700  29.9441128  21.8468181  85.4821922  26.6779701  22.0900733
  86.3079942  26.3783473  21.7099377  85.1315974  25.9087324  22.5390522
  90.4503455  26.0306170  24.1598407  89.8283465  25.3676875  23.8600635
  91.1208322  26.0567302  23.4772055  83.6830527  24.5966028  23.0489667
  82.8462435  24.1688202  22.8673668  83.6554173  24.7898471  23.9860458
  90.5227983  14.5087958  33.7530913  90.5716138  15.3850081  33.3708683
  91.0650497  13.9665351  33.1802556  90.0116962  24.5810093  17.6356868
  90.1605083  25.2645557  16.9823540  90.8183406  24.5615183  18.1506323
  98.4184466  17.8852475  31.6624085  99.3194329  17.7458940  31.3708083
  98.4932440  18.0506930  32.6022263  92.7527271  15.2619330  30.5077272
  91.8830581  15.5552896  30.2359860  92.9886752  15.8459775  31.2284535
  87.7669595  20.6075271  18.6417936  87.5215637  19.7037601  18.8398147
  87.9365510  20.6092421  17.6997414  93.7797859  22.4636782  33.9085324
  94.7000868  22.6415381  34.1025371  93.7447442  21.5192828  33.7565024
  82.9980024  17.6575376  22.8338599  82.6782808  16.8040684  22.5412973
  82.4513452  17.8723954  23.5896566  86.7759931  20.3737817  26.5508106
  86.9945941  21.3054925  26.5696139  87.1885705  20.0145791  27.3362909
  91.6487797  15.9471023  35.9410855  91.5484523  16.8965380  35.8722946
  91.4309339  15.6189262  35.0686925  82.8668284  21.2778287  24.8031721
  82.1731755  20.8632240  24.2901675  83.6141275  21.3198824  24.2065140
  91.5119067  19.3768162  34.7575916  91.0286148  20.1768522  34.9639805
  91.5980006  19.3876106  33.8043360  84.7805026  21.2096541  22.6797736
  84.7575714  21.3084229  21.7279619  85.0905663  22.0561692  23.0014902
  87.4392404  23.2672696  26.7944350  88.3935658  23.2356639  26.7274282
  87.2404928  22.8063320  27.6094576  88.0291786  21.8373812  29.3615148
  88.8484675  22.3317891  29.3849985  88.3028594  20.9205780  29.3332715
  85.7942633  28.8092316  23.8114548  85.6597101  28.0492717  23.2452546
  85.3774695  29.5333216  23.3443337  88.9511759  29.7061633  24.0232991
  88.8344143  30.6507065  23.9211681  88.1304205  29.4035194  24.4118790
  83.2826700  16.1711946  30.0607345  83.9285564  15.6610900  30.5494570
  83.0743852  16.9080628  30.6350770  95.8080093  23.2392794  35.5599485
  96.6771252  23.4133446  35.1986120  95.3286844  24.0587211  35.4375215
  89.9766273  30.3589895  27.2388919  90.8793520  30.3913505  27.5555414
  89.7503643  29.4290346  27.2535255  91.7319875  29.1120881  23.8998998
  90.7815506  29.1122743  23.7863370  92.0352361  28.3653616  23.3835032
  87.6224191  13.3179563  34.1582359  88.4855653  12.9616368  34.3685684
  87.0489602  12.9793458  34.8457763 100.1349090  36.7544324  20.8903176
  99.5713956  36.6634261  20.1219463 100.0201485  35.9344229  21.3705668
  97.6813522  38.2495516  23.7287396  98.4734814  37.9086340  23.3133695
  97.9210172  38.3590491  24.6489549  99.8891685  34.9756024  22.8358172
  98.9642182  34.8432238  23.0435864 100.1376099  35.7550243  23.3328115
  97.2500496  34.6189297  23.6701961  97.3792878  34.8723776  24.5841373
  96.5697948  35.2117005  23.3506616  96.1969922  32.0911310  23.7153004
  95.4068976  32.3468839  23.2393114  96.6881169  32.9059648  23.8205044
  98.1484667  32.4555889  20.6736480  97.3515831  32.5674584  21.1919976
  97.9210260  32.7942542  19.8077371  94.4807625  32.3441801  26.1467994
  94.7315663  33.2288811  26.4125570  95.0167173  32.1646402  25.3743086
  97.1467750  38.1644138  19.0625900  97.6592271  38.9587388  19.2131465
  97.7990463  37.4670429  18.9959502  98.9562635  41.2809894  21.1448654
  99.1329263  42.2027859  20.9569637  99.7519468  40.9668314  21.5743033
  98.2414991  33.3274526  31.0210817  98.1268506  32.4259784  31.3217916
  97.3859509  33.5738223  30.6695633  95.1116667  36.4932792  19.8385471
  95.9491889  36.9029801  19.6219179  95.2894935  35.5532235  19.8085665
  95.1342838  33.8323508  20.5096204  94.9367238  33.2392868  19.7847271
  94.5789502  33.5275718  21.2272143  97.5474613  29.8842354  20.7815398
  97.8081430  30.7987688  20.6724559  98.3691785  29.4166797  20.9312011
  99.0199538  31.2980112  27.9514223  99.6922591  31.0897474  27.3026872
  98.1929325  31.1002198  27.5119455  99.0586813  48.0371941  23.9140638
  99.2983412  48.6690465  24.5919656  98.2156010  47.6859981  24.2005997
  91.6942669  35.5173703  22.6763950  92.3813709  35.2035433  22.0884965
  91.5390798  36.4215068  22.4031201  96.4977391  30.4063900  27.1048973
  96.4135580  29.7989569  26.3699383  95.6760098  30.8972918  27.1058470
  96.6792990  41.0268696  26.2276974  97.2646427  40.2812384  26.3604878
  96.4817829  41.3372653  27.1113638  99.5331646  44.0619944  21.2439416
  98.8642021  44.5466071  20.7603456  99.3944515  44.3089164  22.1582795
  91.2710645  33.5974296  24.9481417  91.3094745  33.0637887  25.7418535
  90.7650938  33.0709502  24.3292394  98.6501407  28.4438837  28.4443959
  98.7142734  29.3053668  28.0321357  98.5868528  27.8312838  27.7116318
  98.1253680  30.5161969  32.0916993  98.7525719  30.1339047  32.7054518
  97.2681599  30.2976171  32.4572686  94.9019223  32.3238398  18.0235348
  95.1972664  31.4149077  17.9702402  94.0007258  32.3026138  17.7016351
  98.4313470  30.3994395  24.0062897  97.7100055  31.0130363  23.8670370
  99.2206725  30.9352160  23.9279543  95.0893041  34.9936294  27.1660182
  94.5446509  35.7696102  27.2980456  95.9672391  35.3407099  27.0079303
  95.8759063  34.1206190  30.0590339  95.1340799  34.2688826  30.6454969
  95.5551807  34.3814456  29.1957088  96.3215677  42.0071619  22.0900733
  97.1473696  41.7075391  21.7099377  95.9709729  41.2379242  22.5390522
  94.5224282  39.9257946  23.0489667  93.6856190  39.4980120  22.8673668
  94.4947927  40.1190389  23.9860458  98.6063350  35.9367188  18.6417936
  98.3609392  35.0329518  18.8398147  98.7759264  35.9384339  17.6997414
  93.8373778  32.9867294  22.8338599  93.5176563  32.1332602  22.5412973
  93.2907206  33.2015872  23.5896566  97.6153686  35.7029735  26.5508106
  97.8339696  36.6346842  26.5696139  98.0279460  35.3437709  27.3362909
  93.7062038  36.6070205  24.8031721  93.0125510  36.1924158  24.2901675
  94.4535029  36.6490742  24.2065140  95.6198781  36.5388459  22.6797736
  95.5969469  36.6376146  21.7279619  95.9299417  37.3853610  23.0014902
  98.2786159  38.5964614  26.7944350  99.2329412  38.5648556  26.7274282
  98.0798682  38.1355238  27.6094576  98.8685541  37.1665730  29.3615148
  99.6878430  37.6609809  29.3849985  99.1422348  36.2497698  29.3332715
  96.6336387  44.1384233  23.8114548  96.4990855  43.3784634  23.2452546
  96.2168450  44.8625133  23.3443337  99.7905513  45.0353551  24.0232991
  99.6737897  45.9798983  23.9211681  98.9697960  44.7327112  24.4118790
  94.1220455  31.5003864  30.0607345  94.7679319  30.9902818  30.5494570
  93.9137606  32.2372546  30.6350770  98.4617946  28.6471481  34.1582359
  99.3249408  28.2908286  34.3685684  97.8883357  28.3085376  34.8457763
   3.4499421  46.5730598  88.0714047   2.7650459  46.9529500  87.5211081
   3.5343270  47.1825925  88.8045995   9.9102173  43.4401261  89.1916720
   9.1565882  42.8708659  89.0360724  10.0449715  43.4063926  90.1387354
   3.5877822  44.5786191  83.8395941   2.8107265  44.2397351  83.3951103
   4.2669303  44.5838814  83.1650906   1.4036384  47.3870546  86.6745633
   0.9498711  46.5461456  86.7310824   0.7730350  48.0231945  87.0120414
   3.9866319  43.5929898  86.3018863   3.8484218  43.7831494  85.3740052
   3.6302538  44.3549280  86.7586914   0.8778530  50.6467588  85.4770087
   1.0515408  50.0814011  84.7243939   1.3707421  51.4468483  85.2949577
   6.7317921  43.4104011  87.0960387   7.1749067  42.6611336  86.6979510
   5.8544432  43.4014148  86.7134119   1.8653703  49.9634353  82.5766985
   2.5604607  50.5841045  82.7954300   2.2076853  49.1129704  82.8519363
   3.7645126  47.4134058  84.1054316   4.2896450  47.7521331  83.3803636
   3.6767478  46.4781074  83.9217451   6.2750786  44.8809250  89.4882834
   7.1097677  45.3199054  89.6520395   6.4109915  44.4047903  88.6691080
   1.8053847  49.6699125  79.5754609   1.7267479  49.3358989  80.4690366
   2.6263514  50.1620893  79.5746081   1.2844497  47.4249649  81.2463047
   2.1190101  46.9930848  81.0640522   1.1228840  47.2531663  82.1739941
   9.9128772  57.9419301  91.3418224  10.5507182  57.8226048  90.6381564
   9.7949615  58.8900145  91.4006176   6.7218478  57.8946729  91.2779748
   6.3836990  57.7787793  90.3900283   7.5908246  57.4937894  91.2580755
   8.1604852  63.4153173  82.5791104   7.5092832  64.0007253  82.1925118
   8.9549215  63.9459368  82.6386142   2.0860480  60.5042310  82.9778239
   2.8591356  59.9571297  82.8391114   2.4385878  61.3686559  83.1892700
   4.4226757  56.6634976  80.6096688   4.6752278  56.1416497  79.8480151
   3.4851316  56.5001122  80.7123372   9.4670040  55.6670754  88.4171432
  10.2533129  55.2490178  88.0661849   9.7308745  56.5716847  88.5853080
   9.6380118  61.1043605  83.1160089   9.0025951  61.1778231  83.8280993
   9.3077524  61.6937204  82.4379168  14.8678467  55.6045988  89.3204410
  15.6003639  55.0345204  89.5542240  14.1117823  55.2167588  89.7610916
   4.1423046  58.5663082  82.8121063   4.0259304  57.8907985  83.4802148
   4.2525306  58.0795456  81.9953217   6.4854587  58.0273229  86.5167753
   6.1212794  57.5003850  87.2280674   7.3421703  57.6371698  86.3434238
  12.3903888  49.3167562  93.7799019  12.0587212  50.1862973  93.5560234
  11.7949501  49.0003846  94.4593049   6.1260074  53.0563129  81.5129101
   6.2934476  53.9243365  81.8799572   5.9357243  53.2190411  80.5890390
  12.2832551  54.0362648  90.8592369  11.3749428  53.9678056  90.5651130
  12.2320147  54.5134593  91.6874194   6.1049295  55.5120786  82.4975768
   5.9848920  55.9577837  83.3361248   5.4101883  55.8606104  81.9389306
  14.1494197  52.2379086  92.6370243  13.5068578  52.5311620  91.9910037
  13.6449126  52.1232007  93.4423439  11.8034361  55.9842260  83.3256102
  12.7152217  56.2169646  83.1503800  11.2944008  56.5679304  82.7631181
  10.4103943  60.9668078  90.7169684   9.7812806  61.1313792  90.0145751
  10.0229605  61.3809688  91.4880648  14.2893175  61.9022516  88.0714047
  13.6044213  62.2821417  87.5211081  14.3737025  62.5117842  88.8045995
   9.1470336  52.1600296  91.5745963   8.2854815  52.4581549  91.8662701
   9.1732770  52.3770694  90.6426996   5.9631905  60.7042486  87.9819769
   6.4270251  60.9830189  87.1924391   5.6988703  59.8025931  87.7992859
   4.9000791  56.8265638  84.7909334   5.6024835  57.2786682  85.2583260
   4.5681420  56.1849457  85.4189227  12.6589935  62.4254430  92.8431748
  13.4807379  62.0234618  92.5614430  12.6552338  62.3222664  93.7947864
  20.7495928  58.7693179  89.1916720  19.9959636  58.2000577  89.0360724
  20.8843469  58.7355843  90.1387354   6.1394556  63.6406581  84.8671439
   6.0040231  64.4858117  85.2956287   6.6804368  63.8425859  84.1037373
   9.4537302  57.1545754  81.9042768   8.9383926  57.9250359  82.1431155
   9.1814611  56.4810890  82.5275829   7.0384413  51.9995455  86.9628006
   6.1826010  51.6102305  86.7833645   7.4511365  52.0787416  86.1027791
   8.5683560  49.5341798  91.3619566   8.0648355  49.4971933  90.5487371
   8.8614167  50.4434541  91.4216222   4.8126446  49.6180528  90.3685747
   5.6779443  49.4223337  90.0091637   4.8803955  49.3890880  91.2955104
  14.4271576  59.9078109  83.8395941  13.6501019  59.5689268  83.3951103
  15.1063057  59.9130732  83.1650906   9.2423605  55.0272846  83.7302549
   8.9373741  55.3418995  84.5812692  10.1954048  55.1054266  83.7729882
   7.6870037  61.1863069  85.3795503   7.1591399  60.4515829  85.0668740
   7.1857540  61.9637746  85.1335471  12.6662883  59.3812090  90.4962549
  12.0086558  60.0711351  90.5842678  13.4703282  59.7708522  90.8396535
   2.4188765  51.8482736  87.7402114   2.9932517  51.6257917  87.0075307
   3.0059747  51.9171430  88.4930716  11.4768342  57.7356463  88.5466491
  11.9900224  58.3686454  89.0488201  12.1269566  57.1357658  88.1809851
   2.7458352  53.8787197  81.7598000   1.9095664  54.2161883  82.0807274
   2.6063122  53.7436177  80.8225136   4.7211433  48.7223985  86.4677184
   4.0675845  48.4073002  85.8433798   4.6791907  48.0999725  87.1937007
   5.8322637  59.0043280  78.3830476   4.9249699  58.7732533  78.5821625
   6.3293669  58.2080899  78.5704457   8.7390716  67.7140787  81.3027162
   8.0652415  68.0172484  81.9112120   9.1256538  68.5169867  80.9532619
   7.9549173  55.2105918  90.7924831   7.0371734  55.4320865  90.6346519
   8.3709317  55.2852229  89.9336539   8.7384221  56.6097334  85.9227512
   9.4856040  57.1218731  85.6134634   9.0075810  56.2881387  86.7831905
   7.0110871  59.1055875  82.9054466   6.1022090  58.8214907  83.0026936
   7.0405955  59.5254953  82.0457773  12.2430138  62.7162464  86.6745633
  11.7892465  61.8753374  86.7310824  11.6124105  63.3523862  87.0120414
  11.1863058  53.6454450  87.9046301  10.4485815  53.1331836  88.2356543
  11.4389831  53.2054832  87.0929578  10.6863078  64.5538961  87.6095452
  10.9786052  65.1144018  86.8907817  11.1961698  64.8467522  88.3648611
  11.2874685  46.4230702  88.4988070  11.5933562  45.5628066  88.2113985
  12.0127290  47.0148322  88.2987064   5.5595765  56.7184495  89.0064261
   5.6144375  55.7658332  88.9306738   4.7486967  56.8743934  89.4905560
   6.7086959  60.6464618  80.2442544   6.2706389  59.9300477  79.7848182
   7.4497400  60.8740733  79.6827636   3.4988125  55.3361555  86.7654640
   2.6855990  55.6355725  87.1719832   3.9947119  54.9417244  87.4829122
  14.8260073  58.9221815  86.3018863  14.6877972  59.1123411  85.3740052
  14.4696292  59.6841198  86.7586914  14.8529453  60.9898342  91.3130135
  15.2865960  60.8973631  92.1613189  15.5661034  60.9655843  90.6750151
  15.7145003  61.0322043  93.8463020  15.9080893  61.9367853  94.0922295
  15.6145621  60.5729462  94.6801605   6.9381931  67.8820459  83.5174241
   7.1133687  67.4108503  84.3319864   6.2514719  68.5086226  83.7455502
  10.8298186  59.5049000  79.8374602  10.2127357  58.7795828  79.7407655
  10.3614675  60.2658360  79.4941676   2.6196732  53.7234424  78.9595906
   1.7426199  53.6023225  78.5958153   3.0954485  52.9320503  78.7074795
   9.1157308  51.8855344  88.8492632   9.6126008  51.1325306  88.5293702
   8.3444290  51.9219661  88.2835842  16.9687066  57.5895710  90.4910924
  16.9576942  58.4720425  90.1204857  16.1004445  57.2367260  90.2965461
  10.1987089  60.6427031  86.4231056   9.2643368  60.7628494  86.2535760
  10.3763757  59.7399498  86.1591065   5.6992277  54.0272727  88.5764317
   5.3290065  53.4743767  89.2645222   6.1951370  53.4230861  88.0239317
  13.5859640  56.4844351  86.9581090  14.0520093  57.3172342  86.8841392
  14.0367141  56.0189332  87.6626348  11.6535871  62.8288172  83.9567242
  11.9295715  62.7144766  84.8661116  10.7840370  62.4305657  83.9179415
  11.5576303  48.8524938  90.9971991  10.6439383  49.0829164  91.1654198
  11.9869405  48.9363382  91.8486023  11.3282762  57.0414829  93.4971885
  10.6754212  57.2890737  92.8424338  11.7063142  56.2278968  93.1634362
   8.2889935  67.0774523  87.6000055   8.4712330  66.2596179  88.0627808
   9.1122922  67.2942215  87.1624945   8.6232101  66.0042708  84.8615104
   9.1519867  65.4935162  84.2485266   8.8860321  65.6885238  85.7260637
   8.3242846  64.6345280  89.0343123   8.1767809  63.7061987  89.2150693
   9.1496340  64.6565371  88.5500198   2.1905091  53.2863347  84.8923615
   2.5301163  53.8149268  84.1702223   2.6377211  53.6243753  85.6682181
  11.9276968  65.4573839  90.1207995  12.8523516  65.2516700  89.9832447
  11.7592272  65.2090240  91.0297337   4.1773238  51.7837969  83.0916908
   4.8981600  52.1619221  82.5880624   3.5538542  52.5026845  83.1951886
   8.3204361  52.4883117  84.0275240   8.5367975  53.3707755  83.7264068
   7.8398428  52.0969331  83.2980882   4.9199965  52.4371379  90.6526874
   4.9061534  51.5412472  90.3159172   5.6372393  52.4442042  91.2865160
   6.7726096  52.8708719  92.6980001   6.5143874  53.7925790  92.6964332
   6.2411136  52.4739153  93.3880466  11.7172285  65.9759506  85.4770087
  11.8909162  65.4105928  84.7243939  12.2101176  66.7760401  85.2949577
   4.3236861  51.3185759  85.9214444   4.4452772  50.3902405  86.1205332
   4.0338903  51.3324445  85.0092760   7.1928051  49.0040669  89.0581164
   7.2149748  49.0680002  88.1033144   7.6096110  48.1645178  89.2521670
  17.5711676  58.7395929  87.0960387  18.0142822  57.9903254  86.6979510
  16.6938186  58.7306065  86.7134119  12.7047457  65.2926270  82.5766985
  13.3998362  65.9132963  82.7954300  13.0470607  64.4421622  82.8519363
  14.6038880  62.7425976  84.1054316  15.1290204  63.0813249  83.3803636
  14.5161233  61.8072991  83.9217451   3.2966920  62.9039892  84.0130331
   3.4455040  63.5875356  83.3597004   4.1033363  62.8844982  84.5279787
  17.1144540  60.2101167  89.4882834  17.9491432  60.6490971  89.6520395
  17.2503669  59.7339820  88.6691080  14.1636046  57.7680902  95.4360322
  14.6390168  57.9608548  94.6279173  13.2401612  57.8240088  95.1903706
   1.0519553  58.9305069  85.0191400   0.8065595  58.0267399  85.2171610
   1.2215467  58.9322220  84.0770878   8.9928857  46.2229028  89.9217052
   9.2730611  45.5552217  90.5477479   9.7779464  46.4158124  89.4091716
   6.7962325  65.3988022  81.4842079   6.2236293  66.0178209  81.0312551
   7.3695119  65.9487384  82.0182001  12.8637715  54.6446662  93.6688628
  13.8155138  54.7444760  93.6900852  12.6941166  53.8524931  94.1786712
  10.8852095  51.7302245  93.8548028  10.2902027  52.0107258  93.1594517
  10.6001791  52.2196146  94.6264770  10.0159585  65.6825172  82.6150661
  10.9490258  65.6170734  82.8183537   9.9282798  66.5181439  82.1565194
  12.6447602  64.9991043  79.5754609  12.5661233  64.6650906  80.4690366
  13.4657269  65.4912810  79.5746081  15.3425793  57.8652782  92.7830927
  15.3102113  56.9268783  92.9690611  15.9526417  57.9436819  92.0496752
   7.1809124  56.7348835  78.8258131   8.1268229  56.6055043  78.8946549
   6.8023369  55.9963497  79.3027559  15.4920282  54.6563825  92.8289210
  14.9759330  53.8722282  92.6419139  16.3760230  54.3282542  92.9935730
  13.1531009  48.4004841  88.7885023  12.9555830  48.0919929  89.6728355
  13.7630714  49.1266480  88.9182953  21.1602343  58.9268789  91.9236964
  21.8905731  58.6654077  92.4844667  20.5509288  58.1897511  91.9639032
  19.2417640  57.0676651  92.5211415  18.5150804  56.9332616  91.9127907
  18.8264927  57.3753480  93.3268133   5.3652041  54.6598811  78.7613016
   4.4583497  54.3631924  78.8375730   5.6428022  54.3628629  77.8947303
   6.9814107  49.2035701  84.9157258   6.1714835  48.8582786  85.2912504
   7.6698524  48.8943245  85.5044869   8.9104655  48.2813748  86.5381554
   9.4635694  48.7009201  87.1971577   9.1474741  47.3549496  86.5804510
   4.1350826  51.5185746  78.9024996   4.9969990  51.8440645  79.1620813
   4.3201170  50.7317242  78.3898061  12.2883462  50.3914273  86.0460219
  11.7082131  51.0499077  85.6638271  12.0219395  49.5691618  85.6347636
  10.7387029  49.7919331  88.2481539  11.2386807  49.9035865  87.4395858
  11.3822637  49.4880383  88.8882347  11.0708340  52.5514363  85.1016567
  10.1834195  52.8364014  84.8836762  11.4862329  52.3908127  84.2543844
  14.4222876  52.5760884  88.8170906  15.1983266  53.0657337  89.0895523
  13.6971011  53.0018938  89.2742776  16.8595435  53.2888504  89.8744847
  17.4539926  53.0484239  89.1638155  16.9322019  52.5695634  90.5018383
  10.2151554  62.3159038  79.1964587  10.9187404  62.5209040  79.8122242
   9.4914202  62.8835800  79.4613670  11.0449364  58.0668899  85.3166857
  10.9884565  58.5237451  84.4774489  11.5977706  57.3059584  85.1389700
  14.8554170  53.8558631  86.1416977  14.5991104  53.4555267  86.9725184
  14.2307038  54.5702425  86.0167116  19.1666508  56.5954704  88.6488268
  18.6066066  56.6647894  89.4219830  18.5610011  56.4195689  87.9287764
  12.1238251  62.7541567  81.2463047  12.9583855  62.3222766  81.0640522
  11.9622594  62.5823581  82.1739941  11.7784143  59.2573680  82.6119386
  11.7232947  59.0917952  81.6707830  11.1530199  59.9649713  82.7681576
   5.0880269  48.7581789  82.1904705   5.0758939  49.7023629  82.3472975
   5.9803691  48.5751935  81.8964166   8.9032388  45.3524566  86.4450641
   8.1364784  44.7983053  86.5907324   9.3143093  45.4246435  87.3064793
  20.7522526  73.2711218  91.3418224  21.3900936  73.1517966  90.6381564
  20.6343369  74.2192062  91.4006176  17.5612232  73.2238646  91.2779748
  17.2230744  73.1079711  90.3900283  18.4302001  72.8229811  91.2580755
  18.9998607  78.7445091  82.5791104  18.3486587  79.3299171  82.1925118
  19.7942970  79.2751285  82.6386142  12.9254234  75.8334228  82.9778239
  13.6985110  75.2863215  82.8391114  13.2779633  76.6978477  83.1892700
  15.2620512  71.9926894  80.6096688  15.5146033  71.4708415  79.8480151
  14.3245071  71.8293039  80.7123372  20.3063795  70.9962672  88.4171432
  21.0926884  70.5782095  88.0661849  20.5702499  71.9008764  88.5853080
  20.4773872  76.4335522  83.1160089  19.8419705  76.5070149  83.8280993
  20.1471278  77.0229121  82.4379168  14.9816801  73.8955000  82.8121063
  14.8653059  73.2199903  83.4802148  15.0919061  73.4087374  81.9953217
  17.3248342  73.3565147  86.5167753  16.9606549  72.8295768  87.2280674
  18.1815457  72.9663616  86.3434238  23.2297642  64.6459479  93.7799019
  22.8980967  65.5154890  93.5560234  22.6343256  64.3295763  94.4593049
  16.9653829  68.3855047  81.5129101  17.1328231  69.2535283  81.8799572
  16.7750998  68.5482328  80.5890390  23.1226306  69.3654566  90.8592369
  22.2143183  69.2969974  90.5651130  23.0713901  69.8426511  91.6874194
  16.9443049  70.8412704  82.4975768  16.8242675  71.2869755  83.3361248
  16.2495638  71.1898022  81.9389306  24.9887952  67.5671004  92.6370243
  24.3462332  67.8603537  91.9910037  24.4842880  67.4523924  93.4423439
  22.6428116  71.3134177  83.3256102  23.5545972  71.5461564  83.1503800
  22.1337763  71.8971221  82.7631181  21.2497698  76.2959996  90.7169684
  20.6206560  76.4605710  90.0145751  20.8623360  76.7101605  91.4880648
  25.1286930  77.2314434  88.0714047  24.4437968  77.6113335  87.5211081
  25.2130779  77.8409760  88.8045995  19.9864090  67.4892213  91.5745963
  19.1248569  67.7873467  91.8662701  20.0126525  67.7062612  90.6426996
  16.8025660  76.0334404  87.9819769  17.2664005  76.3122107  87.1924391
  16.5382458  75.1317848  87.7992859  15.7394546  72.1557556  84.7909334
  16.4418589  72.6078600  85.2583260  15.4075174  71.5141375  85.4189227
  23.4983689  77.7546348  92.8431748  24.3201133  77.3526535  92.5614430
  23.4946092  77.6514582  93.7947864  31.5889682  74.0985096  89.1916720
  30.8353391  73.5292495  89.0360724  31.7237224  74.0647761  90.1387354
  16.9788310  78.9698499  84.8671439  16.8433985  79.8150034  85.2956287
  17.5198123  79.1717776  84.1037373  20.3280774  62.4929061  93.3970332
  19.9845043  63.3830702  93.3209443  20.6959737  62.3030718  92.5339917
  20.2931057  72.4837672  81.9042768  19.7777680  73.2542276  82.1431155
  20.0208365  71.8102808  82.5275829  17.8778168  67.3287373  86.9628006
  17.0219764  66.9394223  86.7833645  18.2905120  67.4079333  86.1027791
  19.4077314  64.8633716  91.3619566  18.9042110  64.8263851  90.5487371
  19.7007921  65.7726458  91.4216222  15.6520200  64.9472445  90.3685747
  16.5173197  64.7515254  90.0091637  15.7197709  64.7182797  91.2955104
  25.2665331  75.2370026  83.8395941  24.4894774  74.8981186  83.3951103
  25.9456812  75.2422650  83.1650906  20.0817360  70.3564764  83.7302549
  19.7767495  70.6710913  84.5812692  21.0347802  70.4346184  83.7729882
  18.5263792  76.5154987  85.3795503  17.9985153  75.7807747  85.0668740
  18.0251294  77.2929663  85.1335471  23.5056638  74.7104008  90.4962549
  22.8480312  75.4003269  90.5842678  24.3097037  75.1000440  90.8396535
  13.2582519  67.1774653  87.7402114  13.8326271  66.9549835  87.0075307
  13.8453502  67.2463348  88.4930716  22.3162097  73.0648380  88.5466491
  22.8293978  73.6978372  89.0488201  22.9663320  72.4649576  88.1809851
  13.5852106  69.2079114  81.7598000  12.7489419  69.5453801  82.0807274
  13.4456876  69.0728094  80.8225136  15.5605187  64.0515902  86.4677184
  14.9069599  63.7364919  85.8433798  15.5185661  63.4291643  87.1937007
  16.6716392  74.3335197  78.3830476  15.7643454  74.1024451  78.5821625
  17.1687424  73.5372817  78.5704457  19.5784471  83.0432705  81.3027162
  18.9046170  83.3464401  81.9112120  19.9650293  83.8461785  80.9532619
  18.7942927  70.5397836  90.7924831  17.8765489  70.7612783  90.6346519
  19.2103071  70.6144146  89.9336539  19.5777975  71.9389252  85.9227512
  20.3249794  72.4510649  85.6134634  19.8469565  71.6173304  86.7831905
  17.8504625  74.4347792  82.9054466  16.9415845  74.1506825  83.0026936
  17.8799709  74.8546871  82.0457773  23.0823893  78.0454382  86.6745633
  22.6286220  77.2045292  86.7310824  22.4517859  78.6815780  87.0120414
  22.0256812  68.9746368  87.9046301  21.2879569  68.4623754  88.2356543
  22.2783586  68.5346749  87.0929578  21.5256832  79.8830878  87.6095452
  21.8179806  80.4435936  86.8907817  22.0355453  80.1759439  88.3648611
  22.1268440  61.7522620  88.4988070  22.4327316  60.8919983  88.2113985
  22.8521044  62.3440240  88.2987064  16.3989519  72.0476413  89.0064261
  16.4538129  71.0950249  88.9306738  15.5880721  72.2035852  89.4905560
  17.5480713  75.9756536  80.2442544  17.1100143  75.2592395  79.7848182
  18.2891154  76.2032651  79.6827636  14.3381879  70.6653473  86.7654640
  13.5249745  70.9647643  87.1719832  14.8340873  70.2709161  87.4829122
  25.6653828  74.2513733  86.3018863  25.5271727  74.4415329  85.3740052
  25.3090047  75.0133116  86.7586914  25.6923208  76.3190260  91.3130135
  26.1259714  76.2265549  92.1613189  26.4054788  76.2947760  90.6750151
  10.9139021  71.6817340  84.5710620   9.9836610  71.6201796  84.7880582
  11.0096493  71.1593293  83.7747261  10.8324570  68.2072153  87.1588862
  11.0931388  69.1217486  87.0498022  11.6541743  67.7396596  87.3085475
  26.5538757  76.3613961  93.8463020  26.7474647  77.2659771  94.0922295
  26.4539375  75.9021380  94.6801605  17.7775686  83.2112377  83.5174241
  17.9527442  82.7400420  84.3319864  17.0908474  83.8378143  83.7455502
  21.6691941  74.8340918  79.8374602  21.0521111  74.1087746  79.7407655
  21.2008429  75.5950278  79.4941676  13.4590487  69.0526342  78.9595906
  12.5819953  68.9315143  78.5958153  13.9348240  68.2612420  78.7074795
  19.9551063  67.2147262  88.8492632  20.4519762  66.4617224  88.5293702
  19.1838044  67.2511578  88.2835842  27.8080820  72.9187627  90.4910924
  27.7970696  73.8012343  90.1204857  26.9398200  72.5659178  90.2965461
  21.0380844  75.9718949  86.4231056  20.1037122  76.0920411  86.2535760
  21.2157512  75.0691416  86.1591065  16.5386032  69.3564645  88.5764317
  16.1683819  68.8035685  89.2645222  17.0345124  68.7522778  88.0239317
  24.4253395  71.8136268  86.9581090  24.8913847  72.6464260  86.8841392
  24.8760895  71.3481250  87.6626348  22.4929626  78.1580090  83.9567242
  22.7689470  78.0436684  84.8661116  21.6234125  77.7597574  83.9179415
  22.3970058  64.1816855  90.9971991  21.4833137  64.4121082  91.1654198
  22.8263159  64.2655299  91.8486023  22.1676516  72.3706747  93.4971885
  21.5147966  72.6182655  92.8424338  22.5456896  71.5570885  93.1634362
  19.1283690  82.4066440  87.6000055  19.3106085  81.5888096  88.0627808
  19.9516676  82.6234133  87.1624945  19.4625855  81.3334625  84.8615104
  19.9913622  80.8227080  84.2485266  19.7254075  81.0177156  85.7260637
   8.1869181  70.6468197  84.4008812   8.4822622  69.7378876  84.3475866
   7.2857216  70.6255937  84.0789814   9.9157022  68.3282295  84.5248137
   9.5869728  67.4479674  84.3423243  10.2696393  68.2729963  85.4124526
  19.1636601  79.9637198  89.0343123  19.0161563  79.0353905  89.2150693
  19.9890094  79.9857288  88.5500198  13.0298845  68.6155265  84.8923615
  13.3694918  69.1441186  84.1702223  13.4770966  68.9535671  85.6682181
  22.7670723  80.7865756  90.1207995  23.6917270  80.5808618  89.9832447
  22.5986026  80.5382157  91.0297337  16.3758758  64.0841628  92.7954006
  17.1984827  63.6102106  92.6732896  16.6196821  64.8632111  93.2952692
  15.0166992  67.1129886  83.0916908  15.7375355  67.4911139  82.5880624
  14.3932297  67.8318763  83.1951886  19.1598115  67.8175035  84.0275240
  19.3761730  68.6999673  83.7264068  18.6792182  67.4261249  83.2980882
  15.7593720  67.7663296  90.6526874  15.7455288  66.8704390  90.3159172
  16.4766148  67.7733960  91.2865160  17.6119850  68.2000637  92.6980001
  17.3537628  69.1217707  92.6964332  17.0804891  67.8031071  93.3880466
  22.5566039  81.3051424  85.4770087  22.7302917  80.7397846  84.7243939
  23.0494930  82.1052319  85.2949577  15.1630615  66.6477677  85.9214444
  15.2846527  65.7194323  86.1205332  14.8732658  66.6616363  85.0092760
  18.0321806  64.3332587  89.0581164  18.0543503  64.3971920  88.1033144
  18.4489865  63.4937096  89.2521670  28.4105430  74.0687847  87.0960387
  28.8536576  73.3195172  86.6979510  27.5331940  74.0597983  86.7134119
  23.5441212  80.6218188  82.5766985  24.2392116  81.2424881  82.7954300
  23.8864362  79.7713539  82.8519363  25.4432635  78.0717894  84.1054316
  25.9683959  78.4105166  83.3803636  25.3554987  77.1364909  83.9217451
  14.1360674  78.2331809  84.0130331  14.2848795  78.9167274  83.3597004
  14.9427118  78.2136899  84.5279787  27.9538295  75.5393085  89.4882834
  28.7885186  75.9782889  89.6520395  28.0897424  75.0631738  88.6691080
  25.0029801  73.0972820  95.4360322  25.4783922  73.2900466  94.6279173
  24.0795366  73.1532006  95.1903706  11.8913307  74.2596987  85.0191400
  11.6459349  73.3559317  85.2171610  12.0609222  74.2614137  84.0770878
  19.5810017  65.1320663  94.4016156  20.0991961  65.8681690  94.0762644
  19.2265150  65.4384657  95.2362915  11.1608955  69.9925345  82.5177562
  10.4678200  70.0669700  81.8617598  10.9160707  69.2285688  83.0399079
  19.8322611  61.5520946  89.9217052  20.1124365  60.8844135  90.5477479
  20.6173218  61.7450041  89.4091716  17.6356080  80.7279940  81.4842079
  17.0630047  81.3470127  81.0312551  18.2088874  81.2779301  82.0182001
  23.7031470  69.9738580  93.6688628  24.6548893  70.0736678  93.6900852
  23.5334920  69.1816848  94.1786712  21.7245849  67.0594163  93.8548028
  21.1295781  67.3399176  93.1594517  21.4395546  67.5488064  94.6264770
  20.8553340  81.0117090  82.6150661  21.7884013  80.9462652  82.8183537
  20.7676553  81.8473357  82.1565194  23.4841356  80.3282960  79.5754609
  23.4054988  79.9942824  80.4690366  24.3051023  80.8204728  79.5746081
  26.1819548  73.1944700  92.7830927  26.1495868  72.2560700  92.9690611
  26.7920171  73.2728736  92.0496752  18.0202878  72.0640753  78.8258131
  18.9661983  71.9346961  78.8946549  17.6417123  71.3255414  79.3027559
  26.3314036  69.9855743  92.8289210  25.8153085  69.2014200  92.6419139
  27.2153985  69.6574460  92.9935730  23.9924763  63.7296759  88.7885023
  23.7949584  63.4211847  89.6728355  24.6024469  64.4558397  88.9182953
  31.9996097  74.2560706  91.9236964  32.7299486  73.9945995  92.4844667
  31.3903043  73.5189428  91.9639032  30.0811395  72.3968569  92.5211415
  29.3544558  72.2624534  91.9127907  29.6658681  72.7045398  93.3268133
  16.2045796  69.9890729  78.7613016  15.2977251  69.6923842  78.8375730
  16.4821777  69.6920547  77.8947303  17.8207861  64.5327619  84.9157258
  17.0108590  64.1874704  85.2912504  18.5092278  64.2235162  85.5044869
  19.7498410  63.6105665  86.5381554  20.3029448  64.0301119  87.1971577
  19.9868496  62.6841414  86.5804510  14.9744580  66.8477664  78.9024996
  15.8363744  67.1732562  79.1620813  15.1594924  66.0609160  78.3898061
  23.1277217  65.7206191  86.0460219  22.5475886  66.3790995  85.6638271
  22.8613149  64.8983535  85.6347636  21.5780783  65.1211248  88.2481539
  22.0780561  65.2327783  87.4395858  22.2216391  64.8172301  88.8882347
  21.9102095  67.8806281  85.1016567  21.0227950  68.1655932  84.8836762
  22.3256084  67.7200044  84.2543844  25.2616631  67.9052802  88.8170906
  26.0377021  68.3949254  89.0895523  24.5364765  68.3310856  89.2742776
  27.6989189  68.6180421  89.8744847  28.2933680  68.3776157  89.1638155
  27.7715773  67.8987552  90.5018383  21.0545308  77.6450956  79.1964587
  21.7581158  77.8500958  79.8122242  20.3307957  78.2127718  79.4613670
  21.8843118  73.3960817  85.3166857  21.8278320  73.8529368  84.4774489
  22.4371461  72.6351502  85.1389700  25.6947924  69.1850549  86.1416977
  25.4384859  68.7847184  86.9725184  25.0700792  69.8994343  86.0167116
  30.0060262  71.9246622  88.6488268  29.4459820  71.9939811  89.4219830
  29.4003766  71.7487607  87.9287764  22.9632006  78.0833485  81.2463047
  23.7977610  77.6514683  81.0640522  22.8016349  77.9115499  82.1739941
  22.6177898  74.5865598  82.6119386  22.5626702  74.4209870  81.6707830
  21.9923953  75.2941631  82.7681576  15.9274023  64.0873707  82.1904705
  15.9152693  65.0315547  82.3472975  16.8197445  63.9043853  81.8964166
  19.7426143  60.6816484  86.4450641  18.9758539  60.1274971  86.5907324
  20.1536848  60.7538353  87.3064793  31.5916281  88.6003136  91.3418224
  32.2294691  88.4809883  90.6381564  31.4737124  89.5483980  91.4006176
  28.4005987  88.5530564  91.2779748  28.0624499  88.4371629  90.3900283
  29.2695755  88.1521729  91.2580755  29.8392361  94.0737008  82.5791104
  29.1880341  94.6591089  82.1925118  30.6336724  94.6043203  82.6386142
  23.7647989  91.1626145  82.9778239  24.5378865  90.6155132  82.8391114
  24.1173387  92.0270395  83.1892700  26.1014266  87.3218811  80.6096688
  26.3539787  86.8000333  79.8480151  25.1638825  87.1584957  80.7123372
  31.1457549  86.3254590  88.4171432  31.9320638  85.9074013  88.0661849
  31.4096254  87.2300682  88.5853080  31.3167627  91.7627440  83.1160089
  30.6813460  91.8362067  83.8280993  30.9865033  92.3521039  82.4379168
  36.5465976  86.2629823  89.3204410  37.2791148  85.6929040  89.5542240
  35.7905332  85.8751423  89.7610916  25.8210555  89.2246917  82.8121063
  25.7046813  88.5491821  83.4802148  25.9312815  88.7379291  81.9953217
  28.1642096  88.6857065  86.5167753  27.8000303  88.1587685  87.2280674
  29.0209212  88.2955534  86.3434238  34.0691397  79.9751397  93.7799019
  33.7374721  80.8446808  93.5560234  33.4737010  79.6587681  94.4593049
  27.8047583  83.7146964  81.5129101  27.9721985  84.5827201  81.8799572
  27.6144752  83.8774246  80.5890390  33.9620060  84.6946483  90.8592369
  33.0536937  84.6261892  90.5651130  33.9107656  85.1718428  91.6874194
  27.7836804  86.1704622  82.4975768  27.6636429  86.6161672  83.3361248
  27.0889392  86.5189939  81.9389306  35.8281706  82.8962922  92.6370243
  35.1856087  83.1895455  91.9910037  35.3236635  82.7815842  93.4423439
  33.4821870  86.6426095  83.3256102  34.3939726  86.8753482  83.1503800
  32.9731517  87.2263139  82.7631181  32.0891452  91.6251913  90.7169684
  31.4600315  91.7897627  90.0145751  31.7017114  92.0393523  91.4880648
  35.9680684  92.5606351  88.0714047  35.2831722  92.9405253  87.5211081
  36.0524534  93.1701678  88.8045995  30.8257845  82.8184131  91.5745963
  29.9642324  83.1165384  91.8662701  30.8520279  83.0354530  90.6426996
  27.6419414  91.3626321  87.9819769  28.1057760  91.6414024  87.1924391
  27.3776212  90.4609766  87.7992859  26.5788300  87.4849474  84.7909334
  27.2812344  87.9370517  85.2583260  26.2468929  86.8433293  85.4189227
  42.4283437  89.4277014  89.1916720  41.6747145  88.8584412  89.0360724
  42.5630978  89.3939679  90.1387354  27.8182065  94.2990416  84.8671439
  27.6827740  95.1441952  85.2956287  28.3591877  94.5009694  84.1037373
  31.1674528  77.8220978  93.3970332  30.8238798  78.7122620  93.3209443
  31.5353491  77.6322636  92.5339917  31.1324811  87.8129589  81.9042768
  30.6171435  88.5834194  82.1431155  30.8602120  87.1394726  82.5275829
  28.7171922  82.6579290  86.9628006  27.8613519  82.2686141  86.7833645
  29.1298874  82.7371251  86.1027791  30.2471069  80.1925633  91.3619566
  29.7435864  80.1555769  90.5487371  30.5401676  81.1018376  91.4216222
  26.4913955  80.2764363  90.3685747  27.3566952  80.0807172  90.0091637
  26.5591464  80.0474715  91.2955104  36.1059085  90.5661944  83.8395941
  35.3288528  90.2273104  83.3951103  36.7850566  90.5714567  83.1650906
  30.9211114  85.6856682  83.7302549  30.6161250  86.0002831  84.5812692
  31.8741557  85.7638101  83.7729882  29.3657546  91.8446905  85.3795503
  28.8378908  91.1099664  85.0668740  28.8645049  92.6221581  85.1335471
  34.3450392  90.0395925  90.4962549  33.6874067  90.7295187  90.5842678
  35.1490791  90.4292357  90.8396535  24.0976274  82.5066571  87.7402114
  24.6720026  82.2841753  87.0075307  24.6847256  82.5755266  88.4930716
  33.1555851  88.3940298  88.5466491  33.6687733  89.0270290  89.0488201
  33.8057075  87.7941494  88.1809851  24.4245861  84.5371032  81.7598000
  23.5883173  84.8745719  82.0807274  24.2850631  84.4020012  80.8225136
  26.3998942  79.3807820  86.4677184  25.7463354  79.0656837  85.8433798
  26.3579416  78.7583560  87.1937007  27.5110146  89.6627115  78.3830476
  26.6037208  89.4316369  78.5821625  28.0081178  88.8664734  78.5704457
  29.6336682  85.8689754  90.7924831  28.7159243  86.0904701  90.6346519
  30.0496826  85.9436064  89.9336539  30.4171730  87.2681169  85.9227512
  31.1643549  87.7802566  85.6134634  30.6863319  86.9465222  86.7831905
  28.6898380  89.7639710  82.9054466  27.7809599  89.4798743  83.0026936
  28.7193464  90.1838789  82.0457773  33.9217647  93.3746299  86.6745633
  33.4679974  92.5337209  86.7310824  33.2911614  94.0107698  87.0120414
  32.8650567  84.3038285  87.9046301  32.1273324  83.7915672  88.2356543
  33.1177340  83.8638667  87.0929578  32.3650586  95.2122796  87.6095452
  32.6573561  95.7727853  86.8907817  32.8749207  95.5051357  88.3648611
  32.9662194  77.0814537  88.4988070  33.2721071  76.2211901  88.2113985
  33.6914799  77.6732158  88.2987064  27.2383274  87.3768331  89.0064261
  27.2931884  86.4242167  88.9306738  26.4274476  87.5327770  89.4905560
  28.3874468  91.3048454  80.2442544  27.9493898  90.5884313  79.7848182
  29.1284909  91.5324568  79.6827636  25.1775634  85.9945390  86.7654640
  24.3643499  86.2939561  87.1719832  25.6734628  85.6001079  87.4829122
  36.5047582  89.5805651  86.3018863  36.3665481  89.7707247  85.3740052
  36.1483801  90.3425033  86.7586914  36.5316962  91.6482178  91.3130135
  36.9653469  91.5557467  92.1613189  37.2448543  91.6239678  90.6750151
  21.7532776  87.0109258  84.5710620  20.8230364  86.9493713  84.7880582
  21.8490248  86.4885211  83.7747261  21.6718325  83.5364071  87.1588862
  21.9325142  84.4509404  87.0498022  22.4935497  83.0688513  87.3085475
  32.5085695  90.1632835  79.8374602  31.8914866  89.4379663  79.7407655
  32.0402184  90.9242196  79.4941676  24.2984241  84.3818260  78.9595906
  23.4213707  84.2607060  78.5958153  24.7741994  83.5904338  78.7074795
  30.7944817  82.5439179  88.8492632  31.2913517  81.7909142  88.5293702
  30.0231799  82.5803496  88.2835842  38.6474575  88.2479545  90.4910924
  38.6364451  89.1304260  90.1204857  37.7791954  87.8951096  90.2965461
  31.8774598  91.3010867  86.4231056  30.9430877  91.4212329  86.2535760
  32.0551266  90.3983333  86.1591065  27.3779786  84.6856562  88.5764317
  27.0077574  84.1327603  89.2645222  27.8738879  84.0814696  88.0239317
  35.2647149  87.1428186  86.9581090  35.7307602  87.9756177  86.8841392
  35.7154650  86.6773167  87.6626348  33.3323380  93.4872007  83.9567242
  33.6083224  93.3728602  84.8661116  32.4627879  93.0889492  83.9179415
  33.2363812  79.5108773  90.9971991  32.3226892  79.7413000  91.1654198
  33.6656914  79.5947217  91.8486023  33.0070271  87.6998665  93.4971885
  32.3541721  87.9474572  92.8424338  33.3850650  86.8862803  93.1634362
  19.0262935  85.9760115  84.4008812  19.3216376  85.0670793  84.3475866
  18.1250971  85.9547854  84.0789814  20.7550777  83.6574212  84.5248137
  20.4263483  82.7771591  84.3423243  21.1090147  83.6021881  85.4124526
  30.0030355  95.2929115  89.0343123  29.8555318  94.3645823  89.2150693
  30.8283849  95.3149206  88.5500198  23.8692600  83.9447182  84.8923615
  24.2088672  84.4733104  84.1702223  24.3164720  84.2827588  85.6682181
  33.6064477  96.1157674  90.1207995  34.5311025  95.9100535  89.9832447
  33.4379781  95.8674075  91.0297337  27.2152512  79.4133545  92.7954006
  28.0378582  78.9394024  92.6732896  27.4590576  80.1924029  93.2952692
  25.8560747  82.4421804  83.0916908  26.5769109  82.8203057  82.5880624
  25.2326051  83.1610681  83.1951886  29.9991870  83.1466953  84.0275240
  30.2155484  84.0291591  83.7264068  29.5185937  82.7553166  83.2980882
  26.5987474  83.0955214  90.6526874  26.5849043  82.1996307  90.3159172
  27.3159902  83.1025878  91.2865160  28.4513605  83.5292554  92.6980001
  28.1931383  84.4509625  92.6964332  27.9198645  83.1322989  93.3880466
  33.3959794  96.6343341  85.4770087  33.5696671  96.0689764  84.7243939
  33.8888685  97.4344236  85.2949577  26.0024370  81.9769594  85.9214444
  26.1240281  81.0486240  86.1205332  25.7126412  81.9908280  85.0092760
  28.8715560  79.6624505  89.0581164  28.8937257  79.7263838  88.1033144
  29.2883619  78.8229013  89.2521670  39.2499185  89.3979764  87.0960387
  39.6930331  88.6487090  86.6979510  38.3725695  89.3889901  86.7134119
  34.3834966  95.9510106  82.5766985  35.0785871  96.5716798  82.7954300
  34.7258116  95.1005457  82.8519363  36.2826389  93.4009811  84.1054316
  36.8077713  93.7397084  83.3803636  36.1948742  92.4656827  83.9217451
  24.9754429  93.5623727  84.0130331  25.1242549  94.2459191  83.3597004
  25.7820872  93.5428817  84.5279787  38.7932049  90.8685003  89.4882834
  39.6278941  91.3074807  89.6520395  38.9291178  90.3923656  88.6691080
  22.7307062  89.5888905  85.0191400  22.4853104  88.6851235  85.2171610
  22.9002976  89.5906055  84.0770878  30.4203772  80.4612581  94.4016156
  30.9385716  81.1973608  94.0762644  30.0658905  80.7676574  95.2362915
  30.6716366  76.8812864  89.9217052  30.9518120  76.2136053  90.5477479
  31.4566973  77.0741959  89.4091716  34.5425224  85.3030498  93.6688628
  35.4942647  85.4028595  93.6900852  34.3728675  84.5108766  94.1786712
  32.5639604  82.3886081  93.8548028  31.9689536  82.6691093  93.1594517
  32.2789300  82.8779982  94.6264770  34.3235111  95.6574878  79.5754609
  34.2448742  95.3234742  80.4690366  35.1444778  96.1496646  79.5746081
  37.0213302  88.5236617  92.7830927  36.9889622  87.5852618  92.9690611
  37.6313926  88.6020654  92.0496752  28.8596633  87.3932670  78.8258131
  29.8055738  87.2638878  78.8946549  28.4810878  86.6547332  79.3027559
  34.8318517  79.0588676  88.7885023  34.6343339  78.7503764  89.6728355
  35.4418223  79.7850315  88.9182953  40.9205149  87.7260487  92.5211415
  40.1938313  87.5916452  91.9127907  40.5052436  88.0337315  93.3268133
  27.0439550  85.3182647  78.7613016  26.1371006  85.0215759  78.8375730
  27.3215531  85.0212465  77.8947303  28.6601616  79.8619536  84.9157258
  27.8502344  79.5166621  85.2912504  29.3486033  79.5527080  85.5044869
  30.5892164  78.9397583  86.5381554  31.1423203  79.3593037  87.1971577
  30.8262250  78.0133331  86.5804510  25.8138335  82.1769582  78.9024996
  26.6757499  82.5024480  79.1620813  25.9988679  81.3901078  78.3898061
  33.9670971  81.0498108  86.0460219  33.3869640  81.7082912  85.6638271
  33.7006904  80.2275453  85.6347636  32.4174538  80.4503166  88.2481539
  32.9174316  80.5619701  87.4395858  33.0610146  80.1464219  88.8882347
  32.7495849  83.2098199  85.1016567  31.8621704  83.4947849  84.8836762
  33.1649838  83.0491962  84.2543844  36.1010385  83.2344720  88.8170906
  36.8770775  83.7241172  89.0895523  35.3758520  83.6602774  89.2742776
  38.5382944  83.9472339  89.8744847  39.1327435  83.7068075  89.1638155
  38.6109528  83.2279469  90.5018383  31.8939063  92.9742873  79.1964587
  32.5974913  93.1792876  79.8122242  31.1701711  93.5419635  79.4613670
  32.7236873  88.7252735  85.3166857  32.6672074  89.1821286  84.4774489
  33.2765215  87.9643419  85.1389700  36.5341679  84.5142466  86.1416977
  36.2778613  84.1139102  86.9725184  35.9094547  85.2286260  86.0167116
  40.8454017  87.2538540  88.6488268  40.2853575  87.3231729  89.4219830
  40.2397520  87.0779524  87.9287764  33.8025760  93.4125403  81.2463047
  34.6371364  92.9806601  81.0640522  33.6410103  93.2407416  82.1739941
  33.4571652  89.9157516  82.6119386  33.4020456  89.7501787  81.6707830
  32.8317708  90.6233549  82.7681576  26.7667778  79.4165625  82.1904705
  26.7546448  80.3607465  82.3472975  27.6591200  79.2335770  81.8964166
  30.5819897  76.0108401  86.4450641  29.8152293  75.4566888  86.5907324
  30.9930602  76.0830270  87.3064793  39.5565677  97.9871208  86.9628006
  38.7007273  97.5978058  86.7833645  39.9692628  98.0663169  86.1027791
  34.9370028  97.8358489  87.7402114  35.5113780  97.6133670  87.0075307
  35.5241011  97.9047183  88.4930716  37.2392696  94.7099738  86.4677184
  36.5857108  94.3948755  85.8433798  37.1973170  94.0875478  87.1937007
  43.8055949  92.4106455  88.4988070  44.1114825  91.5503819  88.2113985
  44.5308553  93.0024075  88.2987064  40.8385624  98.4758871  84.0275240
  41.0549239  99.3583508  83.7264068  40.3579691  98.0845084  83.2980882
  36.8418124  97.3061512  85.9214444  36.9634036  96.3778158  86.1205332
  36.5520167  97.3200198  85.0092760  39.7109315  94.9916422  89.0581164
  39.7331012  95.0555756  88.1033144  40.1277374  94.1520931  89.2521670
  41.5110120  92.2104781  89.9217052  41.7911874  91.5427970  90.5477479
  42.2960727  92.4033877  89.4091716  39.4995370  95.1911454  84.9157258
  38.6896099  94.8458539  85.2912504  40.1879787  94.8818998  85.5044869
  41.4285919  94.2689501  86.5381554  41.9816957  94.6884954  87.1971577
  41.6656005  93.3425249  86.5804510  36.6532089  97.5061499  78.9024996
  37.5151253  97.8316398  79.1620813  36.8382433  96.7192995  78.3898061
  44.8064726  96.3790026  86.0460219  44.2263395  97.0374830  85.6638271
  44.5400658  95.5567371  85.6347636  43.5889604  98.5390116  85.1016567
  42.7015459  98.8239767  84.8836762  44.0043593  98.3783880  84.2543844
  37.6061532  94.7457543  82.1904705  37.5940202  95.6899382  82.3472975
  38.4984954  94.5627688  81.8964166  41.4213652  91.3400319  86.4450641
  40.6546047  90.7858806  86.5907324  41.8324357  91.4122188  87.3064793
   3.4499422  23.5792721  74.7959354   2.7650460  23.9591622  74.2456387
   3.5343271  24.1888047  75.5291302   9.9102175  20.4463384  75.9162026
   9.1565883  19.8770782  75.7606031  10.0449716  20.4126048  76.8632661
   3.5877823  21.5848314  70.5641248   2.8107266  21.2459473  70.1196410
   4.2669304  21.5900937  69.8896213   1.4036385  24.3932669  73.3990940
   0.9498712  23.5523579  73.4556131   0.7730352  25.0294067  73.7365720
   3.9866320  20.5992020  73.0264170   3.8484219  20.7893616  72.0985359
   3.6302539  21.3611403  73.4832221   0.8778531  27.6529711  72.2015393
   1.0515409  27.0876133  71.4489246   1.3707423  28.4530606  72.0194883
   6.7317922  20.4166134  73.8205693   7.1749069  19.6673459  73.4224816
   5.8544433  20.4076270  73.4379425   1.8653704  26.9696475  69.3012292
   2.5604608  27.5903168  69.5199606   2.2076854  26.1191827  69.5764670
   3.7645127  24.4196181  70.8299623   4.2896451  24.7583454  70.1048943
   3.6767479  23.4843196  70.6462757   6.2750787  21.8871372  76.2128141
   7.1097679  22.3261176  76.3765701   6.4109916  21.4110025  75.3936387
   1.8053849  26.6761247  66.2999915   1.7267480  26.3421111  67.1935673
   2.6263515  27.1683015  66.2991388   1.2844498  24.4311772  67.9708354
   2.1190102  23.9992971  67.7885828   1.1228841  24.2593786  68.8985248
   9.9128773  34.9481423  78.0663530  10.5507183  34.8288171  77.3626870
   9.7949616  35.8962267  78.1251482   6.7218479  34.9008851  78.0025055
   6.3836991  34.7849916  77.1145590   7.5908247  34.5000016  77.9826061
   2.5805295  36.7544328  73.9921946   2.0170160  36.6634265  73.2238234
   2.4657690  35.9344232  74.4724438   7.2038262  36.0543703  83.9611261
   7.1926903  35.6596501  83.0891764   7.3658902  35.3209776  84.5545032
   8.1604854  40.4215295  69.3036411   7.5092833  41.0069376  68.9170425
   8.9549216  40.9521490  69.3631448   2.0860481  37.5104433  69.7023545
   2.8591357  36.9633420  69.5636421   2.4385880  38.3748682  69.9138007
   3.9245523  38.8380815  82.9090445   3.6335389  39.7426446  82.7937111
   4.5602508  38.8797342  83.6234514   4.8501730  36.2157663  79.4991804
   5.4465302  35.9913686  78.7848767   4.9076702  35.4742409  80.1017252
   4.4226759  33.6697099  67.3341995   4.6752279  33.1478620  66.5725458
   3.4851318  33.5063244  67.4368679   9.4670041  32.6732877  75.1416738
  10.2533131  32.2552300  74.7907155   9.7308746  33.5778969  75.3098387
   9.6380119  38.1105727  69.8405395   9.0025952  38.1840354  70.5526300
   9.3077525  38.6999326  69.1624474  14.8678469  32.6108110  76.0449717
  15.6003641  32.0407327  76.2787546  14.1117824  32.2229711  76.4856222
   4.1423047  35.5725205  69.5366370   4.0259305  34.8970108  70.2047454
   4.2525307  35.0857579  68.7198523   6.4854588  35.0335352  73.2413059
   6.1212796  34.5065973  73.9525981   7.3421704  34.6433821  73.0679545
  12.3903889  26.3229684  80.5044325  12.0587214  27.1925095  80.2805540
  11.7949502  26.0065968  81.1838356   6.1260075  30.0625251  68.2374408
   6.2934478  30.9305488  68.6044879   5.9357244  30.2252533  67.3135697
   8.8835408  38.5242230  79.9040238   8.5836132  39.4267269  79.7956045
   8.5386468  38.2574414  80.7561391   2.3347890  34.9756027  75.9376943
   1.4098386  34.8432241  76.1454634   2.5832303  35.7550246  76.4346885
  12.2832552  31.0424771  77.5837676  11.3749430  30.9740179  77.2896437
  12.2320148  31.5196715  78.4119501   6.1049296  32.5182909  69.2221075
   5.9848921  32.9639960  70.0606555   5.4101885  32.8668227  68.6634613
   3.8656188  45.2886551  72.8711206   3.7880218  46.2394376  72.9499686
   3.2617832  44.9432423  73.5286132  14.1494199  29.2441209  79.3615549
  13.5068579  29.5373742  78.7155344  13.6449127  29.1294129  80.1668746
  11.8034362  32.9904382  70.0501409  12.7152218  33.2231769  69.8749106
  11.2944009  33.5741426  69.4876487  10.0875130  37.4129010  83.6862701
  10.4958486  36.9711420  82.9417334   9.3652391  36.8381637  83.9396894
   6.4406200  32.3501617  81.0596258   7.2867395  32.7741030  81.2030907
   6.3804838  31.6935241  81.7534821  10.4103945  37.9730201  77.4414990
   9.7812807  38.1375915  76.7391058  10.0229607  38.3871810  78.2125954
  14.2893177  38.9084638  74.7959354  13.6044215  39.2883540  74.2456387
  14.3737026  39.5179965  75.5291302  11.5444108  36.5544597  81.3954697
  11.7561003  37.1976357  80.7189079  11.4973856  35.7206914  80.9276628
   9.1470337  29.1662418  78.2991270   8.2854816  29.4643672  78.5908007
   9.1732772  29.3832817  77.3672302   5.9631907  37.7104609  74.7065075
   6.4270252  37.9892312  73.9169698   5.6988705  36.8088053  74.5238166
   2.8555988  37.2576090  77.6444839   3.4257345  37.6863359  77.0062323
   3.4464099  36.9758675  78.3429024   4.9000793  33.8327761  71.5154640
   5.6024836  34.2848805  71.9828567   4.5681421  33.1911580  72.1434534
  12.6589936  39.4316553  79.5677055  13.4807380  39.0296740  79.2859736
  12.6552339  39.3284787  80.5193171   6.4246540  38.9800596  81.7237765
   6.4890972  39.4421003  82.5595937   5.7157463  38.3497961  81.8520075
  20.7495929  35.7755301  75.9162026  19.9959638  35.2062699  75.7606031
  20.8843470  35.7417966  76.8632661   6.1394557  40.6468704  71.5916746
   6.0040232  41.4920239  72.0201593   6.6804370  40.8487981  70.8282679
   1.4018839  41.2809898  74.2467424   1.5785468  42.2027863  74.0588408
   2.1975673  40.9668317  74.6761804   7.7663034  41.2692270  85.7217088
   7.3226888  40.4828649  85.4037992   8.4280247  41.4571421  85.0560979
   2.5250155  42.7988072  80.2477766   3.0757580  42.6705135  79.4754760
   1.6861631  43.0982961  79.8972659   9.8644272  41.5495070  83.7498489
   9.8462747  42.3703951  83.2578758  10.7864192  41.4249145  83.9748630
   6.3217326  39.0639200  84.5921997   6.8545663  38.3027488  84.3621305
   5.7931407  38.7712851  85.3346152   9.4537303  34.1607877  68.6288074
   8.9383927  34.9312481  68.8676462   9.1814612  33.4873013  69.2521136
   7.0384415  29.0057577  73.6873313   6.1826011  28.6164428  73.5078951
   7.4511366  29.0849538  72.8273098   8.5683561  26.5403921  78.0864872
   8.0648357  26.5034056  77.2732678   8.8614168  27.4496663  78.1461529
   4.8126447  26.6242650  77.0931054   5.6779444  26.4285459  76.7336944
   4.8803956  26.3953002  78.0200411  14.4271578  36.9140231  70.5641248
  13.6501020  36.5751391  70.1196410  15.1063059  36.9192854  69.8896213
   9.2423607  32.0334969  70.4547855   8.9373742  32.3481118  71.3057999
  10.1954049  32.1116389  70.4975188   7.6870038  38.1925192  72.1040809
   7.1591400  37.4577952  71.7914047   7.1857541  38.9699868  71.8580778
  12.6662885  36.3874213  77.2207856  12.0086559  37.0773474  77.3087984
  13.4703284  36.7770644  77.5641842   2.4188766  28.8544858  74.4647421
   2.9932518  28.6320040  73.7320614   3.0059749  28.9233553  75.2176022
  11.4768343  34.7418585  75.2711797  11.9900225  35.3748577  75.7733507
  12.1269567  34.1419781  74.9055157   2.7458353  30.8849319  68.4843306
   1.9095665  31.2224006  68.8052581   2.6063123  30.7498299  67.5470443
   4.7211434  25.7286107  73.1922490   4.0675846  25.4135124  72.5679105
   4.6791908  25.1061848  73.9182313   5.8322639  36.0105402  65.1075782
   4.9249700  35.7794656  65.3066931   6.3293671  35.2143022  65.2949764
   8.7390718  44.7202910  68.0272469   8.0652416  45.0234606  68.6357426
   9.1256540  45.5231990  67.6777926   7.9549174  32.2168041  77.5170138
   7.0371736  32.4382988  77.3591826   8.3709318  32.2914351  76.6581845
   8.7384222  33.6159456  72.6472818   9.4856041  34.1280854  72.3379940
   9.0075811  33.2943509  73.5077212   7.0110872  36.1117997  69.6299772
   6.1022091  35.8277030  69.7272242   7.0405956  36.5317076  68.7703079
  12.2430140  39.7224587  73.3990940  11.7892467  38.8815497  73.4556131
  11.6124106  40.3585985  73.7365720  11.1863059  30.6516573  74.6291608
  10.4485816  30.1393959  74.9601850  11.4389833  30.2116954  73.8174884
  10.6863079  41.5601083  74.3340758  10.9786053  42.1206140  73.6153124
  11.1961699  41.8529644  75.0893917  11.2874686  23.4292825  75.2233377
  11.5933563  22.5690188  74.9359292  12.0127291  24.0210445  75.0232371
   5.5595766  33.7246618  75.7309568   5.6144376  32.7720454  75.6552044
   4.7486968  33.8806057  76.2150866   6.7086960  37.6526741  66.9687851
   6.2706390  36.9362600  66.5093488   7.4497401  37.8802856  66.4072942
   3.4988126  32.3423678  73.4899947   2.6855992  32.6417848  73.8965139
   3.9947120  31.9479366  74.2074429   5.6496704  42.3381434  75.4234211
   5.6072883  42.5642281  74.4942743   6.5659403  42.1044809  75.5720013
   9.0962338  32.8065502  82.3214841   9.4511725  33.0336975  83.1809306
   9.7434469  33.1383879  81.6992096  14.8260075  35.9283938  73.0264170
  14.6877973  36.1185534  72.0985359  14.4696294  36.6903321  73.4832221
   2.9902201  29.9142033  79.1061182   3.6301580  29.7730792  78.4084145
   2.1579731  29.6276546  78.7299784  14.8529454  37.9960465  78.0375441
  15.2865961  37.9035754  78.8858495  15.5661035  37.9717965  77.3995457
   3.7662505  39.2144463  75.2196174   4.5603103  38.7194784  75.0178749
   3.0554197  38.6862327  74.8563880   8.5857349  41.5962559  79.5708542
   8.6394371  42.1653495  80.3386258   7.7172131  41.7664444  79.2062579
  15.7145004  38.0384166  80.5708327  15.9080894  38.9429976  80.8167601
  15.6145622  37.5791585  81.4046912  10.7760113  38.1890908  86.1449207
  10.6245619  37.9601460  85.2279291  10.7664792  39.1461510  86.1580552
   7.5445449  35.7622821  81.1295474   8.4737509  35.9133981  80.9564441
   7.1236479  35.8506842  80.2744120   6.3433781  39.7873485  78.8994011
   6.2044866  39.4192270  79.7719949   5.5548377  40.3021125  78.7277969
   6.9381933  44.8882582  70.2419548   7.1133688  44.4170625  71.0565170
   6.2514721  45.5148348  70.4700808   7.8938996  39.1655088  76.2882849
   7.5588828  39.1255858  77.1840499   7.3942942  38.4999804  75.8153259
  10.8298188  36.5111123  66.5619909  10.2127358  35.7857951  66.4652961
  10.3614676  37.2720483  66.2186983   4.4965541  34.2842678  81.3019110
   5.2065159  33.6435870  81.2605728   4.4534849  34.5355572  82.2245291
  12.4852319  41.2210031  84.2225689  12.4264865  40.5369251  83.5556272
  12.8871838  41.9629021  83.7706315   1.5043018  48.0371945  77.0159408
   1.7439616  48.6690469  77.6938426   0.6612214  47.6859985  77.3024767
   2.6196733  30.7296547  65.6841213   1.7426200  30.6085348  65.3203460
   3.0954487  29.9382625  65.4320102  12.4869726  39.1849615  82.4539669
  11.5996505  38.8475537  82.5766068  13.0568278  38.4532646  82.6908434
   6.0170880  43.8451067  79.4200912   5.9441051  44.6506039  79.9320216
   5.5748273  44.0443033  78.5948933   5.8060659  43.0822837  72.9303733
   5.0228181  43.6244517  73.0241958   6.5053405  43.5996817  73.3297975
   9.1157310  28.8917467  75.5737939   9.6126009  28.1387429  75.2539009
   8.3444291  28.9281783  75.0081148  16.9687067  34.5957832  77.2156230
  16.9576943  35.4782548  76.8450163  16.1004446  34.2429383  77.0210767
   8.4769563  43.7437901  81.5759071   9.1897536  44.3785366  81.5034972
   7.9859592  43.8401767  80.7599072  10.1987090  37.6489154  73.1476362
   9.2643369  37.7690616  72.9781067  10.3763759  36.7461621  72.8836372
   5.6992278  31.0334850  75.3009623   5.3290066  30.4805890  75.9890529
   6.1951371  30.4292983  74.7484623  13.5859642  33.4906473  73.6826396
  14.0520094  34.3234465  73.6086699  14.0367142  33.0251455  74.3871655
   3.5281477  41.4932345  82.3964641   4.2290936  42.1268828  82.5494036
   3.0576592  41.8347076  81.6360281  11.6535873  39.8350294  70.6812548
  11.9295717  39.7206889  71.5906422  10.7840371  39.4367779  70.6424721
  11.5576304  25.8587060  77.7217298  10.6439384  26.0891287  77.8899505
  11.9869406  25.9425504  78.5731330  11.3282763  34.0476952  80.2217192
  10.6754213  34.2952860  79.5669644  11.7063143  33.2341090  79.8879669
   8.2889937  44.0836645  74.3245362   8.4712331  43.2658301  74.7873114
   9.1122923  44.3004338  73.8870252   8.6232102  43.0104830  71.5860411
   9.1519869  42.4997285  70.9730573   8.8860322  42.6947361  72.4505944
   1.9787850  44.0619947  74.3458186   1.3098225  44.5466075  73.8622226
   1.8400720  44.3089168  75.2601565  10.9703993  40.9224948  86.7989499
  11.5143897  41.5354906  86.3044454  10.3890838  41.4804527  87.3156512
   9.2561506  44.0445666  77.9304527   9.1312646  43.2435406  77.4215472
   9.9140597  44.5391859  77.4418497  11.3196414  41.8454686  79.5584077
  10.3726750  41.7260037  79.4862404  11.6679188  40.9577184  79.6410338
   8.3242848  41.6407402  75.7588429   8.1767810  40.7124110  75.9395999
   9.1496341  41.6627493  75.2745505   2.1905092  30.2925470  71.6168921
   2.5301165  30.8211391  70.8947530   2.6377212  30.6305876  72.3927488
  11.9276970  42.4635961  76.8453302  12.8523517  42.2578822  76.7077753
  11.7592273  42.2152362  77.7542644   4.1773239  28.7900091  69.8162214
   4.8981602  29.1681344  69.3125931   3.5538543  29.5088968  69.9197192
   8.3204362  29.4945240  70.7520547   8.5367976  30.3769878  70.4509375
   7.8398429  29.1031453  70.0226189   3.0603583  32.4530953  77.3291291
   2.9148164  32.7671256  78.2215573   2.5828787  33.0715854  76.7762190
   4.9199966  29.4433501  77.3772181   4.9061535  28.5474595  77.0404479
   5.6372394  29.4504165  78.0110467   6.7726097  29.8770841  79.4225308
   6.5143875  30.7987912  79.4209639   6.2411137  29.4801276  80.1125772
  11.7172286  42.9821629  72.2015393  11.8909163  42.4168051  71.4489246
  12.2101177  43.7822523  72.0194883   4.3236862  28.3247882  72.6459751
   4.4452773  27.3964528  72.8450638   4.0338905  28.3386568  71.7338066
   7.1928053  26.0102792  75.7826471   7.2149749  26.0742125  74.8278450
   7.6096112  25.1707301  75.9766977  17.5711677  35.7458052  73.8205693
  18.0142823  34.9965377  73.4224816  16.6938187  35.7368188  73.4379425
  12.7047458  42.2988393  69.3012292  13.3998363  42.9195086  69.5199606
  13.0470608  41.4483744  69.5764670  14.6038881  39.7488099  70.8299623
  15.1290205  40.0875371  70.1048943  14.5161234  38.8135114  70.6462757
   6.2658930  43.6622172  82.9589499   6.5746057  43.4171319  83.8312199
   7.0634412  43.8668811  82.4708369   6.2879542  45.8160082  75.1894876
   5.8484532  45.3236461  75.8827732   7.0387659  45.2733049  74.9486951
   3.7353414  41.3598091  77.2617177   3.1133424  40.6968796  76.9619405
   4.4058281  41.3859223  76.5790825  14.2932787  40.3821002  86.1350821
  13.5028331  40.3645141  85.5955320  14.0566142  40.9209296  86.8899857
  14.4130663  37.2313469  83.4483549  14.4628667  37.0663476  84.3899072
  14.3044586  36.3640728  83.0581430   3.2966921  39.9102014  70.7375638
   3.4455042  40.5937479  70.0842311   4.1033365  39.8907104  71.2525094
  15.9148859  39.6510410  83.6925571  15.6233668  40.0140391  84.5289032
  15.3020991  38.9377418  83.5138903  17.1144542  37.2163290  76.2128141
  17.9491433  37.6553094  76.3765701  17.2503670  36.7401943  75.3936387
  14.1636048  34.7743025  82.1605629  14.6390169  34.9670671  81.3524480
  13.2401613  34.8302211  81.9149012   1.0519554  35.9367192  71.7436707
   0.8065596  35.0329522  71.9416917   1.2215469  35.9384342  70.8016185
   8.9928858  23.2291151  76.6462359   9.2730612  22.5614340  77.2722786
   9.7779465  23.4220246  76.1337023   6.7962327  42.4050145  68.2087385
   6.2236294  43.0240332  67.7557857   7.3695120  42.9549506  68.7427307
  12.8637717  31.6508785  80.3933934  13.8155139  31.7506882  80.4146158
  12.6941167  30.8587053  80.9032019  10.8852096  28.7364368  80.5793335
  10.2902028  29.0169381  79.8839824  10.6001793  29.2258269  81.3510076
  10.0159587  42.6887295  69.3395968  10.9490260  42.6232857  69.5428843
   9.9282799  43.5243562  68.8810500  12.6447603  42.0053165  66.2999915
  12.5661235  41.6713029  67.1935673  13.4657270  42.4974933  66.2991388
  15.3425794  34.8714904  79.5076234  15.3102114  33.9330905  79.6935918
  15.9526418  34.9498941  78.7742059   7.1809125  33.7410957  65.5503438
   8.1268230  33.6117166  65.6191856   6.8023370  33.0025619  66.0272866
  15.4920283  31.6625948  79.5534517  14.9759332  30.8784405  79.3664446
  16.3760231  31.3344665  79.7181036  13.1531010  25.4066963  75.5130330
  12.9555831  25.0982052  76.3973662  13.7630715  26.1328602  75.6428260
  21.1602344  35.9330911  78.6482271  21.8905733  35.6716199  79.2089974
  20.5509290  35.1959633  78.6884339  19.2417641  34.0738774  79.2456722
  18.5150805  33.9394739  78.6373213  18.8264928  34.3815603  80.0513440
   5.3652042  31.6660934  65.4858323   4.4583498  31.3694047  65.5621037
   5.6428023  31.3690752  64.6192609   6.9814108  26.2097824  71.6402564
   6.1714836  25.8644909  72.0157810   7.6698525  25.9005367  72.2290176
   8.9104656  25.2875870  73.2626861   9.4635695  25.7071324  73.9216884
   9.1474743  24.3611618  73.3049817   4.1350827  28.5247869  65.6270302
   4.9969991  28.8502767  65.8866120   4.3201171  27.7379365  65.1143368
  12.2883463  27.3976396  72.7705525  11.7082133  28.0561200  72.3883578
  12.0219396  26.5753740  72.3592943  10.7387030  26.7981453  74.9726846
  11.2386808  26.9097988  74.1641164  11.3822638  26.4942506  75.6127654
   0.7242363  38.5964618  79.8963120   1.6785617  38.5648560  79.8293052
   0.5254887  38.1355241  80.7113346   1.3141745  37.1665734  82.4633918
   2.1334634  37.6609812  82.4868755   1.5878553  36.2497702  82.4351486
  11.0708342  29.5576486  71.8261874  10.1834197  29.8426137  71.6082068
  11.4862331  29.3970249  70.9789150  14.4222878  29.5823007  75.5416213
  15.1983268  30.0719459  75.8140830  13.6971012  30.0081061  75.9988082
  16.8595436  30.2950626  76.5990153  17.4539927  30.0546362  75.8883462
  16.9322020  29.5757757  77.2263690  10.2151555  39.3221161  65.9209894
  10.9187405  39.5271163  66.5367549   9.4914204  39.8897922  66.1858977
  11.0449365  35.0731022  72.0412164  10.9884567  35.5299573  71.2019796
  11.5977708  34.3121706  71.8635006  14.8554171  30.8620754  72.8662283
  14.5991105  30.4617389  73.6970491  14.2307039  31.5764548  72.7412422
  19.1666509  33.6016827  75.3733575  18.6066067  33.6710016  76.1465137
  18.5610012  33.4257812  74.6533071   2.2361718  45.0353554  77.1251761
   2.1194102  45.9798987  77.0230451   1.4154164  44.7327116  77.5137560
  12.1238252  39.7603690  67.9708354  12.9583856  39.3284888  67.7885828
  11.9622595  39.5885703  68.8985248  11.7784145  36.2635803  69.3364693
  11.7232948  36.0980075  68.3953137  11.1530200  36.9711836  69.4926883
   5.0880270  25.7643912  68.9150011   5.0758940  26.7085752  69.0718282
   5.9803692  25.5814057  68.6209472   3.2616232  45.6881816  80.3407689
   4.1643479  45.7205426  80.6574184   3.0353602  44.7582267  80.3554025
   5.0169834  44.4412802  77.0017768   4.0665465  44.4414664  76.8882140
   5.3202320  43.6945537  76.4853803   8.9032389  22.3586689  73.1695948
   8.1364785  21.8045175  73.3152630   9.3143094  22.4308557  74.0310100
  20.7522527  50.2773341  78.0663530  21.3900937  50.1580088  77.3626870
  20.6343370  51.2254185  78.1251482  17.5612234  50.2300769  78.0025055
  17.2230745  50.1141834  77.1145590  18.4302002  49.8291934  77.9826061
  13.4199049  52.0836245  73.9921946  12.8563915  51.9926182  73.2238234
  13.3051444  51.2636150  74.4724438  18.0432017  51.3835621  83.9611261
  18.0320658  50.9888419  83.0891764  18.2052656  50.6501693  84.5545032
  10.9663481  53.5787437  76.8306166  11.7584773  53.2378262  76.4152466
  11.2060132  53.6882412  77.7508320  18.9998608  55.7507213  69.3036411
  18.3486588  56.3361294  68.9170425  19.7942971  56.2813408  69.3631448
  12.9254235  52.8396350  69.7023545  13.6985111  52.2925337  69.5636421
  13.2779634  53.7040600  69.9138007  14.7639278  54.1672733  82.9090445
  14.4729144  55.0718363  82.7937111  15.3996262  54.2089260  83.6234514
  15.6895485  51.5449581  79.4991804  16.2859057  51.3205603  78.7848767
  15.7470456  50.8034327  80.1017252  15.2620513  48.9989016  67.3341995
  15.5146034  48.4770538  66.5725458  14.3245072  48.8355162  67.4368679
  20.3063796  48.0024795  75.1416738  21.0926885  47.5844218  74.7907155
  20.5702500  48.9070887  75.3098387  20.4773873  53.4397645  69.8405395
  19.8419706  53.5132272  70.5526300  20.1471280  54.0291244  69.1624474
  25.7072223  47.9400028  76.0449717  26.4397395  47.3699245  76.2787546
  24.9511579  47.5521628  76.4856222  14.9816802  50.9017122  69.5366370
  14.8653060  50.2262026  70.2047454  15.0919062  50.4149496  68.7198523
  17.3248343  50.3627269  73.2413059  16.9606550  49.8357890  73.9525981
  18.1815459  49.9725738  73.0679545  23.2297643  41.6521602  80.5044325
  22.8980968  42.5217013  80.2805540  22.6343257  41.3357886  81.1838356
  16.9653830  45.3917169  68.2374408  17.1328232  46.2597406  68.6044879
  16.7750999  45.5544451  67.3135697  19.7229163  53.8534148  79.9040238
  19.4229886  54.7559187  79.7956045  19.3780222  53.5866331  80.7561391
  13.1741644  50.3047945  75.9376943  12.2492141  50.1724159  76.1454634
  13.4226058  51.0842164  76.4346885  23.1226307  46.3716688  77.5837676
  22.2143184  46.3032097  77.2896437  23.0713903  46.8488633  78.4119501
  16.9443051  47.8474827  69.2221075  16.8242676  48.2931877  70.0606555
  16.2495639  48.1960144  68.6634613  10.5350455  49.9481218  76.7720732
  10.6642837  50.2015697  77.6860143   9.8547907  50.5408926  76.4525387
  14.7049943  60.6178468  72.8711206  14.6273972  61.5686293  72.9499686
  14.1011586  60.2724341  73.5286132  17.1967173  47.7906334  85.5272573
  16.4200507  48.3500254  85.5175437  17.8357736  48.2763117  86.0487443
  24.9887953  44.5733127  79.3615549  24.3462333  44.8665660  78.7155344
  24.4842882  44.4586047  80.1668746  22.6428117  48.3196300  70.0501409
  23.5545973  48.5523687  69.8749106  22.1337764  48.9033344  69.4876487
  15.4513545  50.5991787  85.0890540  16.1928229  51.1376831  84.8125363
  14.7450530  51.2258076  85.2462092  20.9268884  52.7420928  83.6862701
  21.3352241  52.3003338  82.9417334  20.2046146  52.1673555  83.9396894
  17.2799955  47.6793534  81.0596258  18.1261150  48.1032948  81.2030907
  17.2198592  47.0227159  81.7534821  21.2497699  53.3022118  77.4414990
  20.6206562  53.4667832  76.7391058  20.8623361  53.7163728  78.2125954
  20.4299400  45.3397903  82.7177432  20.1860332  46.0939963  82.1811708
  20.7059330  45.7183250  83.5524679  22.3837863  51.8836515  81.3954697
  22.5954758  52.5268275  80.7189079  22.3367611  51.0498832  80.9276628
  19.9864092  44.4954336  78.2991270  19.1248571  44.7935589  78.5908007
  20.0126526  44.7124735  77.3672302  16.8025661  53.0396526  74.7065075
  17.2664007  53.3184229  73.9169698  16.5382459  52.1379971  74.5238166
  13.6949742  52.5868008  77.6444839  14.2651099  53.0155276  77.0062323
  14.2857854  52.3050593  78.3429024  15.7394547  49.1619679  71.5154640
  16.4418590  49.6140722  71.9828567  15.4075176  48.5203498  72.1434534
  14.1874909  47.7531435  85.8905850  13.5573569  48.4347716  86.1241247
  14.0810996  47.6414517  84.9458988   9.4819881  47.4203231  76.8171774
   8.6918935  47.6760760  76.3411885   9.9731128  48.2351569  76.9223815
  23.4983691  54.7608471  79.5677055  24.3201134  54.3588658  79.2859736
  23.4946093  54.6576705  80.5193171  11.4334626  47.7847811  73.7755251
  10.6365790  47.8966505  74.2938746  11.2060219  48.1234463  72.9096141
  17.2640294  54.3092514  81.7237765  17.3284727  54.7712921  82.5595937
  16.5551218  53.6789879  81.8520075   7.7657584  47.6733722  79.2486765
   8.0165622  48.5580732  79.5144341   8.3017132  47.4938323  78.4761857
  31.5889684  51.1047219  75.9162026  30.8353392  50.5354617  75.7606031
  31.7237225  51.0709884  76.8632661  16.9788312  55.9760621  71.5916746
  16.8433986  56.8212157  72.0201593  17.5198124  56.1779899  70.8282679
  13.4655651  42.0552201  88.2531101  13.0722597  41.5018400  88.9278745
  14.2821792  42.3662780  88.6437618  10.4317709  53.4936059  72.1644671
  10.9442230  54.2879310  72.3150235  11.0840422  52.7962350  72.0978272
  12.2412594  56.6101816  74.2467424  12.4179222  57.5319780  74.0588408
  13.0369427  56.2960235  74.6761804  11.5264950  48.6566448  84.1229587
  11.4118465  47.7551705  84.4236686  10.6709468  48.9030144  83.7714404
  18.6056788  56.5984188  85.7217088  18.1620642  55.8120566  85.4037992
  19.2674002  56.7863338  85.0560979  13.3643909  58.1279989  80.2477766
  13.9151334  57.9997053  79.4754760  12.5255385  58.4274878  79.8972659
  20.7038026  56.8786988  83.7498489  20.6856501  57.6995869  83.2578758
  21.6257946  56.7541063  83.9748630  17.1611080  54.3931117  84.5921997
  17.6939417  53.6319405  84.3621305  16.6325161  54.1004769  85.3346152
  20.3280775  39.4991183  80.1215639  19.9845045  40.3892825  80.0454750
  20.6959738  39.3092841  79.2585224   8.3966626  51.8224714  72.9404241
   9.2341848  52.2321722  72.7237949   8.5744894  50.8824156  72.9104435
  20.2931058  49.4899794  68.6288074  19.7777681  50.2604399  68.8676462
  20.0208366  48.8164930  69.2521136  17.8778169  44.3349495  73.6873313
  17.0219765  43.9456345  73.5078951  18.2905121  44.4141456  72.8273098
  19.4077316  41.8695838  78.0864872  18.9042111  41.8325974  77.2732678
  19.7007923  42.7788581  78.1461529  15.6520202  41.9534568  77.0931054
  16.5173198  41.7577377  76.7336944  15.7197710  41.7244920  78.0200411
  25.2665332  52.2432149  70.5641248  24.4894775  51.9043308  70.1196410
  25.9456813  52.2484772  69.8896213  20.0817361  47.3626886  70.4547855
  19.7767497  47.6773036  71.3057999  21.0347803  47.4408306  70.4975188
  18.5263793  53.5217110  72.1040809  17.9985155  52.7869869  71.7914047
  18.0251296  54.2991786  71.8580778  23.5056639  51.7166130  77.2207856
  22.8480313  52.4065392  77.3087984  24.3097038  52.1062562  77.5641842
  13.2582521  44.1836776  74.4647421  13.8326273  43.9611958  73.7320614
  13.8453503  44.2525471  75.2176022  22.3162098  50.0710503  75.2711797
  22.8293980  50.7040495  75.7733507  22.9663322  49.4711698  74.9055157
  13.5852108  46.2141237  68.4843306  12.7489420  46.5515924  68.8052581
  13.4456877  46.0790217  67.5470443  15.5605188  41.0578025  73.1922490
  14.9069601  40.7427042  72.5679105  15.5185662  40.4353765  73.9182313
  16.6716393  51.3397320  65.1075782  15.7643455  51.1086573  65.3066931
  17.1687425  50.5434939  65.2949764  19.5784472  60.0494827  68.0272469
  18.9046171  60.3526524  68.6357426  19.9650294  60.8523908  67.6777926
  18.7942929  47.5459958  77.5170138  17.8765490  47.7674905  77.3591826
  19.2103072  47.6206269  76.6581845  19.5777976  48.9451374  72.6472818
  20.3249795  49.4572771  72.3379940  19.8469566  48.6235427  73.5077212
  17.8504627  51.4409915  69.6299772  16.9415846  51.1568948  69.7272242
  17.8799710  51.8608993  68.7703079  23.0823894  55.0516504  73.3990940
  22.6286221  54.2107414  73.4556131  22.4517861  55.6877903  73.7365720
  22.0256814  45.9808490  74.6291608  21.2879570  45.4685877  74.9601850
  22.2783587  45.5408872  73.8174884  21.5256833  56.8893001  74.3340758
  21.8179808  57.4498058  73.6153124  22.0355454  57.1821562  75.0893917
  22.1268441  38.7584742  75.2233377  22.4327318  37.8982106  74.9359292
  22.8521046  39.3502363  75.0232371   8.4192797  49.1615429  73.6114975
   8.2217197  48.5684790  72.8866041   7.8639461  48.8567639  74.3290913
  16.3989521  49.0538535  75.7309568  16.4538130  48.1012372  75.6552044
  15.5880723  49.2097975  76.2150866  17.5480714  52.9818659  66.9687851
  17.1100144  52.2654517  66.5093488  18.2891155  53.2094773  66.4072942
  14.3381881  47.6715595  73.4899947  13.5249746  47.9709766  73.8965139
  14.8340875  47.2771284  74.2074429  16.4890458  57.6673352  75.4234211
  16.4466637  57.8934198  74.4942743  17.4053157  57.4336727  75.5720013
  19.9356092  48.1357420  82.3214841  20.2905480  48.3628893  83.1809306
  20.5828223  48.4675796  81.6992096  25.6653829  51.2575856  73.0264170
  25.5271728  51.4477452  72.0985359  25.3090048  52.0195238  73.4832221
  13.8295955  45.2433951  79.1061182  14.4695335  45.1022710  78.4084145
  12.9973486  44.9568464  78.7299784  25.6923209  53.3252383  78.0375441
  26.1259715  53.2327672  78.8858495  26.4054789  53.3009883  77.3995457
  14.6056259  54.5436381  75.2196174  15.3996858  54.0486701  75.0178749
  13.8947952  54.0154244  74.8563880  19.4251104  56.9254477  79.5708542
  19.4788126  57.4945413  80.3386258  18.5565885  57.0956362  79.2062579
  10.9139023  48.6879463  71.2955927   9.9836611  48.6263918  71.5125889
  11.0096495  48.1655416  70.4992568  10.8324572  45.2134276  73.8834168
  11.0931389  46.1279609  73.7743329  11.6541744  44.7458718  74.0330781
  12.3049497  46.6272033  81.0532993  12.9772551  46.4189395  80.4045642
  11.4779284  46.4294119  80.6138225  26.5538758  53.3676083  80.5708327
  26.7474648  54.2721894  80.8167601  26.4539377  52.9083502  81.4046912
  18.2075069  43.2533974  83.0698654  17.5602984  43.9523923  82.9763130
  18.9776084  43.6870118  83.4374902  21.6153867  53.5182826  86.1449207
  21.4639373  53.2893378  85.2279291  21.6058547  54.4753427  86.1580552
  18.3839203  51.0914739  81.1295474  19.3131263  51.2425898  80.9564441
  17.9630233  51.1798760  80.2744120  17.1827535  55.1165403  78.8994011
  17.0438621  54.7484188  79.7719949  16.3942131  55.6313043  78.7277969
  17.7775687  60.2174500  70.2419548  17.9527443  59.7462543  71.0565170
  17.0908475  60.8440266  70.4700808  18.7332750  54.4947006  76.2882849
  18.3982583  54.4547776  77.1840499  18.2336696  53.8291722  75.8153259
  12.7076994  49.9014636  81.8135430  12.5696792  49.1694875  82.4146969
  13.6181918  49.8123536  81.5319618  21.6691942  51.8403040  66.5619909
  21.0521113  51.1149868  66.4652961  21.2008430  52.6012400  66.2186983
  15.3359295  49.6134595  81.3019110  16.0458914  48.9727787  81.2605728
  15.2928603  49.8647490  82.2245291  23.3246074  56.5501949  84.2225689
  23.2658620  55.8661169  83.5556272  23.7265592  57.2920939  83.7706315
  14.0488229  46.5999813  83.1214749  13.5125586  46.1490552  83.7736346
  13.4604937  46.7345722  82.3785214  12.3436772  63.3663862  77.0159408
  12.5833371  63.9982387  77.6938426  11.5005969  63.0151902  77.3024767
  13.4590488  46.0588464  65.6841213  12.5819954  45.9377265  65.3203460
  13.9348241  45.2674543  65.4320102  23.3263481  54.5141532  82.4539669
  22.4390260  54.1767454  82.5766068  23.8962032  53.7824564  82.6908434
   4.9792628  50.8465624  75.7782720   5.6663668  50.5327354  75.1903735
   4.8240757  51.7506989  75.5049972   9.7827350  45.7355821  80.2067744
   9.6985539  45.1281490  79.4718154   8.9610057  46.2264839  80.2077240
  16.8564634  59.1742985  79.4200912  16.7834806  59.9797956  79.9320216
  16.4142027  59.3734951  78.5948933  16.6454414  58.4114755  72.9303733
  15.8621936  58.9536435  73.0241958  17.3447159  58.9288734  73.3297975
  19.9551064  44.2209384  75.5737939  20.4519764  43.4679347  75.2539009
  19.1838046  44.2573701  75.0081148  27.8080821  49.9249750  77.2156230
  27.7970698  50.8074465  76.8450163  26.9398201  49.5721301  77.0210767
  19.3163318  59.0729819  81.5759071  20.0291290  59.7077284  81.5034972
  18.8253347  59.1693685  80.7599072  21.0380845  52.9781072  73.1476362
  20.1037124  53.0982534  72.9781067  21.2157513  52.0753538  72.8836372
  16.5386033  46.3626767  75.3009623  16.1683820  45.8097808  75.9890529
  17.0345125  45.7584901  74.7484623  24.4253396  48.8198391  73.6826396
  24.8913848  49.6526382  73.6086699  24.8760897  48.3543372  74.3871655
  14.3675231  56.8224262  82.3964641  15.0684691  57.4560745  82.5494036
  13.8970346  57.1638994  81.6360281  22.3970059  41.1878978  77.7217298
  21.4833139  41.4183205  77.8899505  22.8263160  41.2717422  78.5731330
  22.1676517  49.3768870  80.2217192  21.5147968  49.6244777  79.5669644
  22.5456897  48.5633008  79.8879669  19.1283691  59.4128563  74.3245362
  19.3106086  58.5950219  74.7873114  19.9516677  59.6296255  73.8870252
  19.4625857  58.3396748  71.5860411  19.9913623  57.8289203  70.9730573
  19.7254076  58.0239278  72.4505944  18.2164090  50.1188681  86.7083229
  17.5404727  50.0182810  87.3785604  19.0391724  49.9627895  87.1719226
   9.9642949  56.3560617  79.3295744  10.5496386  55.6104305  79.4623648
   9.7667788  56.6664574  80.2132408  12.8181605  59.3911865  74.3458186
  12.1491980  59.8757992  73.8622226  12.6794474  59.6381085  75.2601565
   4.5560604  48.9266218  78.0500187   4.5944704  48.3929808  78.8437305
   4.0500897  48.4001423  77.4311164  16.9586873  61.4255608  80.9440845
  17.5105181  61.5887230  81.7089930  17.2993067  62.0160046  80.2720870
  11.9351366  43.7730758  81.5462730  11.9992693  44.6345589  81.1340127
  11.8718487  43.1604760  80.8135088  11.4103639  45.8453891  85.1935764
  12.0375678  45.4630968  85.8073288  10.5531558  45.6268093  85.5591456
  21.8097748  56.2516866  86.7989499  22.3537652  56.8646824  86.3044454
  21.2284592  56.8096444  87.3156512   8.1869182  47.6530320  71.1254119
   8.4822623  46.7440998  71.0721172   7.2857218  47.6318059  70.8035121
  20.0955261  59.3737584  77.9304527  19.9706400  58.5727324  77.4215472
  20.7534352  59.8683777  77.4418497  11.7163429  45.7286316  77.1081667
  10.9950015  46.3422284  76.9689140  12.5056685  46.2644081  77.0298313
  22.1590169  57.1746604  79.5584077  21.2120504  57.0551955  79.4862404
  22.5072942  56.2869102  79.6410338  14.5189742  43.0640743  83.3822319
  15.0424144  43.3103039  84.1448628  14.3002076  43.8960778  82.9625456
   9.9157023  45.3344417  71.2493444   9.5869730  44.4541796  71.0668550
  10.2696394  45.2792086  72.1369833  19.1636602  56.9699320  75.7588429
  19.0161565  56.0416028  75.9395999  19.9890096  56.9919411  75.2745505
  13.0298847  45.6217387  71.6168921  13.3694919  46.1503308  70.8947530
  13.4770967  45.9597793  72.3927488  22.7670724  57.7927879  76.8453302
  23.6917272  57.5870740  76.7077753  22.5986027  57.5444280  77.7542644
  15.7242287  44.0054438  81.0671989  15.3839108  43.2062251  81.4692669
  15.0181294  44.3056149  80.4948823  16.3758759  41.0903750  79.5199312
  17.1984828  40.6164229  79.3978203  16.6196823  41.8694234  80.0197999
  15.0166994  44.1192009  69.8162214  15.7375356  44.4973262  69.3125931
  14.3932298  44.8380886  69.9197192  19.1598117  44.8237158  70.7520547
  19.3761731  45.7061796  70.4509375  18.6792184  44.4323371  70.0226189
  13.8997338  47.7822871  77.3291291  13.7541919  48.0963174  78.2215573
  13.4222542  48.4007771  76.7762190  15.7593721  44.7725419  77.3772181
  15.7455290  43.8766512  77.0404479  16.4766149  44.7796083  78.0110467
  17.6119852  45.2062759  79.4225308  17.3537629  46.1279830  79.4209639
  17.0804892  44.8093194  80.1125772  22.5566040  58.3113546  72.2015393
  22.7302918  57.7459969  71.4489246  23.0494932  59.1114441  72.0194883
   8.3743000  50.3228215  80.2678952   7.8296468  51.0988023  80.3999227
   9.2522350  50.6699020  80.1098074  15.1630617  43.6539799  72.6459751
  15.2846528  42.7256445  72.8450638  14.8732659  43.6678485  71.7338066
  18.0321807  41.3394710  75.7826471  18.0543504  41.4034043  74.8278450
  18.4489866  40.4999218  75.9766977  28.4105431  51.0749969  73.8205693
  28.8536577  50.3257294  73.4224816  27.5331942  51.0660106  73.4379425
  23.5441213  57.6280311  69.3012292  24.2392117  58.2487003  69.5199606
  23.8864363  56.7775662  69.5764670   9.1609022  49.4498112  83.1609109
   8.4190758  49.5980747  83.7473740   8.8401766  49.7106377  82.2975859
  17.1052685  58.9914090  82.9589499  17.4139811  58.7463237  83.8312199
  17.9028167  59.1960728  82.4708369  17.1273297  61.1451999  75.1894876
  16.6878287  60.6528378  75.8827732  17.8781414  60.6024967  74.9486951
   9.6065636  57.3363540  75.1919504  10.4323656  57.0367312  74.8118147
   9.2559688  56.5671163  75.6409292  14.5747169  56.6890009  77.2617177
  13.9527178  56.0260714  76.9619405  15.2452036  56.7151140  76.5790825
   7.8074241  55.2549867  76.1508437   6.9706149  54.8272041  75.9692439
   7.7797886  55.4482310  77.0879229  14.6471696  45.1671797  86.8549683
  14.6959852  46.0433919  86.4727453  15.1894210  44.6249190  86.2821327
  25.1326542  55.7112920  86.1350821  24.3422086  55.6937059  85.5955320
  24.8959897  56.2501214  86.8899857  25.2524417  52.5605386  83.4483549
  25.3022422  52.3955394  84.3899072  25.1438340  51.6932645  83.0581430
  14.1360676  55.2393932  70.7375638  14.2848796  55.9229396  70.0842311
  14.9427119  55.2199022  71.2525094  22.5428179  48.5436314  84.7642856
  23.4438042  48.4042779  84.4726854  22.6176154  48.7090769  85.7041033
  16.8770985  45.9203169  83.6096042  16.0074294  46.2136735  83.3378631
  17.1130465  46.5043614  84.3303306  26.7542614  54.9802328  83.6925571
  26.4627422  55.3432308  84.5289032  26.1414745  54.2669336  83.5138903
  25.0029802  50.1034942  82.1605629  25.4783924  50.2962589  81.3524480
  24.0795367  50.1594128  81.9149012  11.8913309  51.2659110  71.7436707
  11.6459351  50.3621440  71.9416917  12.0609223  51.2676260  70.8016185
  19.5810019  42.1382786  81.1261462  20.0991962  42.8743813  80.8007951
  19.2265151  42.4446779  81.9608222  11.1608956  46.9987467  69.2422868
  10.4678201  47.0731822  68.5862904  10.9160708  46.2347811  69.7644385
  19.8322613  38.5583068  76.6462359  20.1124366  37.8906258  77.2722786
  20.6173220  38.7512164  76.1337023  17.6356081  57.7342062  68.2087385
  17.0630048  58.3532250  67.7557857  18.2088875  58.2841424  68.7427307
  23.7031471  46.9800702  80.3933934  24.6548894  47.0798800  80.4146158
  23.5334921  46.1878971  80.9032019  21.7245851  44.0656286  80.5793335
  21.1295783  44.3461298  79.8839824  21.4395547  44.5550187  81.3510076
  20.8553341  58.0179213  69.3395968  21.7884014  57.9524774  69.5428843
  20.7676554  58.8535479  68.8810500  23.4841358  57.3345083  66.2999915
  23.4054989  57.0004946  67.1935673  24.3051024  57.8266851  66.2991388
  26.1819549  50.2006822  79.5076234  26.1495869  49.2622823  79.6935918
  26.7920173  50.2790859  78.7742059  18.0202880  49.0702875  65.5503438
  18.9661984  48.9409083  65.6191856  17.6417125  48.3317537  66.0272866
  26.3314037  46.9917866  79.5534517  25.8153086  46.2076322  79.3664446
  27.2153986  46.6636582  79.7181036  23.9924764  40.7358881  75.5130330
  23.7949585  40.4273969  76.3973662  24.6024470  41.4620520  75.6428260
  31.9996099  51.2622829  78.6482271  32.7299487  51.0008117  79.2089974
  31.3903044  50.5251551  78.6884339  30.0811396  49.4030692  79.2456722
  29.3544559  49.2686657  78.6373213  29.6658683  49.7107520  80.0513440
  17.9041572  53.1220621  87.0104095  18.8244582  53.2999220  87.2044141
  17.8691155  52.1776667  86.8583794  16.2045797  46.9952852  65.4858323
  15.2977252  46.6985964  65.5621037  16.4821778  46.6982670  64.6192609
   7.1223737  48.3159215  75.9357369   6.8026522  47.4624523  75.6431743
   6.5757165  48.5307793  76.6915337  10.9003645  51.0321656  79.6526876
  11.1189655  51.9638764  79.6714910  11.3129419  50.6729630  80.4381680
  17.8207863  41.5389741  71.6402564  17.0108591  41.1936826  72.0157810
  18.5092280  41.2297285  72.2290176  19.7498411  40.6167788  73.2626861
  20.3029449  41.0363241  73.9216884  19.9868497  39.6903536  73.3049817
  15.7731510  46.6054862  89.0429625  15.6728237  47.5549219  88.9741716
  15.5553052  46.2773101  88.1705695  14.9744582  43.8539787  65.6270302
  15.8363745  44.1794685  65.8866120  15.1594926  43.0671283  65.1143368
   6.9911997  51.9362126  77.9050491   6.2975469  51.5216079  77.3920445
   7.7384988  51.9782663  77.3083910  23.1277218  42.7268313  72.7705525
  22.5475887  43.3853117  72.3883578  22.8613151  41.9045658  72.3592943
  21.5780784  42.1273371  74.9726846  22.0780563  42.2389905  74.1641164
  22.2216392  41.8234424  75.6127654  15.6362780  50.0352001  87.8594687
  15.1529862  50.8352361  88.0658576  15.7223719  50.0459945  86.9062131
   8.9048740  51.8680380  75.7816506   8.8819428  51.9668067  74.8298389
   9.2149376  52.7145531  76.1033672  11.5636118  53.9256535  79.8963120
  12.5179371  53.8940478  79.8293052  11.3648641  53.4647159  80.7113346
  12.1535500  52.4957651  82.4633918  12.9728389  52.9901730  82.4868755
  12.4272307  51.5789619  82.4351486  21.9102096  44.8868404  71.8261874
  21.0227951  45.1718054  71.6082068  22.3256085  44.7262167  70.9789150
  25.2616632  44.9114925  75.5416213  26.0377022  45.4011377  75.8140830
  24.5364766  45.3372979  75.9988082  27.6989191  45.6242544  76.5990153
  28.2933682  45.3838280  75.8883462  27.7715774  44.9049674  77.2263690
   9.9186346  59.4676155  76.9133318   9.7840814  58.7076556  76.3471316
   9.5018409  60.1917055  76.4462107  21.0545309  54.6513078  65.9209894
  21.7581160  54.8563081  66.5367549  20.3307958  55.2189840  66.1858977
  21.8843120  50.4022940  72.0412164  21.8278321  50.8591491  71.2019796
  22.4371462  49.6413624  71.8635006  25.6947926  46.1912671  72.8662283
  25.4384860  45.7909307  73.6970491  25.0700794  46.9056465  72.7412422
  30.0060264  48.9308745  75.3733575  29.4459821  49.0001934  76.1465137
  29.4003767  48.7549729  74.6533071  13.0755472  60.3645472  77.1251761
  12.9587856  61.3090904  77.0230451  12.2547919  60.0619033  77.5137560
  22.9632007  55.0895607  67.9708354  23.7977611  54.6576806  67.7885828
  22.8016350  54.9177621  68.8985248  22.6177899  51.5927721  69.3364693
  22.5626703  51.4271992  68.3953137  21.9923954  52.3003754  69.4926883
   7.4070414  46.8295785  83.1626115   8.0529278  46.3194739  83.6513340
   7.1987565  47.5664467  83.7369540  19.9323806  53.8976633  88.6618256
  20.8014966  54.0717285  88.3004891  19.4530558  54.7171049  88.5393985
  15.9274025  41.0935830  68.9150011  15.9152694  42.0377670  69.0718282
  16.8197446  40.9105975  68.6209472  14.1009986  61.0173734  80.3407689
  15.0037233  61.0497344  80.6574184  13.8747357  60.0874185  80.3554025
  15.8563588  59.7704720  77.0017768  14.9059219  59.7706582  76.8882140
  16.1596075  59.0237455  76.4853803  19.7426144  37.6878606  73.1695948
  18.9758540  37.1337093  73.3152630  20.1536849  37.7600475  74.0310100
  11.7467905  43.9763402  87.2601129  12.6099367  43.6200207  87.4704454
  11.1733316  43.6377297  87.9476534  24.2592804  67.4128163  73.9921946
  23.6957669  67.3218100  73.2238234  24.1445199  66.5928068  74.4724438
  28.8825771  66.7127538  83.9611261  28.8714412  66.3180337  83.0891764
  29.0446411  65.9793611  84.5545032  21.8057236  68.9079355  76.8306166
  22.5978528  68.5670179  76.4152466  22.0453886  69.0174330  77.7508320
  29.8392363  71.0799131  69.3036411  29.1880342  71.6653211  68.9170425
  30.6336725  71.6105326  69.3631448  23.7647990  68.1688268  69.7023545
  24.5378866  67.6217255  69.5636421  24.1173389  69.0332517  69.9138007
  25.6033032  69.4964650  82.9090445  25.3122898  70.4010281  82.7937111
  26.2390017  69.5381178  83.6234514  26.1014268  64.3280934  67.3341995
  26.3539788  63.8062455  66.5725458  25.1638827  64.1647079  67.4368679
  25.8210556  66.2309040  69.5366370  25.7046814  65.5553943  70.2047454
  25.9312816  65.7441414  68.7198523  24.0135399  65.6339863  75.9376943
  23.0885895  65.5016077  76.1454634  24.2619812  66.4134082  76.4346885
  21.3744210  65.2773136  76.7720732  21.5036591  65.5307615  77.6860143
  20.6941661  65.8700844  76.4525387  25.5443697  75.9470386  72.8711206
  25.4667727  76.8978211  72.9499686  24.9405341  75.6016259  73.5286132
  28.0360927  63.1198251  85.5272573  27.2594261  63.6792172  85.5175437
  28.6751490  63.6055034  86.0487443  26.2907299  65.9283705  85.0890540
  27.0321984  66.4668749  84.8125363  25.5844285  66.5549994  85.2462092
  31.7662639  68.0712845  83.6862701  32.1745995  67.6295256  82.9417334
  31.0439900  67.4965473  83.9396894  28.1193709  63.0085452  81.0596258
  28.9654904  63.4324866  81.2030907  28.0592347  62.3519076  81.7534821
  27.6419415  68.3688444  74.7065075  28.1057761  68.6476147  73.9169698
  27.3776214  67.4671889  74.5238166  24.5343497  67.9159926  77.6444839
  25.1044854  68.3447194  77.0062323  25.1251608  67.6342510  78.3429024
  25.0268663  63.0823353  85.8905850  24.3967324  63.7639634  86.1241247
  24.9204751  62.9706435  84.9458988  20.3213636  62.7495149  76.8171774
  19.5312689  63.0052678  76.3411885  20.8124883  63.5643487  76.9223815
  22.2728381  63.1139728  73.7755251  21.4759544  63.2258423  74.2938746
  22.0453973  63.4526381  72.9096141  28.1034049  69.6384432  81.7237765
  28.1678481  70.1004839  82.5595937  27.3944972  69.0081796  81.8520075
  18.6051338  63.0025639  79.2486765  18.8559377  63.8872649  79.5144341
  19.1410887  62.8230241  78.4761857  27.8182066  71.3052539  71.5916746
  27.6827741  72.1504075  72.0201593  28.3591879  71.5071817  70.8282679
  24.3049406  57.3844119  88.2531101  23.9116351  56.8310317  88.9278745
  25.1215546  57.6954697  88.6437618  21.2711464  68.8227977  72.1644671
  21.7835984  69.6171227  72.3150235  21.9234176  68.1254267  72.0978272
  23.0806348  71.9393733  74.2467424  23.2572977  72.8611698  74.0588408
  23.8763182  71.6252153  74.6761804  27.2217367  58.8001998  85.8451357
  27.9627080  59.4009151  85.7655820  27.4535290  58.0579636  85.2869400
  22.3658705  63.9858365  84.1229587  22.2512220  63.0843622  84.4236686
  21.5103223  64.2322062  83.7714404  29.4450543  71.9276106  85.7217088
  29.0014397  71.1412484  85.4037992  30.1067756  72.1155256  85.0560979
  24.2037664  73.4571907  80.2477766  24.7545089  73.3288970  79.4754760
  23.3649140  73.7566796  79.8972659  31.5431781  72.2078905  83.7498489
  31.5250256  73.0287786  83.2578758  32.4651701  72.0832981  83.9748630
  28.0004835  69.7223035  84.5921997  28.5333172  68.9611323  84.3621305
  27.4718916  69.4296687  85.3346152  31.1674530  54.8283101  80.1215639
  30.8238799  55.7184743  80.0454750  31.5353492  54.6384759  79.2585224
  19.2360380  67.1516631  72.9404241  20.0735602  67.5613640  72.7237949
  19.4138648  66.2116074  72.9104435  24.0976275  59.5128694  74.4647421
  24.6720027  59.2903875  73.7320614  24.6847258  59.5817388  75.2176022
  24.4245862  61.5433155  68.4843306  23.5883174  61.8807841  68.8052581
  24.2850632  61.4082135  67.5470443  27.5110148  66.6689238  65.1075782
  26.6037209  66.4378491  65.3066931  28.0081180  65.8726857  65.2949764
  30.4178227  75.3786745  68.0272469  29.7439925  75.6818442  68.6357426
  30.8044049  76.1815825  67.6777926  32.9662195  54.0876660  75.2233377
  33.2721072  53.2274024  74.9359292  33.6914800  54.6794280  75.0232371
  19.2586551  64.4907347  73.6114975  19.0610951  63.8976707  72.8866041
  18.7033215  64.1859557  74.3290913  28.3874469  68.3110576  66.9687851
  27.9493899  67.5946435  66.5093488  29.1284910  68.5386691  66.4072942
  25.1775635  63.0007513  73.4899947  24.3643501  63.3001683  73.8965139
  25.6734629  62.6063202  74.2074429  27.3284213  72.9965270  75.4234211
  27.2860392  73.2226116  74.4942743  28.2446912  72.7628644  75.5720013
  24.6689710  60.5725868  79.1061182  25.3089089  60.4314628  78.4084145
  23.8367240  60.2860382  78.7299784  25.4450014  69.8728299  75.2196174
  26.2390612  69.3778619  75.0178749  24.7341706  69.3446162  74.8563880
  21.7532777  64.0171381  71.2955927  20.8230365  63.9555836  71.5125889
  21.8490249  63.4947333  70.4992568  21.6718326  60.5426193  73.8834168
  21.9325144  61.4571527  73.7743329  22.4935499  60.0750636  74.0330781
  23.1443252  61.9563951  81.0532993  23.8166305  61.7481313  80.4045642
  22.3173038  61.7586037  80.6138225  29.0468824  58.5825891  83.0698654
  28.3996739  59.2815841  82.9763130  29.8169839  59.0162035  83.4374902
  32.4547622  68.8474744  86.1449207  32.3033128  68.6185295  85.2279291
  32.4452301  69.8045345  86.1580552  28.0221290  70.4457321  78.8994011
  27.8832375  70.0776105  79.7719949  27.2335886  70.9604960  78.7277969
  28.6169442  75.5466417  70.2419548  28.7921197  75.0754460  71.0565170
  27.9302230  76.1732183  70.4700808  23.5470749  65.2306554  81.8135430
  23.4090547  64.4986792  82.4146969  24.4575672  65.1415454  81.5319618
  26.1753049  64.9426513  81.3019110  26.8852668  64.3019705  81.2605728
  26.1322358  65.1939408  82.2245291  24.8881983  61.9291731  83.1214749
  24.3519340  61.4782469  83.7736346  24.2998692  62.0637640  82.3785214
  23.1830527  78.6955780  77.0159408  23.4227125  79.3274304  77.6938426
  22.3399723  78.3443820  77.3024767  34.1657235  69.8433450  82.4539669
  33.2784014  69.5059372  82.5766068  34.7355787  69.1116481  82.6908434
  15.8186383  66.1757542  75.7782720  16.5057422  65.8619272  75.1903735
  15.6634511  67.0798907  75.5049972  20.6221105  61.0647738  80.2067744
  20.5379293  60.4573408  79.4718154  19.8003811  61.5556757  80.2077240
  27.6958389  74.5034902  79.4200912  27.6228560  75.3089874  79.9320216
  27.2535782  74.7026868  78.5948933  27.4848168  73.7406673  72.9303733
  26.7015690  74.2828353  73.0241958  28.1840914  74.2580652  73.3297975
  25.2068986  72.1516180  82.3964641  25.9078445  72.7852663  82.5494036
  24.7364101  72.4930912  81.6360281  30.3019611  73.6688666  71.5860411
  30.8307378  73.1581120  70.9730573  30.5647831  73.3531196  72.4505944
  29.0557845  65.4480598  86.7083229  28.3798482  65.3474728  87.3785604
  29.8785479  65.2919812  87.1719226  20.8036704  71.6852535  79.3295744
  21.3890141  70.9396223  79.4623648  20.6061542  71.9956492  80.2132408
  23.6575359  74.7203782  74.3458186  22.9885734  75.2049910  73.8622226
  23.5188229  74.9673003  75.2601565  15.3954359  64.2558135  78.0500187
  15.4338458  63.7221726  78.8437305  14.8894652  63.7293341  77.4311164
  27.7980628  76.7547526  80.9440845  28.3498936  76.9179147  81.7089930
  28.1386821  77.3451964  80.2720870  22.7745121  59.1022676  81.5462730
  22.8386447  59.9637507  81.1340127  22.7112241  58.4896677  80.8135088
  22.2497394  61.1745808  85.1935764  22.8769432  60.7922886  85.8073288
  21.3925312  60.9560010  85.5591456  32.6491502  71.5808783  86.7989499
  33.1931406  72.1938742  86.3044454  32.0678347  72.1388362  87.3156512
  19.0262936  62.9822237  71.1254119  19.3216377  62.0732916  71.0721172
  18.1250972  62.9609977  70.8035121  22.5557183  61.0578234  77.1081667
  21.8343769  61.6714202  76.9689140  23.3450439  61.5935999  77.0298313
  25.3583497  58.3932660  83.3822319  25.8817899  58.6394957  84.1448628
  25.1395830  59.2252695  82.9625456  20.7550778  60.6636335  71.2493444
  20.4263484  59.7833714  71.0668550  21.1090149  60.6084004  72.1369833
  30.0030357  72.2991238  75.7588429  29.8555319  71.3707945  75.9395999
  30.8283850  72.3211328  75.2745505  23.8692601  60.9509305  71.6168921
  24.2088674  61.4795226  70.8947530  24.3164721  61.2889711  72.3927488
  26.5636042  59.3346356  81.0671989  26.2232862  58.5354169  81.4692669
  25.8575048  59.6348066  80.4948823  27.2152514  56.4195668  79.5199312
  28.0378583  55.9456146  79.3978203  27.4590577  57.1986152  80.0197999
  24.7391092  63.1114789  77.3291291  24.5935673  63.4255092  78.2215573
  24.2616296  63.7299689  76.7762190  28.4513606  60.5354677  79.4225308
  28.1931384  61.4571747  79.4209639  27.9198646  60.1385111  80.1125772
  19.2136755  65.6520133  80.2678952  18.6690223  66.4279941  80.3999227
  20.0916104  65.9990938  80.1098074  20.0002776  64.7790029  83.1609109
  19.2584512  64.9272665  83.7473740  19.6795521  65.0398295  82.2975859
  27.9446439  74.3206008  82.9589499  28.2533566  74.0755154  83.8312199
  28.7421921  74.5252646  82.4708369  27.9667051  76.4743917  75.1894876
  27.5272041  75.9820296  75.8827732  28.7175168  75.9316885  74.9486951
  20.4459390  72.6655458  75.1919504  21.2717410  72.3659230  74.8118147
  20.0953442  71.8963080  75.6409292  25.4140923  72.0181926  77.2617177
  24.7920933  71.3552631  76.9619405  26.0845790  72.0443058  76.5790825
  18.6467995  70.5841784  76.1508437  17.8099903  70.1563959  75.9692439
  18.6191641  70.7774228  77.0879229  25.4865451  60.4963714  86.8549683
  25.5353606  61.3725837  86.4727453  26.0287965  59.9541107  86.2821327
  35.9720296  71.0404838  86.1350821  35.1815840  71.0228976  85.5955320
  35.7353651  71.5793131  86.8899857  24.9754430  70.5685850  70.7375638
  25.1242551  71.2521314  70.0842311  25.7820874  70.5490940  71.2525094
  33.3821934  63.8728232  84.7642856  34.2831797  63.7334697  84.4726854
  33.4569908  64.0382687  85.7041033  27.7164739  61.2495087  83.6096042
  26.8468049  61.5428653  83.3378631  27.9524220  61.8335532  84.3303306
  22.7307063  66.5951027  71.7436707  22.4853105  65.6913357  71.9416917
  22.9002978  66.5968178  70.8016185  22.0002711  62.3279385  69.2422868
  21.3071956  62.4023740  68.5862904  21.7554463  61.5639728  69.7644385
  30.6716367  53.8874986  76.6462359  30.9518121  53.2198175  77.2722786
  31.4566974  54.0804082  76.1337023  28.4749836  73.0633980  68.2087385
  27.9023803  73.6824167  67.7557857  29.0482629  73.6133342  68.7427307
  31.6947095  73.3471130  69.3395968  32.6277769  73.2816692  69.5428843
  31.6070308  74.1827397  68.8810500  28.7435327  68.4512539  87.0104095
  29.6638336  68.6291138  87.2044141  28.7084910  67.5068584  86.8583794
  17.9617492  63.6451133  75.9357369  17.6420276  62.7916441  75.6431743
  17.4150920  63.8599711  76.6915337  21.7397399  66.3613574  79.6526876
  21.9583409  67.2930681  79.6714910  22.1523173  66.0021548  80.4381680
  26.6125265  61.9346779  89.0429625  26.5121992  62.8841136  88.9741716
  26.3946807  61.6065018  88.1705695  17.8305752  67.2654044  77.9050491
  17.1369223  66.8507997  77.3920445  18.5778743  67.3074581  77.3083910
  26.4756535  65.3643918  87.8594687  25.9923616  66.1644278  88.0658576
  26.5617474  65.3751863  86.9062131  19.7442494  67.1972298  75.7816506
  19.7213182  67.2959985  74.8298389  20.0543131  68.0437449  76.1033672
  22.4029872  69.2548453  79.8963120  23.3573126  69.2232395  79.8293052
  22.2042396  68.7939077  80.7113346  22.9929254  67.8249569  82.4633918
  23.8122143  68.3193648  82.4868755  23.2666062  66.9081537  82.4351486
  20.7580101  74.7968072  76.9133318  20.6234569  74.0368473  76.3471316
  20.3412163  75.5208972  76.4462107  23.9149227  75.6937389  77.1251761
  23.7981611  76.6382822  77.0230451  23.0941673  75.3910951  77.5137560
  18.2464169  62.1587703  83.1626115  18.8923032  61.6486657  83.6513340
  18.0381320  62.8956384  83.7369540  30.7717561  69.2268550  88.6618256
  31.6408720  69.4009203  88.3004891  30.2924312  70.0462967  88.5393985
  24.9403741  76.3465651  80.3407689  25.8430988  76.3789262  80.6574184
  24.7141111  75.4166102  80.3554025  26.6957343  75.0996638  77.0017768
  25.7452974  75.0998499  76.8882140  26.9989829  74.3529372  76.4853803
  22.5861660  59.3055320  87.2601129  23.4493121  58.9492125  87.4704454
  22.0127070  58.9669215  87.9476534  35.0986558  82.7420081  73.9921946
  34.5351424  82.6510018  73.2238234  34.9838953  81.9219985  74.4724438
  39.7219526  82.0419456  83.9611261  39.7108166  81.6472254  83.0891764
  39.8840165  81.3085529  84.5545032  32.6450990  84.2371272  76.8306166
  33.4372282  83.8962097  76.4152466  32.8847641  84.3466247  77.7508320
  40.6786117  86.4091048  69.3036411  40.0274097  86.9945129  68.9170425
  41.4730480  86.9397243  69.3631448  34.6041744  83.4980186  69.7023545
  35.3772620  82.9509173  69.5636421  34.9567143  84.3624435  69.9138007
  36.4426787  84.8256568  82.9090445  36.1516653  85.7302199  82.7937111
  37.0783771  84.8673095  83.6234514  36.6604311  81.5600958  69.5366370
  36.5440569  80.8845861  70.2047454  36.7706571  81.0733332  68.7198523
  41.4016672  84.5117983  79.9040238  41.1017395  85.4143022  79.7956045
  41.0567731  84.2450167  80.7561391  32.2137964  80.6065054  76.7720732
  32.3430346  80.8599533  77.6860143  31.5335416  81.1992762  76.4525387
  36.3837452  91.2762304  72.8711206  36.3061481  92.2270129  72.9499686
  35.7799095  90.9308176  73.5286132  37.1301054  81.2575623  85.0890540
  37.8715738  81.7960666  84.8125363  36.4238039  81.8841911  85.2462092
  42.6056393  83.4004763  83.6862701  43.0139749  82.9587174  82.9417334
  41.8833655  82.8257390  83.9396894  46.8074440  84.8960391  74.7959354
  46.1225478  85.2759293  74.2456387  46.8918289  85.5055718  75.5291302
  35.8662418  78.4115271  85.8905850  35.2361078  79.0931552  86.1241247
  35.7598505  78.2998352  84.9458988  31.1607390  78.0787067  76.8171774
  30.3706444  78.3344595  76.3411885  31.6518637  78.8935405  76.9223815
  45.1771200  85.4192306  79.5677055  45.9988643  85.0172493  79.2859736
  45.1733602  85.3160540  80.5193171  38.9427803  84.9676349  81.7237765
  39.0072236  85.4296756  82.5595937  38.2338727  84.3373714  81.8520075
  29.4445093  78.3317557  79.2486765  29.6953131  79.2164567  79.5144341
  29.9804641  78.1522159  78.4761857  38.6575821  86.6344457  71.5916746
  38.5221495  87.4795992  72.0201593  39.1985633  86.8363734  70.8282679
  35.1443160  72.7136037  88.2531101  34.7510106  72.1602235  88.9278745
  35.9609301  73.0246615  88.6437618  32.1105218  84.1519895  72.1644671
  32.6229739  84.9463145  72.3150235  32.7627931  83.4546185  72.0978272
  33.9200103  87.2685651  74.2467424  34.0966731  88.1903616  74.0588408
  34.7156936  86.9544070  74.6761804  33.2052459  79.3150283  84.1229587
  33.0905974  78.4135540  84.4236686  32.3496977  79.5613980  83.7714404
  40.2844297  87.2568023  85.7217088  39.8408151  86.4704402  85.4037992
  40.9461511  87.4447174  85.0560979  35.0431418  88.7863825  80.2477766
  35.5938843  88.6580888  79.4754760  34.2042894  89.0858714  79.8972659
  42.3825535  87.5370823  83.7498489  42.3644010  88.3579704  83.2578758
  43.3045455  87.4124898  83.9748630  38.8398589  85.0514953  84.5921997
  39.3726926  84.2903241  84.3621305  38.3112670  84.7588604  85.3346152
  30.0754135  82.4808549  72.9404241  30.9129357  82.8905557  72.7237949
  30.2532403  81.5407991  72.9104435  40.2051302  84.1800945  72.1040809
  39.6772664  83.4453705  71.7914047  39.7038805  84.9575621  71.8580778
  38.3503902  81.9981155  65.1075782  37.4430964  81.7670409  65.3066931
  38.8474934  81.2018775  65.2949764  41.2571981  90.7078663  68.0272469
  40.5833680  91.0110359  68.6357426  41.6437803  91.5107743  67.6777926
  39.5292136  82.0993750  69.6299772  38.6203355  81.8152783  69.7272242
  39.5587219  82.5192829  68.7703079  44.7611403  85.7100340  73.3990940
  44.3073730  84.8691250  73.4556131  44.1305370  86.3461738  73.7365720
  43.2044342  87.5476836  74.3340758  43.4967317  88.1081894  73.6153124
  43.7142963  87.8405397  75.0893917  30.0980306  79.8199264  73.6114975
  29.9004706  79.2268625  72.8866041  29.5426970  79.5151475  74.3290913
  39.2268223  83.6402494  66.9687851  38.7887653  82.9238353  66.5093488
  39.9678664  83.8678609  66.4072942  38.1677967  88.3257187  75.4234211
  38.1254146  88.5518034  74.4942743  39.0840666  88.0920562  75.5720013
  41.1038613  87.5838312  79.5708542  41.1575635  88.1529248  80.3386258
  40.2353394  87.7540197  79.2062579  48.2326267  84.0259919  80.5708327
  48.4262157  84.9305729  80.8167601  48.1326885  83.5667338  81.4046912
  43.2941376  84.1766661  86.1449207  43.1426882  83.9477213  85.2279291
  43.2846055  85.1337263  86.1580552  38.8615044  85.7749238  78.8994011
  38.7226130  85.4068023  79.7719949  38.0729640  86.2896878  78.7277969
  39.4563196  90.8758335  70.2419548  39.6314952  90.4046378  71.0565170
  38.7695984  91.5024101  70.4700808  45.0033583  87.2085784  84.2225689
  44.9446129  86.5245004  83.5556272  45.4053101  87.9504774  83.7706315
  34.0224281  94.0247698  77.0159408  34.2620880  94.6566222  77.6938426
  33.1793478  93.6735738  77.3024767  45.0050990  85.1725368  82.4539669
  44.1177769  84.8351290  82.5766068  45.5749541  84.4408399  82.6908434
  26.6580137  81.5049460  75.7782720  27.3451177  81.1911190  75.1903735
  26.5028266  82.4090824  75.5049972  38.5352143  89.8326820  79.4200912
  38.4622315  90.6381792  79.9320216  38.0929536  90.0318786  78.5948933
  38.3241923  89.0698590  72.9303733  37.5409445  89.6120270  73.0241958
  39.0234668  89.5872570  73.3297975  40.9950827  89.7313654  81.5759071
  41.7078799  90.3661119  81.5034972  40.5040855  89.8277520  80.7599072
  42.7168354  83.6364907  73.1476362  41.7824632  83.7566369  72.9781067
  42.8945022  82.7337374  72.8836372  36.0462740  87.4808098  82.3964641
  36.7472200  88.1144581  82.5494036  35.5757855  87.8222829  81.6360281
  44.1717136  85.8226047  70.6812548  44.4476980  85.7082642  71.5906422
  43.3021635  85.4243532  70.6424721  40.8071200  90.0712398  74.3245362
  40.9893595  89.2534054  74.7873114  41.6304186  90.2880091  73.8870252
  41.1413366  88.9980583  71.5860411  41.6701132  88.4873038  70.9730573
  41.4041585  88.6823114  72.4505944  39.8951599  80.7772516  86.7083229
  39.2192236  80.6766646  87.3785604  40.7179233  80.6211730  87.1719226
  31.6430458  87.0144453  79.3295744  32.2283895  86.2688141  79.4623648
  31.4455297  87.3248409  80.2132408  34.4969114  90.0495700  74.3458186
  33.8279489  90.5341828  73.8622226  34.3581983  90.2964921  75.2601565
  26.2348113  79.5850053  78.0500187  26.2732213  79.0513644  78.8437305
  25.7288406  79.0585258  77.4311164  38.6374382  92.0839444  80.9440845
  39.1892690  92.2471065  81.7089930  38.9780576  92.6743881  80.2720870
  33.0891148  76.5037726  85.1935764  33.7163187  76.1214803  85.8073288
  32.2319067  76.2851928  85.5591456  43.4885257  86.9100701  86.7989499
  44.0325161  87.5230659  86.3044454  42.9072101  87.4680280  87.3156512
  29.8656691  78.3114155  71.1254119  30.1610132  77.4024833  71.0721172
  28.9644727  78.2901895  70.8035121  41.7742770  90.0321419  77.9304527
  41.6493909  89.2311159  77.4215472  42.4321861  90.5267613  77.4418497
  43.8377678  87.8330439  79.5584077  42.8908013  87.7135790  79.4862404
  44.1860451  86.9452937  79.6410338  40.8424111  87.6283155  75.7588429
  40.6949074  86.6999863  75.9395999  41.6677605  87.6503246  75.2745505
  44.4458233  88.4511714  76.8453302  45.3704781  88.2454576  76.7077753
  44.2773536  88.2028115  77.7542644  44.2353549  88.9697382  72.2015393
  44.4090427  88.4043804  71.4489246  44.7282440  89.7698277  72.0194883
  30.0530509  80.9812051  80.2678952  29.5083977  81.7571859  80.3999227
  30.9309859  81.3282855  80.1098074  45.2228722  88.2864146  69.3012292
  45.9179626  88.9070839  69.5199606  45.5651872  87.4359497  69.5764670
  30.8396531  80.1081947  83.1609109  30.0978267  80.2564582  83.7473740
  30.5189275  80.3690213  82.2975859  47.1220145  85.7363852  70.8299623
  47.6471469  86.0751124  70.1048943  47.0342497  84.8010867  70.6462757
  38.7840194  89.6497925  82.9589499  39.0927320  89.4047072  83.8312199
  39.5815676  89.8544564  82.4708369  38.8060806  91.8035835  75.1894876
  38.3665796  91.3112214  75.8827732  39.5568923  91.2608803  74.9486951
  31.2853145  87.9947376  75.1919504  32.1111165  87.6951148  74.8118147
  30.9347197  87.2254998  75.6409292  36.2534678  87.3473844  77.2617177
  35.6314687  86.6844549  76.9619405  36.9239545  87.3734976  76.5790825
  29.4861750  85.9133702  76.1508437  28.6493658  85.4855877  75.9692439
  29.4585395  86.1066146  77.0879229  36.3259205  75.8255632  86.8549683
  36.3747361  76.7017755  86.4727453  36.8681719  75.2833025  86.2821327
  46.8114051  86.3696755  86.1350821  46.0209595  86.3520894  85.5955320
  46.5747406  86.9085049  86.8899857  46.9311926  83.2189222  83.4483549
  46.9809931  83.0539229  84.3899072  46.8225849  82.3516481  83.0581430
  35.8148185  85.8977767  70.7375638  35.9636305  86.5813232  70.0842311
  36.6214628  85.8782857  71.2525094  48.4330123  85.6386163  83.6925571
  48.1414931  86.0016144  84.5289032  47.8202254  84.9253171  83.5138903
  33.5700818  81.9242945  71.7436707  33.3246860  81.0205275  71.9416917
  33.7396732  81.9260095  70.8016185  39.3143590  88.3925898  68.2087385
  38.7417557  89.0116085  67.7557857  39.8876384  88.9425259  68.7427307
  42.5340850  88.6763048  69.3395968  43.4671523  88.6108610  69.5428843
  42.4464063  89.5119315  68.8810500  45.1628867  87.9928918  66.2999915
  45.0842498  87.6588782  67.1935673  45.9838533  88.4850686  66.2991388
  39.5829081  83.7804457  87.0104095  40.5032091  83.9583056  87.2044141
  39.5478664  82.8360502  86.8583794  28.8011246  78.9743050  75.9357369
  28.4814031  78.1208358  75.6431743  28.2544674  79.1891628  76.6915337
  32.5791154  81.6905491  79.6526876  32.7977164  82.6222599  79.6714910
  32.9916928  81.3313466  80.4381680  37.4519019  77.2638697  89.0429625
  37.3515746  78.2133054  88.9741716  37.2340561  76.9356936  88.1705695
  28.6699506  82.5945962  77.9050491  27.9762978  82.1799915  77.3920445
  29.4172497  82.6366498  77.3083910  37.3150289  80.6935836  87.8594687
  36.8317371  81.4936196  88.0658576  37.4011228  80.7043781  86.9062131
  30.5836249  82.5264216  75.7816506  30.5606937  82.6251903  74.8298389
  30.8936885  83.3729366  76.1033672  33.2423627  84.5840371  79.8963120
  34.1966880  84.5524313  79.8293052  33.0436150  84.1230994  80.7113346
  33.8323009  83.1541487  82.4633918  34.6515898  83.6485565  82.4868755
  34.1059816  82.2373455  82.4351486  31.5973855  90.1259990  76.9133318
  31.4628323  89.3660391  76.3471316  31.1805918  90.8500890  76.4462107
  42.7332818  85.3096914  65.9209894  43.4368669  85.5146916  66.5367549
  42.0095467  85.8773675  66.1858977  34.7542981  91.0229307  77.1251761
  34.6375365  91.9674740  77.0230451  33.9335428  90.7202869  77.5137560
  44.6419516  85.7479443  67.9708354  45.4765120  85.3160641  67.7885828
  44.4803859  85.5761456  68.8985248  29.0857923  77.4879620  83.1626115
  29.7316787  76.9778574  83.6513340  28.8775074  78.2248302  83.7369540
  41.6111315  84.5560468  88.6618256  42.4802475  84.7301120  88.3004891
  41.1318067  85.3754885  88.5393985  35.7797495  91.6757569  80.3407689
  36.6824742  91.7081179  80.6574184  35.5534865  90.7458020  80.3554025
  37.5351097  90.4288556  77.0017768  36.5846728  90.4290417  76.8882140
  37.8383584  89.6821290  76.4853803  33.4255414  74.6347238  87.2601129
  34.2886876  74.2784042  87.4704454  32.8520825  74.2961132  87.9476534
  53.2703791  96.2649094  78.0663530  53.9082201  96.1455841  77.3626870
  53.1524634  97.2129938  78.1251482  50.0793497  96.2176522  78.0025055
  49.7412009  96.1017587  77.1145590  50.9483265  95.8167687  77.9826061
  45.9380313  98.0711998  73.9921946  45.3745178  97.9801935  73.2238234
  45.8232708  97.2511903  74.4724438  43.4844745  99.5663190  76.8306166
  44.2766037  99.2254015  76.4152466  43.7241395  99.6758165  77.7508320
  51.5179872 101.7382966  69.3036411  50.8667851 102.3237047  68.9170425
  52.3124234 102.2689161  69.3631448  45.4435499  98.8272103  69.7023545
  46.2166375  98.2801090  69.5636421  45.7960898  99.6916353  69.9138007
  48.2076748  97.5325334  79.4991804  48.8040320  97.3081356  78.7848767
  48.2651720  96.7910080  80.1017252  47.7801777  94.9864769  67.3341995
  48.0327297  94.4646291  66.5725458  46.8426336  94.8230915  67.4368679
  52.8245059  93.9900548  75.1416738  53.6108149  93.5719971  74.7907155
  53.0883764  94.8946640  75.3098387  52.9955137  99.4273398  69.8405395
  52.3600970  99.5008025  70.5526300  52.6652543 100.0166997  69.1624474
  58.2253487  93.9275781  76.0449717  58.9578658  93.3574998  76.2787546
  57.4692842  93.5397381  76.4856222  47.4998065  96.8892875  69.5366370
  47.3834323  96.2137779  70.2047454  47.6100325  96.4025249  68.7198523
  49.8429606  96.3503022  73.2413059  49.4787814  95.8233643  73.9525981
  50.6996722  95.9601492  73.0679545  55.7478907  87.6397355  80.5044325
  55.4162232  88.5092766  80.2805540  55.1524520  87.3233639  81.1838356
  49.4835093  91.3792922  68.2374408  49.6509496  92.2473159  68.6044879
  49.2932262  91.5420204  67.3135697  52.2410426  99.8409901  79.9040238
  51.9411150 100.7434940  79.7956045  51.8961486  99.5742084  80.7561391
  45.6922908  96.2923698  75.9376943  44.7673404  96.1599912  76.1454634
  45.9407321  97.0717917  76.4346885  55.6407570  92.3592441  77.5837676
  54.7324448  92.2907850  77.2896437  55.5895166  92.8364386  78.4119501
  49.4624314  93.8350580  69.2221075  49.3423939  94.2807630  70.0606555
  48.7676903  94.1835897  68.6634613  43.0531719  95.9356971  76.7720732
  43.1824100  96.1891450  77.6860143  42.3729170  96.5284679  76.4525387
  57.5069217  90.5608880  79.3615549  56.8643597  90.8541413  78.7155344
  57.0024145  90.4461800  80.1668746  55.1609380  94.3072053  70.0501409
  56.0727236  94.5399440  69.8749106  54.6519027  94.8909097  69.4876487
  47.9694808  96.5867540  85.0890540  48.7109493  97.1252584  84.8125363
  47.2631794  97.2133829  85.2462092  49.7981218  93.6669287  81.0596258
  50.6442413  94.0908701  81.2030907  49.7379856  93.0102912  81.7534821
  53.7678963  99.2897871  77.4414990  53.1387825  99.4543585  76.7391058
  53.3804625  99.7039481  78.2125954  57.6468194 100.2252309  74.7959354
  56.9619233 100.6051210  74.2456387  57.7312044 100.8347636  75.5291302
  52.9480663  91.3273656  82.7177432  52.7041595  92.0815716  82.1811708
  53.2240594  91.7059003  83.5524679  54.9019126  97.8712268  81.3954697
  55.1136021  98.5144028  80.7189079  54.8548874  97.0374585  80.9276628
  52.5045355  90.4830089  78.2991270  51.6429834  90.7811342  78.5908007
  52.5307790  90.7000488  77.3672302  49.3206924  99.0272279  74.7065075
  49.7845270  99.3059982  73.9169698  49.0563723  98.1255724  74.5238166
  46.2131006  98.5743761  77.6444839  46.7832363  99.0031029  77.0062323
  46.8039117  98.2926346  78.3429024  48.2575811  95.1495432  71.5154640
  48.9599854  95.6016475  71.9828567  47.9256439  94.5079251  72.1434534
  46.7056172  93.7407188  85.8905850  46.0754833  94.4223469  86.1241247
  46.5992260  93.6290270  84.9458988  42.0001144  93.4078984  76.8171774
  41.2100198  93.6636513  76.3411885  42.4912392  94.2227322  76.9223815
  43.9515890  93.7723564  73.7755251  43.1547053  93.8842258  74.2938746
  43.7241482  94.1110216  72.9096141  40.2838847  93.6609475  79.2486765
  40.5346886  94.5456485  79.5144341  40.8198396  93.4814076  78.4761857
  64.1070947  97.0922972  75.9162026  63.3534655  96.5230370  75.7606031
  64.2418488  97.0585637  76.8632661  49.4969575 101.9636374  71.5916746
  49.3615250 102.8087910  72.0201593  50.0379388 102.1655652  70.8282679
  45.9836915  88.0427954  88.2531101  45.5903860  87.4894153  88.9278745
  46.8003055  88.3538533  88.6437618  42.9498973  99.4811812  72.1644671
  43.4623493 100.2755063  72.3150235  43.6021685  98.7838103  72.0978272
  48.9004876  89.4585833  85.8451357  49.6414589  90.0592986  85.7655820
  49.1322799  88.7163471  85.2869400  44.0446214  94.6442201  84.1229587
  43.9299729  93.7427458  84.4236686  43.1890732  94.8905897  83.7714404
  52.8462039  85.4866936  80.1215639  52.5026308  86.3768578  80.0454750
  53.2141001  85.2968594  79.2585224  40.9147889  97.8100467  72.9404241
  41.7523111  98.2197475  72.7237949  41.0926157  96.8699909  72.9104435
  52.8112321  95.4775547  68.6288074  52.2958945  96.2480152  68.8676462
  52.5389630  94.8040684  69.2521136  50.3959432  90.3225248  73.6873313
  49.5401029  89.9332099  73.5078951  50.8086384  90.4017209  72.8273098
  51.9258579  87.8571591  78.0864872  51.4223375  87.8201727  77.2732678
  52.2189186  88.7664334  78.1461529  48.1701465  87.9410321  77.0931054
  49.0354462  87.7453130  76.7336944  48.2378974  87.7120673  78.0200411
  57.7846596  98.2307902  70.5641248  57.0076038  97.8919061  70.1196410
  58.4638077  98.2360525  69.8896213  52.5998625  93.3502639  70.4547855
  52.2948760  93.6648789  71.3057999  53.5529067  93.4284059  70.4975188
  51.0445056  99.5092863  72.1040809  50.5166418  98.7745622  71.7914047
  50.5432559 100.2867539  71.8580778  56.0237902  97.7041883  77.2207856
  55.3661577  98.3941145  77.3087984  56.8278302  98.0938315  77.5641842
  45.7763784  90.1712529  74.4647421  46.3507536  89.9487711  73.7320614
  46.3634767  90.2401224  75.2176022  54.8343361  96.0586256  75.2711797
  55.3475243  96.6916248  75.7733507  55.4844585  95.4587451  74.9055157
  46.1033371  92.2016990  68.4843306  45.2670683  92.5391677  68.8052581
  45.9638141  92.0665970  67.5470443  48.0786452  87.0453778  73.1922490
  47.4250864  86.7302795  72.5679105  48.0366926  86.4229518  73.9182313
  49.1897657  97.3273073  65.1075782  48.2824718  97.0962326  65.3066931
  49.6868689  96.5310692  65.2949764  51.3124192  93.5335711  77.5170138
  50.3946754  93.7550658  77.3591826  51.7284336  93.6082022  76.6581845
  52.0959240  94.9327127  72.6472818  52.8431059  95.4448524  72.3379940
  52.3650829  94.6111180  73.5077212  50.3685890  97.4285668  69.6299772
  49.4597109  97.1444701  69.7272242  50.3980974  97.8484746  68.7703079
  55.6005157 101.0392257  73.3990940  55.1467485 100.1983167  73.4556131
  54.9699124 101.6753656  73.7365720  54.5438077  91.9684243  74.6291608
  53.8060834  91.4561630  74.9601850  54.7964851  91.5284625  73.8174884
  54.0438097 102.8768754  74.3340758  54.3361071 103.4373811  73.6153124
  54.5536717 103.1697315  75.0893917  54.6449704  84.7460495  75.2233377
  54.9508581  83.8857859  74.9359292  55.3702309  85.3378116  75.0232371
  40.9374060  95.1491182  73.6114975  40.7398460  94.5560543  72.8866041
  40.3820724  94.8443392  74.3290913  48.9170784  95.0414288  75.7309568
  48.9719394  94.0888125  75.6552044  48.1061986  95.1973728  76.2150866
  50.0661978  98.9694412  66.9687851  49.6281408  98.2530270  66.5093488
  50.8072419  99.1970526  66.4072942  46.8563144  93.6591348  73.4899947
  46.0431010  93.9585519  73.8965139  47.3522138  93.2647037  74.2074429
  52.4537356  94.1233173  82.3214841  52.8086743  94.3504646  83.1809306
  53.1009487  94.4551550  81.6992096  58.1835093  97.2451609  73.0264170
  58.0452991  97.4353205  72.0985359  57.8271311  98.0070991  73.4832221
  46.3477219  91.2309704  79.1061182  46.9876598  91.0898463  78.4084145
  45.5154749  90.9444217  78.7299784  58.2104472  99.3128136  78.0375441
  58.6440979  99.2203425  78.8858495  58.9236053  99.2885636  77.3995457
  47.1237523 100.5312134  75.2196174  47.9178121 100.0362454  75.0178749
  46.4129215 100.0029997  74.8563880  43.4320286  94.6755216  71.2955927
  42.5017874  94.6139671  71.5125889  43.5277758  94.1531169  70.4992568
  43.3505835  91.2010029  73.8834168  43.6112653  92.1155362  73.7743329
  44.1723008  90.7334471  74.0330781  44.8230761  92.6147786  81.0532993
  45.4953814  92.4065148  80.4045642  43.9960547  92.4169872  80.6138225
  50.7256333  89.2409727  83.0698654  50.0784248  89.9399677  82.9763130
  51.4957348  89.6745871  83.4374902  50.9020467  97.0790492  81.1295474
  51.8312527  97.2301651  80.9564441  50.4811497  97.1674513  80.2744120
  49.7008799 101.1041156  78.8994011  49.5619884 100.7359941  79.7719949
  48.9123395 101.6188796  78.7277969  51.2514014 100.4822759  76.2882849
  50.9163846 100.4423529  77.1840499  50.7517960  99.8167475  75.8153259
  45.2258258  95.8890389  81.8135430  45.0878056  95.1570628  82.4146969
  46.1363181  95.7999289  81.5319618  54.1873205  97.8278793  66.5619909
  53.5702376  97.1025621  66.4652961  53.7189694  98.5888153  66.2186983
  47.8540558  95.6010348  81.3019110  48.5640177  94.9603540  81.2605728
  47.8109867  95.8523243  82.2245291  46.5669492  92.5875566  83.1214749
  46.0306849  92.1366305  83.7736346  45.9786201  92.7221475  82.3785214
  45.9771751  92.0464218  65.6841213  45.1001218  91.9253018  65.3203460
  46.4529504  91.2550296  65.4320102  37.4973892  96.8341377  75.7782720
  38.1844931  96.5203107  75.1903735  37.3422020  97.7382742  75.5049972
  42.3008614  91.7231574  80.2067744  42.2166802  91.1157243  79.4718154
  41.4791320  92.2140592  80.2077240  52.4732328  90.2085137  75.5737939
  52.9701027  89.4555100  75.2539009  51.7019309  90.2449454  75.0081148
  60.3262085  95.9125503  77.2156230  60.3151961  96.7950218  76.8450163
  59.4579464  95.5597054  77.0210767  53.5562108  98.9656825  73.1476362
  52.6218387  99.0858287  72.9781067  53.7338777  98.0629291  72.8836372
  49.0567296  92.3502520  75.3009623  48.6865084  91.7973561  75.9890529
  49.5526389  91.7460654  74.7484623  56.9434660  94.8074144  73.6826396
  57.4095112  95.6402135  73.6086699  57.3942160  94.3419125  74.3871655
  55.0110891 101.1517965  70.6812548  55.2870735 101.0374560  71.5906422
  54.1415389 100.7535450  70.6424721  54.9151322  87.1754731  77.7217298
  54.0014402  87.4058958  77.8899505  55.3444424  87.2593175  78.5731330
  54.6857781  95.3644623  80.2217192  54.0329231  95.6120530  79.5669644
  55.0638161  94.5508761  79.8879669  37.0741868  94.9141971  78.0500187
  37.1125967  94.3805561  78.8437305  36.5682160  94.3877176  77.4311164
  44.4532630  89.7606511  81.5462730  44.5173956  90.6221342  81.1340127
  44.3899750  89.1480513  80.8135088  43.9284902  91.8329644  85.1935764
  44.5556941  91.4506721  85.8073288  43.0712821  91.6143846  85.5591456
  40.7050445  93.6406073  71.1254119  41.0003886  92.7316751  71.0721172
  39.8038481  93.6193812  70.8035121  44.2344692  91.7162069  77.1081667
  43.5131278  92.3298037  76.9689140  45.0237948  92.2519834  77.0298313
  47.0371006  89.0516496  83.3822319  47.5605408  89.2978792  84.1448628
  46.8183339  89.8836531  82.9625456  42.4338287  91.3220170  71.2493444
  42.1050993  90.4417549  71.0668550  42.7877658  91.2667839  72.1369833
  51.6817866 102.9575073  75.7588429  51.5342828 102.0291781  75.9395999
  52.5071359 102.9795164  75.2745505  45.5480110  91.6093140  71.6168921
  45.8876182  92.1379061  70.8947530  45.9952230  91.9473546  72.3927488
  55.2851988 103.7803632  76.8453302  56.2098535 103.5746493  76.7077753
  55.1167291 103.5320033  77.7542644  48.2423551  89.9930191  81.0671989
  47.9020371  89.1938004  81.4692669  47.5362557  90.2931902  80.4948823
  48.8940023  87.0779503  79.5199312  49.7166092  86.6039982  79.3978203
  49.1378086  87.8569987  80.0197999  47.5348257  90.1067762  69.8162214
  48.2556620  90.4849015  69.3125931  46.9113561  90.8256639  69.9197192
  51.6779380  90.8112911  70.7520547  51.8942994  91.6937549  70.4509375
  51.1973447  90.4199124  70.0226189  46.4178601  93.7698624  77.3291291
  46.2723182  94.0838927  78.2215573  45.9403805  94.3883524  76.7762190
  48.2774984  90.7601172  77.3772181  48.2636553  89.8642265  77.0404479
  48.9947412  90.7671836  78.0110467  50.1301115  91.1938512  79.4225308
  49.8718893  92.1155583  79.4209639  49.5986155  90.7968947  80.1125772
  55.0747304 104.2989299  72.2015393  55.2484181 103.7335722  71.4489246
  55.5676195 105.0990194  72.0194883  40.8924264  96.3103968  80.2678952
  40.3477732  97.0863776  80.3999227  41.7703613  96.6574773  80.1098074
  47.6811880  89.6415552  72.6459751  47.8027791  88.7132198  72.8450638
  47.3913923  89.6554238  71.7338066  50.5503071  87.3270463  75.7826471
  50.5724767  87.3909796  74.8278450  50.9671130  86.4874971  75.9766977
  60.9286695  97.0625722  73.8205693  61.3717841  96.3133047  73.4224816
  60.0513205  97.0535859  73.4379425  56.0622476 103.6156064  69.3012292
  56.7573381 104.2362756  69.5199606  56.4045626 102.7651415  69.5764670
  41.6790285  95.4373865  83.1609109  40.9372021  95.5856500  83.7473740
  41.3583030  95.6982130  82.2975859  57.9613899 101.0655769  70.8299623
  58.4865223 101.4043042  70.1048943  57.8736252 100.1302785  70.6462757
  47.1652960  91.1547550  86.8549683  47.2141115  92.0309672  86.4727453
  47.7075474  90.6124943  86.2821327  46.6541939 101.2269685  70.7375638
  46.8030060 101.9105149  70.0842311  47.4608383 101.2074775  71.2525094
  49.3952248  91.9078922  83.6096042  48.5255558  92.2012488  83.3378631
  49.6311729  92.4919367  84.3303306  60.4719560  98.5330961  76.2128141
  61.3066451  98.9720765  76.3765701  60.6078688  98.0569614  75.3936387
  44.4094572  97.2534863  71.7436707  44.1640614  96.3497193  71.9416917
  44.5790487  97.2552013  70.8016185  52.0991282  88.1258539  81.1261462
  52.6173226  88.8619566  80.8007951  51.7446415  88.4322532  81.9608222
  43.6790220  92.9863220  69.2422868  42.9859465  93.0607575  68.5862904
  43.4341972  92.2223564  69.7644385  52.3503876  84.5458822  76.6462359
  52.6305630  83.8782011  77.2722786  53.1354483  84.7387917  76.1337023
  56.2212735  92.9676455  80.3933934  57.1730157  93.0674553  80.4146158
  56.0516185  92.1754724  80.9032019  54.2427114  90.0532039  80.5793335
  53.6477046  90.3337051  79.8839824  53.9576811  90.5425940  81.3510076
  56.0022621 103.3220836  66.2999915  55.9236253 102.9880699  67.1935673
  56.8232288 103.8142604  66.2991388  58.7000812  96.1882575  79.5076234
  58.6677132  95.2498576  79.6935918  59.3101436  96.2666612  78.7742059
  50.5384143  95.0578628  65.5503438  51.4843248  94.9284836  65.6191856
  50.1598388  94.3193290  66.0272866  58.8495301  92.9793619  79.5534517
  58.3334349  92.1952075  79.3664446  59.7335249  92.6512335  79.7181036
  56.5106028  86.7234634  75.5130330  56.3130849  86.4149722  76.3973662
  57.1205733  87.4496273  75.6428260  62.5992659  95.3906445  79.2456722
  61.8725823  95.2562410  78.6373213  62.1839946  95.6983273  80.0513440
  48.7227060  92.9828605  65.4858323  47.8158516  92.6861717  65.5621037
  49.0003041  92.6858423  64.6192609  39.6405001  94.3034968  75.9357369
  39.3207785  93.4500276  75.6431743  39.0938429  94.5183546  76.6915337
  43.4184908  97.0197409  79.6526876  43.6370918  97.9514517  79.6714910
  43.8310682  96.6605383  80.4381680  50.3389126  87.5265494  71.6402564
  49.5289854  87.1812579  72.0157810  51.0273543  87.2173038  72.2290176
  52.2679674  86.6043541  73.2626861  52.8210713  87.0238994  73.9216884
  52.5049761  85.6779289  73.3049817  47.4925845  89.8415540  65.6270302
  48.3545009  90.1670438  65.8866120  47.6776189  89.0547036  65.1143368
  39.5093261  97.9237879  77.9050491  38.8156732  97.5091832  77.3920445
  40.2566252  97.9658416  77.3083910  55.6458481  88.7144066  72.7705525
  55.0657150  89.3728870  72.3883578  55.3794414  87.8921411  72.3592943
  54.0962048  88.1149124  74.9726846  54.5961826  88.2265658  74.1641164
  54.7397656  87.8110177  75.6127654  41.4230003  97.8556133  75.7816506
  41.4000691  97.9543820  74.8298389  41.7330640  98.7021284  76.1033672
  44.0817381  99.9132288  79.8963120  45.0360635  99.8816231  79.8293052
  43.8829905  99.4522912  80.7113346  44.6716763  98.4833404  82.4633918
  45.4909652  98.9777483  82.4868755  44.9453571  97.5665372  82.4351486
  54.4283359  90.8744157  71.8261874  53.5409214  91.1593807  71.6082068
  54.8437349  90.7137920  70.9789150  57.7797896  90.8990678  75.5416213
  58.5558286  91.3887130  75.8140830  57.0546030  91.3248732  75.9988082
  60.2170454  91.6118297  76.5990153  60.8114945  91.3714033  75.8883462
  60.2897038  90.8925427  77.2263690  53.5726573 100.6388831  65.9209894
  54.2762423 100.8438834  66.5367549  52.8489222 101.2065593  66.1858977
  54.4024383  96.3898693  72.0412164  54.3459585  96.8467244  71.2019796
  54.9552726  95.6289377  71.8635006  58.2129189  92.1788424  72.8662283
  57.9566123  91.7785060  73.6970491  57.5882057  92.8932218  72.7412422
  62.5241527  94.9184498  75.3733575  61.9641085  94.9877687  76.1465137
  61.9185030  94.7425482  74.6533071  55.4813270 101.0771360  67.9708354
  56.3158874 100.6452559  67.7885828  55.3197613 100.9053374  68.8985248
  55.1359163  97.5803474  69.3364693  55.0807966  97.4147745  68.3953137
  54.5105218  98.2879507  69.4926883  39.9251678  92.8171538  83.1626115
  40.5710541  92.3070492  83.6513340  39.7168829  93.5540220  83.7369540
  44.2649169  89.9639155  87.2601129  45.1280630  89.6075960  87.4704454
  43.6914579  89.6253050  87.9476534  61.2353187 105.6517166  73.6873313
  60.3794783 105.2624016  73.5078951  61.6480139 105.7309127  72.8273098
  56.6157539 105.5004447  74.4647421  57.1901290 105.2779628  73.7320614
  57.2028521 105.5693141  75.2176022  58.9180206 102.3745696  73.1922490
  58.2644619 102.0594713  72.5679105  58.8760680 101.7521436  73.9182313
  65.4843459 100.0752413  75.2233377  65.7902336  99.2149777  74.9359292
  66.2096064 100.6670033  75.0232371  62.5173134 106.1404828  70.7520547
  62.7336749 107.0229466  70.4509375  62.0367202 105.7491042  70.0226189
  58.5205635 104.9707470  72.6459751  58.6421546 104.0424116  72.8450638
  58.2307677 104.9846156  71.7338066  61.3896825 102.6562380  75.7826471
  61.4118522 102.7201713  74.8278450  61.8064884 101.8166889  75.9766977
  63.1897631  99.8750739  76.6462359  63.4699384  99.2073928  77.2722786
  63.9748238 100.0679835  76.1337023  61.1782881 102.8557412  71.6402564
  60.3683609 102.5104497  72.0157810  61.8667297 102.5464956  72.2290176
  63.1073429 101.9335459  73.2626861  63.6604467 102.3530912  73.9216884
  63.3443515 101.0071207  73.3049817  58.3319599 105.1707457  65.6270302
  59.1938763 105.4962356  65.8866120  58.5169944 104.3838953  65.1143368
  66.4852236 104.0435984  72.7705525  65.9050905 104.7020788  72.3883578
  66.2188169 103.2213328  72.3592943  65.2677114 106.2036074  71.8261874
  64.3802969 106.4885725  71.6082068  65.6831103 106.0429838  70.9789150
  59.2849042 102.4103500  68.9150011  59.2727712 103.3545340  69.0718282
  60.1772464 102.2273646  68.6209472  63.1001162  99.0046277  73.1695948
  62.3333558  98.4504764  73.3152630  63.5111867  99.0768146  74.0310100
   9.9128774  11.9543546  64.7908837  10.5507184  11.8350293  64.0872177
   9.7949617  12.9024390  64.8496789   6.7218481  11.9070974  64.7270362
   6.3836992  11.7912039  63.8390897   7.5908249  11.5062139  64.7071368
   7.2038264  13.0605826  70.6856567   7.1926904  12.6658624  69.8137071
   7.3658903  12.3271898  71.2790339   8.1604855  17.4277418  56.0281718
   7.5092835  18.0131498  55.6415731   8.9549218  17.9583613  56.0876755
   2.0860482  14.5166555  56.4268852   2.8591358  13.9695542  56.2881728
   2.4385881  15.3810804  56.6383313   3.9245525  15.8442937  69.6335751
   3.6335391  16.7488568  69.5182417   4.5602509  15.8859465  70.3479821
   4.8501732  13.2219786  66.2237111   5.4465304  12.9975808  65.5094074
   4.9076703  12.4804531  66.8262559   9.4670043   9.6795000  61.8662045
  10.2533132   9.2614423  61.5152462   9.7308747  10.5841092  62.0343693
   9.6380120  15.1167850  56.5650702   9.0025953  15.1902476  57.2771606
   9.3077526  15.7061449  55.8869781  14.8678470   9.6170233  62.7695024
  15.6003642   9.0469450  63.0032853  14.1117826   9.2291833  63.2101529
   6.4854590  12.0397474  59.9658366   6.1212797  11.5128095  60.6771287
   7.3421705  11.6495943  59.7924851   8.8835410  15.5304353  66.6285545
   8.5836133  16.4329392  66.5201352   8.5386469  15.2636536  67.4806698
  12.2832554   8.0486893  64.3082982  11.3749431   7.9802302  64.0141743
  12.2320149   8.5258838  65.1364808   3.8656190  22.2948673  59.5956513
   3.7880219  23.2456498  59.6744993   3.2617833  21.9494546  60.2531439
  14.1494200   6.2503332  66.0860856  13.5068580   6.5435865  65.4400651
  13.6449128   6.1356252  66.8914053  11.8034364   9.9966505  56.7746715
  12.7152220  10.2293891  56.5994413  11.2944011  10.5803549  56.2121794
  10.0875131  14.4191133  70.4108008  10.4958487  13.9773543  69.6662640
   9.3652393  13.8443760  70.6642201  10.4103946  14.9792323  64.1660297
   9.7812808  15.1438037  63.4636365  10.0229608  15.3933933  64.9371261
  14.2893178  15.9146761  61.5204661  13.6044216  16.2945662  60.9701694
  14.3737027  16.5242088  62.2536608  11.5444109  13.5606720  68.1200004
  11.7561005  14.2038480  67.4434385  11.4973858  12.7269037  67.6521934
   5.9631908  14.7166731  61.4310382   6.4270253  14.9954434  60.6415004
   5.6988706  13.8150176  61.2483473   2.8555989  14.2638213  64.3690145
   3.4257346  14.6925481  63.7307630   3.4464101  13.9820798  65.0674331
  12.6589937  16.4378675  66.2922361  13.4807381  16.0358863  66.0105043
  12.6552340  16.3346910  67.2438477   6.4246541  15.9862719  68.4483072
   6.4890973  16.4483126  69.2841244   5.7157465  15.3560084  68.5765382
  20.7495930  12.7817424  62.6407333  19.9959639  12.2124822  62.4851337
  20.8843472  12.7480088  63.5877968   6.1394558  17.6530826  58.3162052
   6.0040233  18.4982362  58.7446900   6.6804371  17.8550104  57.5527986
   1.4018841  18.2872021  60.9712731   1.5785469  19.2089985  60.7833714
   2.1975674  17.9730440  61.4007110   7.7663035  18.2754393  72.4462394
   7.3226889  17.4890771  72.1283299   8.4280248  18.4633543  71.7806285
   2.5250156  19.8050194  66.9723073   3.0757581  19.6767258  66.2000067
   1.6861632  20.1045083  66.6217966   9.8644273  18.5557193  70.4743796
   9.8462748  19.3766074  69.9824065  10.7864193  18.4311268  70.6993937
   6.3217327  16.0701322  71.3167304   6.8545664  15.3089610  71.0866612
   5.7931408  15.7774974  72.0591458   9.4537305  11.1669999  55.3533381
   8.9383928  11.9374604  55.5921768   9.1814613  10.4935135  55.9766442
  14.4271579  13.9202354  57.2886554  13.6501022  13.5813513  56.8441716
  15.1063060  13.9254977  56.6141519   9.2423608   9.0397091  57.1793162
   8.9373743   9.3543241  58.0303305  10.1954050   9.1178511  57.2220495
   7.6870040  15.1987315  58.8286116   7.1591401  14.4640074  58.5159353
   7.1857542  15.9761991  58.5826084  12.6662886  13.3936335  63.9453162
  12.0086560  14.0835597  64.0333291  13.4703285  13.7832767  64.2887149
  11.4768345  11.7480708  61.9957104  11.9900226  12.3810700  62.4978814
  12.1269568  11.1481903  61.6300464   5.8322640  13.0167525  51.8321089
   4.9249702  12.7856778  52.0312238   6.3293672  12.2205144  52.0195071
   8.7390719  21.7265032  54.7517775   8.0652418  22.0296729  55.3602733
   9.1256541  22.5294112  54.4023232   8.7384223  10.6221579  59.3718125
   9.4856042  11.1342976  59.0625247   9.0075813  10.3005632  60.2322518
   7.0110873  13.1180120  56.3545079   6.1022093  12.8339153  56.4517549
   7.0405957  13.5379198  55.4948386  12.2430141  16.7286709  60.1236247
  11.7892468  15.8877619  60.1801437  11.6124107  17.3648108  60.4611027
  10.6863080  18.5663206  61.0586065  10.9786054  19.1268263  60.3398430
  11.1961701  18.8591767  61.8139224   6.7086961  14.6588863  53.6933158
   6.2706391  13.9424722  53.2338795   7.4497402  14.8864978  53.1318249
   5.6496705  19.3443557  62.1479518   5.6072884  19.5704403  61.2188050
   6.5659404  19.1106932  62.2965319   9.0962339   9.8127625  69.0460147
   9.4511727  10.0399098  69.9054613   9.7434470  10.1446001  68.4237403
  14.8260076  12.9346060  59.7509476  14.6877975  13.1247656  58.8230665
  14.4696295  13.6965443  60.2077527  14.8529456  15.0022587  64.7620748
  15.2865962  14.9097877  65.6103802  15.5661036  14.9780088  64.1240764
   3.7662506  16.2206586  61.9441481   4.5603104  15.7256906  61.7424056
   3.0554198  15.6924449  61.5809186   8.5857350  18.6024682  66.2953848
   8.6394373  19.1715618  67.0631564   7.7172132  18.7726567  65.9307886
  15.7145005  15.0446288  67.2953633  15.9080895  15.9492099  67.5412908
  15.6145623  14.5853707  68.1292218  10.7760114  15.1953031  72.8694514
  10.6245620  14.9663583  71.9524597  10.7664793  16.1523632  72.8825859
   7.5445450  12.7684944  67.8540780   8.4737510  12.9196103  67.6809748
   7.1236480  12.8568964  66.9989427   6.3433782  16.7935608  65.6239318
   6.2044868  16.4254392  66.4965256   5.5548378  17.3083247  65.4523276
   6.9381934  21.8944705  56.9664854   7.1133690  21.4232748  57.7810477
   6.2514722  22.5210471  57.1946115   7.8938997  16.1717211  63.0128156
   7.5588830  16.1317981  63.9085806   7.3942943  15.5061927  62.5398566
  10.8298189  13.5173245  53.2865215  10.2127359  12.7920073  53.1898268
  10.3614677  14.2782605  52.9432290  12.4852320  18.2272153  70.9470996
  12.4264867  17.5431374  70.2801579  12.8871839  18.9691143  70.4951622
   1.5043019  25.0434067  63.7404715   1.7439617  25.6752591  64.4183733
   0.6612216  24.6922107  64.0270074  12.4869728  16.1911737  69.1784975
  11.5996506  15.8537659  69.3011374  13.0568279  15.4594769  69.4153741
   6.0170881  20.8513190  66.1446219   5.9441053  21.6568161  66.6565523
   5.5748274  21.0505156  65.3194240   5.8060661  20.0884960  59.6549040
   5.0228183  20.6306640  59.7487265   6.5053406  20.6058939  60.0543281
  16.9687068  11.6019955  63.9401537  16.9576944  12.4844670  63.5695470
  16.1004448  11.2491506  63.7456074   8.4769565  20.7500024  68.3004377
   9.1897537  21.3847489  68.2280279   7.9859593  20.8463890  67.4844379
  10.1987092  14.6551276  59.8721669   9.2643370  14.7752739  59.7026373
  10.3763760  13.7523743  59.6081679  13.5859643  10.4968596  60.4071703
  14.0520095  11.3296587  60.3332006  14.0367143  10.0313577  61.1116962
   3.5281478  18.4994467  69.1209948   4.2290938  19.1330950  69.2739342
   3.0576593  18.8409199  68.3605587  11.6535874  16.8412417  57.4057855
  11.9295718  16.7269012  58.3151729  10.7840373  16.4429902  57.3670028
  11.3282764  11.0539075  66.9462498  10.6754214  11.3014982  66.2914951
  11.7063144  10.2403213  66.6124976   8.2889938  21.0898768  61.0490669
   8.4712333  20.2720424  61.5118421   9.1122924  21.3066460  60.6115559
   8.6232104  20.0166953  58.3105717   9.1519870  19.5059408  57.6975879
   8.8860323  19.7009483  59.1751250   1.9787851  21.0682070  61.0703493
   1.3098227  21.5528197  60.5867533   1.8400721  21.3151290  61.9846872
   6.1193120  23.1025813  67.6686151   6.6711428  23.2657435  68.4335237
   6.4599313  23.6930251  66.9966176  10.9703994  17.9287071  73.5234806
  11.5143898  18.5417029  73.0289761  10.3890839  18.4866649  74.0401819
   9.2561507  21.0507789  64.6549834   9.1312647  20.2497529  64.1460779
   9.9140598  21.5453982  64.1663804  11.3196416  18.8516809  66.2829384
  10.3726751  18.7322160  66.2107710  11.6679189  17.9639307  66.3655645
   8.3242849  18.6469525  62.4833736   8.1767811  17.7186232  62.6641306
   9.1496343  18.6689616  61.9990811  11.9276971  19.4698084  63.5698609
  12.8523518  19.2640945  63.4323060  11.7592274  19.2214485  64.4787950
  11.7172287  19.9883751  58.9260700  11.8909165  19.4230174  58.1734553
  12.2101178  20.7884646  58.7440190  17.5711678  12.7520174  60.5451000
  18.0142824  12.0027499  60.1470123  16.6938189  12.7430311  60.1624732
  12.7047460  19.3050516  56.0257598  13.3998364  19.9257208  56.2444913
  13.0470610  18.4545867  56.3009976  14.6038883  16.7550221  57.5544929
  15.1290207  17.0937494  56.8294249  14.5161235  15.8197236  57.3708064
   6.2658931  20.6684295  69.6834806   6.5746058  20.4233442  70.5557505
   7.0634413  20.8730933  69.1953676   6.2879543  22.8222204  61.9140182
   5.8484534  22.3298583  62.6073039   7.0387660  22.2795172  61.6732258
   3.7353416  18.3660214  63.9862484   3.1133425  17.7030919  63.6864712
   4.4058282  18.3921345  63.3036132  14.2932789  17.3883125  72.8596127
  13.5028332  17.3707264  72.3200627  14.0566143  17.9271418  73.6145164
  14.4130664  14.2375591  70.1728856  14.4628669  14.0725599  71.1144378
  14.3044587  13.3702850  69.7826736   3.2966922  16.9164137  57.4620945
   3.4455043  17.5999601  56.8087617   4.1033366  16.8969227  57.9770400
  15.9148861  16.6572533  70.4170877  15.6233669  17.0202513  71.2534338
  15.3020992  15.9439541  70.2384209  17.1144543  14.2225412  62.9373447
  17.9491434  14.6615217  63.1011008  17.2503672  13.7464066  62.1181693
  14.1636049  11.7805147  68.8850935  14.6390170  11.9732794  68.0769787
  13.2401614  11.8364333  68.6394319   6.7962328  19.4112267  54.9332692
   6.2236295  20.0302454  54.4803164   7.3695122  19.9611629  55.4672614
  12.8637718   8.6570907  67.1179241  13.8155141   8.7569005  67.1391465
  12.6941168   7.8649176  67.6277325  10.0159588  19.6949417  56.0641274
  10.9490261  19.6294979  56.2674150   9.9282801  20.5305684  55.6055807
  12.6447604  19.0115288  53.0245222  12.5661236  18.6775151  53.9180980
  13.4657271  19.5037056  53.0236694  15.3425796  11.8777027  66.2321540
  15.3102116  10.9393028  66.4181224  15.9526419  11.9561064  65.4987365
  15.4920284   8.6688071  66.2779824  14.9759333   7.8846527  66.0909752
  16.3760233   8.3406787  66.4426343  21.1602345  12.9393034  65.3727577
  21.8905734  12.6778322  65.9335281  20.5509291  12.2021756  65.4129645
  19.2417643  11.0800896  65.9702028  18.5150806  10.9456861  65.3618520
  18.8264929  11.3877725  66.7758746   0.7242364  15.6026740  66.6208427
   1.6785618  15.5710682  66.5538359   0.5254888  15.1417364  67.4358653
  14.4222879   6.5885129  62.2661519  15.1983269   7.0781582  62.5386136
  13.6971013   7.0143184  62.7233389  16.8595438   7.3012749  63.3235460
  17.4539928   7.0608485  62.6128768  16.9322021   6.5819879  63.9508996
  10.2151556  16.3283283  52.6455200  10.9187406  16.5333286  53.2612856
   9.4914205  16.8960045  52.9104284  11.0449367  12.0793144  58.7657470
  10.9884568  12.5361696  57.9265103  11.5977709  11.3183829  58.5880313
  14.8554172   7.8682876  59.5907590  14.5991107   7.4679512  60.4215798
  14.2307040   8.5826670  59.4657729   2.2361719  22.0415677  63.8497068
   2.1194103  22.9861109  63.7475758   1.4154165  21.7389238  64.2382867
  12.1238254  16.7665812  54.6953660  12.9583858  16.3347011  54.5131135
  11.9622597  16.5947826  55.6230555  11.7784146  13.2697926  56.0610000
  11.7232950  13.1042197  55.1198444  11.1530201  13.9773959  56.2172189
   3.2616233  22.6943939  67.0652996   4.1643480  22.7267549  67.3819491
   3.0353603  21.7644389  67.0799332   5.0169835  21.4474925  63.7263075
   4.0665466  21.4476787  63.6127447   5.3202321  20.7007660  63.2099109
  20.7522529  27.2835463  64.7908837  21.3900939  27.1642211  64.0872177
  20.6343372  28.2316307  64.8496789  17.5612235  27.2362892  64.7270362
  17.2230747  27.1203956  63.8390897  18.4302003  26.8354057  64.7071368
  13.4199051  29.0898368  60.7167253  12.8563916  28.9988305  59.9483540
  13.3051446  28.2698272  61.1969745  18.0432018  28.3897743  70.6856567
  18.0320659  27.9950542  69.8137071  18.2052657  27.6563816  71.2790339
  10.9663483  30.5849560  63.5551473  11.7584775  30.2440384  63.1397772
  11.2060133  30.6944535  64.4753626  18.9998609  32.7569336  56.0281718
  18.3486589  33.3423416  55.6415731  19.7942972  33.2875531  56.0876755
  12.9254237  29.8458473  56.4268852  13.6985113  29.2987460  56.2881728
  13.2779635  30.7102722  56.6383313  14.7639279  31.1734855  69.6335751
  14.4729145  32.0780486  69.5182417  15.3996263  31.2151383  70.3479821
  15.6895486  28.5511704  66.2237111  16.2859058  28.3267726  65.5094074
  15.7470458  27.8096449  66.8262559  15.2620514  26.0051139  54.0587302
  15.5146035  25.4832660  53.2970765  14.3245073  25.8417284  54.1613985
  20.3063797  25.0086917  61.8662045  21.0926886  24.5906340  61.5152462
  20.5702502  25.9133010  62.0343693  20.4773875  30.4459768  56.5650702
  19.8419708  30.5194394  57.2771606  20.1471281  31.0353366  55.8869781
  25.7072224  24.9462151  62.7695024  26.4397396  24.3761367  63.0032853
  24.9511580  24.5583751  63.2101529  14.9816803  27.9079245  56.2611677
  14.8653061  27.2324148  56.9292761  15.0919063  27.4211619  55.4443830
  17.3248344  27.3689392  59.9658366  16.9606551  26.8420013  60.6771287
  18.1815460  26.9787861  59.7924851  23.2297645  18.6583725  67.2289632
  22.8980969  19.5279136  67.0050847  22.6343258  18.3420009  67.9083663
  16.9653831  22.3979292  54.9619714  17.1328233  23.2659528  55.3290186
  16.7751000  22.5606573  54.0381004  19.7229164  30.8596271  66.6285545
  19.4229887  31.7621309  66.5201352  19.3780224  30.5928454  67.4806698
  13.1741646  27.3110067  62.6622249  12.2492142  27.1786282  62.8699941
  13.4226059  28.0904287  63.1592192  23.1226308  23.3778811  64.3082982
  22.2143185  23.3094219  64.0141743  23.0713904  23.8550756  65.1364808
  16.9443052  24.8536949  55.9466381  16.8242677  25.2994000  56.7851862
  16.2495640  25.2022267  55.3879919  10.5350457  26.9543341  63.4966038
  10.6642838  27.2077820  64.4105450   9.8547908  27.5471049  63.1770693
  14.7049944  37.6240591  59.5956513  14.6273974  38.5748416  59.6744993
  14.1011588  37.2786463  60.2531439  17.1967174  24.7968456  72.2517879
  16.4200508  25.3562377  72.2420744  17.8357737  25.2825239  72.7732750
  24.9887954  21.5795249  66.0860856  24.3462335  21.8727782  65.4400651
  24.4842883  21.4648170  66.8914053  22.6428118  25.3258422  56.7746715
  23.5545974  25.5585809  56.5994413  22.1337765  25.9095467  56.2121794
  15.4513546  27.6053910  71.8135846  16.1928230  28.1438954  71.5370670
  14.7450532  28.2320199  71.9707398  20.9268886  29.7483050  70.4108008
  21.3352242  29.3065461  69.6662640  20.2046147  29.1735678  70.6642201
  17.2799956  24.6855657  67.7841565  18.1261151  25.1095071  67.9276214
  17.2198593  24.0289281  68.4780128  21.2497700  30.3084241  64.1660297
  20.6206563  30.4729955  63.4636365  20.8623362  30.7225850  64.9371261
  25.1286932  31.2438679  61.5204661  24.4437970  31.6237580  60.9701694
  25.2130782  31.8534005  62.2536608  20.4299401  22.3460025  69.4422739
  20.1860333  23.1002086  68.9057014  20.7059332  22.7245373  70.2769986
  22.3837864  28.8898638  68.1200004  22.5954759  29.5330398  67.4434385
  22.3367612  28.0560954  67.6521934  19.9864093  21.5016458  65.0236576
  19.1248572  21.7997712  65.3153314  20.0126528  21.7186857  64.0917609
  16.8025662  30.0458649  61.4310382  17.2664008  30.3246352  60.6415004
  16.5382460  29.1442094  61.2483473  13.6949743  29.5930130  64.3690145
  14.2651100  30.0217399  63.7307630  14.2857855  29.3112715  65.0674331
  15.7394548  26.1681801  58.2399947  16.4418592  26.6202845  58.7073873
  15.4075177  25.5265620  58.8679840  14.1874910  24.7593558  72.6151156
  13.5573570  25.4409839  72.8486553  14.0810998  24.6476640  71.6704295
   9.4819882  24.4265354  63.5417081   8.6918936  24.6822883  63.0657191
   9.9731130  25.2413692  63.6469121  23.4983692  31.7670593  66.2922361
  24.3201136  31.3650780  66.0105043  23.4946095  31.6638827  67.2438477
  11.4334628  24.7909933  60.5000557  10.6365791  24.9028627  61.0184053
  11.2060220  25.1296585  59.6341448  17.2640295  31.3154636  68.4483072
  17.3284728  31.7775044  69.2841244  16.5551219  30.6852001  68.5765382
   7.7657585  24.6795844  65.9732071   8.0165624  25.5642854  66.2389647
   8.3017134  24.5000446  65.2007163  31.5889685  28.1109342  62.6407333
  30.8353393  27.5416740  62.4851337  31.7237226  28.0772006  63.5877968
  16.9788313  32.9822744  58.3162052  16.8433988  33.8274280  58.7446900
  17.5198125  33.1842022  57.5527986  13.4655653  19.0614324  74.9776407
  13.0722598  18.5080522  75.6524052  14.2821793  19.3724902  75.3682925
  10.4317710  30.4998182  58.8889977  10.9442231  31.2941432  59.0395542
  11.0840423  29.8024472  58.8223579  12.2412595  33.6163938  60.9712731
  12.4179223  34.5381903  60.7833714  13.0369429  33.3022357  61.4007110
  16.3823614  20.4772203  72.5696664  17.1233327  21.0779356  72.4901127
  16.6141536  19.7349841  72.0114707  11.5264952  25.6628570  70.8474894
  11.4118467  24.7613827  71.1481993  10.6709469  25.9092267  70.4959710
  18.6056789  33.6046310  72.4462394  18.1620644  32.8182689  72.1283299
  19.2674003  33.7925461  71.7806285  13.3643910  35.1342112  66.9723073
  13.9151336  35.0059175  66.2000067  12.5255386  35.4337001  66.6217966
  20.7038027  33.8849110  70.4743796  20.6856503  34.7057991  69.9824065
  21.6257947  33.7603186  70.6993937  17.1611082  31.3993240  71.3167304
  17.6939418  30.6381528  71.0866612  16.6325163  31.1066892  72.0591458
  20.3280777  16.5053306  66.8460946  19.9845046  17.3954947  66.7700056
  20.6959739  16.3154963  65.9830531   8.3966627  28.8286836  59.6649548
   9.2341849  29.2383845  59.4483256   8.5744895  27.8886278  59.6349742
  20.2931059  26.4961917  55.3533381  19.7777683  27.2666522  55.5921768
  20.0208368  25.8227053  55.9766442  17.8778170  21.3411618  60.4118619
  17.0219767  20.9518468  60.2324258  18.2905122  21.4203579  59.5518405
  19.4077317  18.8757961  64.8110179  18.9042112  18.8388096  63.9977984
  19.7007924  19.7850704  64.8706836  15.6520203  18.9596691  63.8176361
  16.5173200  18.7639499  63.4582250  15.7197712  18.7307042  64.7445717
  25.2665333  29.2494272  57.2886554  24.4894776  28.9105431  56.8441716
  25.9456814  29.2546895  56.6141519  20.0817362  24.3689009  57.1793162
  19.7767498  24.6835158  58.0303305  21.0347805  24.4470429  57.2220495
  18.5263794  30.5279232  58.8286116  17.9985156  29.7931992  58.5159353
  18.0251297  31.3053909  58.5826084  23.5056640  28.7228253  63.9453162
  22.8480315  29.4127514  64.0333291  24.3097039  29.1124685  64.2887149
  13.2582522  21.1898899  61.1892728  13.8326274  20.9674080  60.4565920
  13.8453504  21.2587593  61.9421329  22.3162099  27.0772626  61.9957104
  22.8293981  27.7102617  62.4978814  22.9663323  26.4773821  61.6300464
  13.5852109  23.2203360  55.2088613  12.7489421  23.5578046  55.5297888
  13.4456879  23.0852339  54.2715750  15.5605190  18.0640148  59.9167797
  14.9069602  17.7489165  59.2924412  15.5185664  17.4415888  60.6427620
  16.6716394  28.3459443  51.8321089  15.7643456  28.1148696  52.0312238
  17.1687426  27.5497062  52.0195071  19.5784473  37.0556950  54.7517775
  18.9046172  37.3588647  55.3602733  19.9650295  37.8586030  54.4023232
  18.7942930  24.5522081  64.2415445  17.8765491  24.7737028  64.0837133
  19.2103074  24.6268392  63.3827152  19.5777978  25.9513497  59.3718125
  20.3249797  26.4634894  59.0625247  19.8469567  25.6297549  60.2322518
  17.8504628  28.4472037  56.3545079  16.9415847  28.1631070  56.4517549
  17.8799712  28.8671116  55.4948386  23.0823895  32.0578627  60.1236247
  22.6286222  31.2169537  60.1801437  22.4517862  32.6940025  60.4611027
  22.0256815  22.9870613  61.3536914  21.2879572  22.4747999  61.6847157
  22.2783588  22.5470995  60.5420191  21.5256835  33.8955124  61.0586065
  21.8179809  34.4560181  60.3398430  22.0355455  34.1883685  61.8139224
  22.1268442  15.7646865  61.9478683  22.4327319  14.9044228  61.6604598
  22.8521047  16.3564485  61.7477677   8.4192798  26.1677552  60.3360281
   8.2217198  25.5746912  59.6111348   7.8639462  25.8629762  61.0536220
  16.3989522  26.0600658  62.4554874  16.4538132  25.1074494  62.3797351
  15.5880724  26.2160097  62.9396173  17.5480716  29.9880781  53.6933158
  17.1100146  29.2716640  53.2338795  18.2891157  30.2156896  53.1318249
  14.3381882  24.6777718  60.2145253  13.5249747  24.9771888  60.6210445
  14.8340876  24.2833407  60.9319736  16.4890460  34.6735475  62.1479518
  16.4466639  34.8996321  61.2188050  17.4053159  34.4398849  62.2965319
  19.9356094  25.1419542  69.0460147  20.2905481  25.3691015  69.9054613
  20.5828225  25.4737919  68.4237403  25.6653830  28.2637978  59.7509476
  25.5271729  28.4539574  58.8230665  25.3090049  29.0257361  60.2077527
  13.8295957  22.2496073  65.8306488  14.4695336  22.1084832  65.1329452
  12.9973487  21.9630587  65.4545090  25.6923210  30.3314505  64.7620748
  26.1259717  30.2389794  65.6103802  26.4054791  30.3072006  64.1240764
  14.6056260  31.5498504  61.9441481  15.3996859  31.0548824  61.7424056
  13.8947953  31.0216367  61.5809186  19.4251105  33.9316599  66.2953848
  19.4788127  34.5007536  67.0631564  18.5565886  34.1018484  65.9307886
  10.9139024  25.6941585  58.0201233   9.9836612  25.6326041  58.2371196
  11.0096496  25.1717538  57.2237875  10.8324573  22.2196398  60.6079475
  11.0931390  23.1341732  60.4988636  11.6541745  21.7520841  60.7576088
  12.3049498  23.6334155  67.7778300  12.9772552  23.4251518  67.1290949
  11.4779285  23.4356241  67.3383532  26.5538760  30.3738206  67.2953633
  26.7474650  31.2784016  67.5412908  26.4539378  29.9145625  68.1292218
  18.2075070  20.2596096  69.7943961  17.5602985  20.9586046  69.7008437
  18.9776086  20.6932240  70.1620209  21.6153868  30.5244949  72.8694514
  21.4639375  30.2955500  71.9524597  21.6058548  31.4815550  72.8825859
  18.3839205  28.0976861  67.8540780  19.3131265  28.2488021  67.6809748
  17.9630235  28.1860882  66.9989427  17.1827536  32.1227526  65.6239318
  17.0438622  31.7546310  66.4965256  16.3942133  32.6375165  65.4523276
  17.7775688  37.2236622  56.9664854  17.9527444  36.7524665  57.7810477
  17.0908476  37.8502388  57.1946115  18.7332752  31.5009128  63.0128156
  18.3982584  31.4609898  63.9085806  18.2336697  30.8353844  62.5398566
  12.7076996  26.9076758  68.5380737  12.5696794  26.1756997  69.1392276
  13.6181919  26.8185659  68.2564925  21.6691943  28.8465163  53.2865215
  21.0521114  28.1211991  53.1898268  21.2008432  29.6074523  52.9432290
  15.3359296  26.6196718  68.0264416  16.0458915  25.9789910  67.9851035
  15.2928604  26.8709613  68.9490597  23.3246075  33.5564071  70.9470996
  23.2658621  32.8723291  70.2801579  23.7265593  34.2983061  70.4951622
  14.0488230  23.6061936  69.8460056  13.5125587  23.1552674  70.4981652
  13.4604939  23.7407845  69.1030520  12.3436774  40.3725985  63.7404715
  12.5833372  41.0044509  64.4183733  11.5005970  40.0214025  64.0270074
  13.4590489  23.0650587  52.4086520  12.5819956  22.9439388  52.0448766
  13.9348242  22.2736665  52.1565408  23.3263482  31.5203655  69.1784975
  22.4390261  31.1829577  69.3011374  23.8962033  30.7886686  69.4153741
   4.9792629  27.8527747  62.5028027   5.6663669  27.5389477  61.9149042
   4.8240758  28.7569111  62.2295278   9.7827351  22.7417943  66.9313050
   9.6985540  22.1343613  66.1963460   8.9610058  23.2326962  66.9322547
  16.8564636  36.1805107  66.1446219  16.7834807  36.9860079  66.6565523
  16.4142029  36.3797073  65.3194240  16.6454415  35.4176877  59.6549040
  15.8621937  35.9598558  59.7487265  17.3447160  35.9350857  60.0543281
  19.9551065  21.2271507  62.2983245  20.4519765  20.4741469  61.9784316
  19.1838047  21.2635824  61.7326455  27.8080823  26.9311872  63.9401537
  27.7970699  27.8136588  63.5695470  26.9398202  26.5783423  63.7456074
  19.3163319  36.0791941  68.3004377  20.0291291  36.7139406  68.2280279
  18.8253348  36.1755807  67.4844379  21.0380846  29.9843194  59.8721669
  20.1037125  30.1044657  59.7026373  21.2157514  29.0815661  59.6081679
  16.5386034  23.3688890  62.0254930  16.1683822  22.8159930  62.7135836
  17.0345127  22.7647023  61.4729930  24.4253397  25.8260513  60.4071703
  24.8913850  26.6588505  60.3332006  24.8760898  25.3605495  61.1116962
  14.3675233  33.8286385  69.1209948  15.0684692  34.4622868  69.2739342
  13.8970348  34.1701116  68.3605587  22.4929628  32.1704335  57.4057855
  22.7689472  32.0560929  58.3151729  21.6234127  31.7721820  57.3670028
  22.3970060  18.1941100  64.4462604  21.4833140  18.4245327  64.6144811
  22.8263162  18.2779544  65.2976637  22.1676519  26.3830992  66.9462498
  21.5147969  26.6306900  66.2914951  22.5456899  25.5695131  66.6124976
  19.1283693  36.4190686  61.0490669  19.3106087  35.6012341  61.5118421
  19.9516679  36.6358378  60.6115559  19.4625858  35.3458871  58.3105717
  19.9913624  34.8351325  57.6975879  19.7254078  35.0301401  59.1751250
  18.2164092  27.1250803  73.4328535  17.5404729  27.0244933  74.1030911
  19.0391726  26.9690017  73.8964533   9.9642951  33.3622740  66.0541051
  10.5496388  32.6166428  66.1868955   9.7667789  33.6726697  66.9377715
  12.8181606  36.3973987  61.0703493  12.1491981  36.8820115  60.5867533
  12.6794476  36.6443208  61.9846872   4.5560605  25.9328340  64.7745494
   4.5944705  25.3991931  65.5682612   4.0500898  25.4063546  64.1556471
  16.9586875  38.4317731  67.6686151  17.5105183  38.5949352  68.4335237
  17.2993068  39.0222169  66.9966176  11.9351368  20.7792881  68.2708036
  11.9992694  21.6407712  67.8585434  11.8718488  20.1666882  67.5380395
  11.4103640  22.8516013  71.9181070  12.0375679  22.4693091  72.5318595
  10.5531559  22.6330215  72.2836763  21.8097749  33.2578988  73.5234806
  22.3537653  33.8708947  73.0289761  21.2284594  33.8158567  74.0401819
   8.1869183  24.6592442  57.8499425   8.4822624  23.7503121  57.7966479
   7.2857219  24.6380182  57.5280428  20.0955262  36.3799706  64.6549834
  19.9706401  35.5789446  64.1460779  20.7534353  36.8745900  64.1663804
  11.7163430  22.7348439  63.8326974  10.9950016  23.3484407  63.6934447
  12.5056686  23.2706204  63.7543620  22.1590170  34.1808726  66.2829384
  21.2120506  34.0614078  66.2107710  22.5072943  33.2931225  66.3655645
  14.5189744  20.0702865  70.1067626  15.0424145  20.3165162  70.8693935
  14.3002077  20.9022900  69.6870763   9.9157025  22.3406540  57.9738750
   9.5869731  21.4603919  57.7913856  10.2696395  22.2854209  58.8615140
  19.1636603  33.9761443  62.4833736  19.0161566  33.0478150  62.6641306
  19.9890097  33.9981533  61.9990811  13.0298848  22.6279510  58.3414228
  13.3694920  23.1565431  57.6192836  13.4770968  22.9659916  59.1172795
  22.7670725  34.7990001  63.5698609  23.6917273  34.5932863  63.4323060
  22.5986029  34.5506403  64.4787950  15.7242289  21.0116561  67.7917296
  15.3839109  20.2124374  68.1937976  15.0181295  21.3118271  67.2194129
  16.3758760  18.0965873  66.2444619  17.1984830  17.6226351  66.1223509
  16.6196824  18.8756357  66.7443305  15.0166995  21.1254131  56.5407521
  15.7375357  21.5035384  56.0371238  14.3932299  21.8443008  56.6442499
  19.1598118  21.8299280  57.4765853  19.3761732  22.7123918  57.1754681
  18.6792185  21.4385494  56.7471495  13.8997339  24.7884994  64.0536598
  13.7541920  25.1025297  64.9460879  13.4222543  25.4069894  63.5007496
  15.7593722  21.7787542  64.1017487  15.7455291  20.8828635  63.7649785
  16.4766150  21.7858205  64.7355773  17.6119853  22.2124882  66.1470615
  17.3537631  23.1341952  66.1454945  17.0804893  21.8155316  66.8371079
  22.5566042  35.3175669  58.9260700  22.7302919  34.7522091  58.1734553
  23.0494933  36.1176564  58.7440190   8.3743001  27.3290338  66.9924259
   7.8296469  28.1050146  67.1244533   9.2522351  27.6761142  66.8343380
  15.1630618  20.6601922  59.3705057  15.2846529  19.7318568  59.5695945
  14.8732660  20.6740608  58.4583373  18.0321808  18.3456832  62.5071777
  18.0543505  18.4096165  61.5523757  18.4489867  17.5061341  62.7012283
  28.4105433  28.0812092  60.5451000  28.8536579  27.3319417  60.1470123
  27.5331943  28.0722228  60.1624732  23.5441214  34.6342433  56.0257598
  24.2392119  35.2549126  56.2444913  23.8864364  33.7837785  56.3009976
   9.1609023  26.4560234  69.8854416   8.4190759  26.6042870  70.4719046
   8.8401767  26.7168500  69.0221165  25.4432637  32.0842139  57.5544929
  25.9683961  32.4229412  56.8294249  25.3554990  31.1489154  57.3708064
  17.1052686  35.9976212  69.6834806  17.4139812  35.7525359  70.5557505
  17.9028168  36.2022851  69.1953676  17.1273298  38.1514122  61.9140182
  16.6878288  37.6590501  62.6073039  17.8781415  37.6087090  61.6732258
   9.6065637  34.3425663  61.9164810  10.4323657  34.0429435  61.5363454
   9.2559689  33.5733285  62.3654599  14.5747170  33.6952131  63.9862484
  13.9527179  33.0322836  63.6864712  15.2452037  33.7213263  63.3036132
   7.8074242  32.2611989  62.8753744   6.9706150  31.8334164  62.6937745
   7.7797887  32.4544433  63.8124535  14.6471698  22.1733919  73.5794990
  14.6959853  23.0496042  73.1972760  15.1894212  21.6311312  73.0066633
  25.1326543  32.7175042  72.8596127  24.3422087  32.6999181  72.3200627
  24.8959898  33.2563336  73.6145164  25.2524418  29.5667509  70.1728856
  25.3022423  29.4017516  71.1144378  25.1438342  28.6994768  69.7826736
  14.1360677  32.2456055  57.4620945  14.2848797  32.9291519  56.8087617
  14.9427120  32.2261145  57.9770400  22.5428181  25.5498437  71.4888162
  23.4438043  25.4104902  71.1972160  22.6176155  25.7152892  72.4286340
  16.8770986  22.9265292  70.3341349  16.0074295  23.2198858  70.0623937
  17.1130466  23.5105737  71.0548612  26.7542615  31.9864450  70.4170877
  26.4627423  32.3494431  71.2534338  26.1414746  31.2731459  70.2384209
  27.9538297  29.5517330  62.9373447  28.7885189  29.9907134  63.1011008
  28.0897426  29.0755983  62.1181693  25.0029803  27.1097065  68.8850935
  25.4783925  27.3024711  68.0769787  24.0795369  27.1656251  68.6394319
  11.8913310  28.2721232  58.4682013  11.6459352  27.3683562  58.6662224
  12.0609224  28.2738383  57.5261491  19.5810020  19.1444909  67.8506769
  20.0991964  19.8805935  67.5253258  19.2265153  19.4508902  68.6853528
  11.1608957  24.0049590  55.9668175  10.4678202  24.0793945  55.3108211
  10.9160709  23.2409933  56.4889692  19.8322614  15.5645191  63.3707666
  20.1124368  14.8968380  63.9968092  20.6173221  15.7574287  62.8582330
  17.6356082  34.7404185  54.9332692  17.0630050  35.3594372  54.4803164
  18.2088876  35.2903547  55.4672614  23.7031472  23.9862825  67.1179241
  24.6548895  24.0860923  67.1391465  23.5334923  23.1941094  67.6277325
  21.7245852  21.0718408  67.3038642  21.1295784  21.3523421  66.6085130
  21.4395549  21.5612309  68.0755383  20.8553342  35.0241335  56.0641274
  21.7884015  34.9586897  56.2674150  20.7676555  35.8597602  55.6055807
  23.4841359  34.3407205  53.0245222  23.4054990  34.0067069  53.9180980
  24.3051026  34.8328973  53.0236694  26.1819550  27.2068945  66.2321540
  26.1495870  26.2684945  66.4181224  26.7920174  27.2852981  65.4987365
  18.0202881  26.0764998  52.2748744  18.9661986  25.9471206  52.3437163
  17.6417126  25.3379660  52.7518173  26.3314039  23.9979988  66.2779824
  25.8153087  23.2138445  66.0909752  27.2153987  23.6698705  66.4426343
  23.9924766  17.7421004  62.2375636  23.7949587  17.4336092  63.1218968
  24.6024471  18.4682643  62.3673566  31.9996100  28.2684952  65.3727577
  32.7299488  28.0070240  65.9335281  31.3903045  27.5313674  65.4129645
  30.0811397  26.4092814  65.9702028  29.3544561  26.2748779  65.3618520
  29.6658684  26.7169643  66.7758746  17.9041574  30.1282744  73.7349401
  18.8244583  30.3061343  73.9289448  17.8691157  29.1838789  73.5829101
  16.2045798  24.0014974  52.2103630  15.2977254  23.7048087  52.2866343
  16.4821779  23.7044792  51.3437916   7.1223739  25.3221338  62.6602676
   6.8026523  24.4686646  62.3677050   6.5757167  25.5369916  63.4160643
  10.9003646  28.0383779  66.3772183  11.1189656  28.9700886  66.3960216
  11.3129420  27.6791753  67.1626986  17.8207864  18.5451864  58.3647871
  17.0108592  18.1998949  58.7403117  18.5092281  18.2359408  58.9535483
  19.7498412  17.6229911  59.9872168  20.3029451  18.0425364  60.6462191
  19.9868499  16.6965659  60.0295124  15.7731511  23.6116984  75.7674932
  15.6728238  24.5611341  75.6987023  15.5553053  23.2835223  74.8951002
  14.9744583  20.8601909  52.3515609  15.8363747  21.1856808  52.6111426
  15.1594927  20.0733405  51.8388675   6.9911999  28.9424249  64.6295798
   6.2975470  28.5278202  64.1165752   7.7384990  28.9844786  64.0329217
  23.1277219  19.7330436  59.4950832  22.5475888  20.3915240  59.1128884
  22.8613152  18.9107780  59.0838249  21.5780786  19.1335494  61.6972152
  22.0780564  19.2452028  60.8886471  22.2216394  18.8296546  62.3372961
  15.6362781  27.0414123  74.5839993  15.1529863  27.8414483  74.7903882
  15.7223720  27.0522068  73.6307437   8.9048741  28.8742503  62.5061813
   8.8819429  28.9730190  61.5543696   9.2149378  29.7207654  62.8278979
  11.5636119  30.9318658  66.6208427  12.5179372  30.9002600  66.5538359
  11.3648643  30.4709282  67.4358653  12.1535501  29.5019774  69.1879225
  12.9728390  29.9963853  69.2114062  12.4272309  28.5851742  69.1596792
  21.9102097  21.8930526  58.5507180  21.0227952  22.1780177  58.3327375
  22.3256086  21.7324290  57.7034457  25.2616633  21.9177047  62.2661519
  26.0377024  22.4073500  62.5386136  24.5364768  22.3435101  62.7233389
  27.6989192  22.6304666  63.3235460  28.2933683  22.3900402  62.6128768
  27.7715776  21.9111797  63.9508996   9.9186348  36.4738277  63.6378625
   9.7840816  35.7138678  63.0716623   9.5018410  37.1979177  63.1707414
  21.0545311  31.6575201  52.6455200  21.7581161  31.8625203  53.2612856
  20.3307959  32.2251963  52.9104284  21.8843121  27.4085062  58.7657470
  21.8278322  27.8653614  57.9265103  22.4371463  26.6475747  58.5880313
  25.6947927  23.1974794  59.5907590  25.4384861  22.7971430  60.4215798
  25.0700795  23.9118588  59.4657729  30.0060265  25.9370867  62.0978881
  29.4459823  26.0064057  62.8710443  29.4003768  25.7611852  61.3778377
  13.0755474  37.3707594  63.8497068  12.9587858  38.3153027  63.7475758
  12.2547920  37.0681156  64.2382867  22.9632008  32.0957730  54.6953660
  23.7977612  31.6638929  54.5131135  22.8016351  31.9239744  55.6230555
  22.6177900  28.5989843  56.0610000  22.5626704  28.4334115  55.1198444
  21.9923956  29.3065876  56.2172189   7.4070415  23.8357908  69.8871422
   8.0529279  23.3256862  70.3758647   7.1987566  24.5726589  70.4614847
  19.9323807  30.9038755  75.3863562  20.8014967  31.0779408  75.0250197
  19.4530559  31.7233172  75.2639292  15.9274026  18.0997952  55.6395318
  15.9152696  19.0439792  55.7963589  16.8197448  17.9168098  55.3454779
  14.1009988  38.0235856  67.0652996  15.0037234  38.0559466  67.3819491
  13.8747358  37.0936307  67.0799332  15.8563590  36.7766843  63.7263075
  14.9059221  36.7768704  63.6127447  16.1596076  36.0299577  63.2099109
  19.7426145  14.6940729  59.8941255  18.9758541  14.1399216  60.0397937
  20.1536850  14.7662598  60.7555406  11.7467906  20.9825525  73.9846436
  12.6099368  20.6262330  74.1949761  11.1733317  20.6439420  74.6721840
  31.5916283  42.6127381  64.7908837  32.2294693  42.4934129  64.0872177
  31.4737126  43.5608225  64.8496789  28.4005990  42.5654809  64.7270362
  28.0624501  42.4495874  63.8390897  29.2695758  42.1645974  64.7071368
  28.8825772  43.7189661  70.6856567  28.8714413  43.3242459  69.8137071
  29.0446412  42.9855734  71.2790339  21.8057237  45.9141477  63.5551473
  22.5978529  45.5732302  63.1397772  22.0453887  46.0236452  64.4753626
  25.6033034  46.5026773  69.6335751  25.3122900  47.4072404  69.5182417
  26.2390018  46.5443300  70.3479821  26.5289240  43.8803621  66.2237111
  27.1252813  43.6559644  65.5094074  26.5864212  43.1388367  66.8262559
  31.1457552  40.3378835  61.8662045  31.9320641  39.9198258  61.5152462
  31.4096256  41.2424927  62.0343693  28.1642099  42.6981310  59.9658366
  27.8000306  42.1711931  60.6771287  29.0209214  42.3079779  59.7924851
  27.8047586  37.7271209  54.9619714  27.9721988  38.5951446  55.3290186
  27.6144755  37.8898491  54.0381004  24.0135400  42.6401985  62.6622249
  23.0885897  42.5078199  62.8699941  24.2619813  43.4196204  63.1592192
  33.9620063  38.7070728  64.3082982  33.0536940  38.6386137  64.0141743
  33.9107658  39.1842673  65.1364808  27.7836806  40.1828867  55.9466381
  27.6636432  40.6285918  56.7851862  27.0889395  40.5314185  55.3879919
  21.3744211  42.2835259  63.4966038  21.5036592  42.5369738  64.4105450
  20.6941663  42.8762967  63.1770693  28.0360928  40.1260374  72.2517879
  27.2594262  40.6854294  72.2420744  28.6751491  40.6117157  72.7732750
  33.4821873  40.6550340  56.7746715  34.3939729  40.8877727  56.5994413
  32.9731520  41.2387384  56.2121794  26.2907301  42.9345827  71.8135846
  27.0321985  43.4730871  71.5370670  25.5844286  43.5612116  71.9707398
  31.7662640  45.0774968  70.4108008  32.1745996  44.6357378  69.6662640
  31.0439902  44.5027595  70.6642201  28.1193710  40.0147575  67.7841565
  28.9654905  40.4386988  67.9276214  28.0592348  39.3581199  68.4780128
  31.2693156  37.6751943  69.4422739  31.0254087  38.4294004  68.9057014
  31.5453086  38.0537291  70.2769986  33.2231618  44.2190555  68.1200004
  33.4348514  44.8622315  67.4434385  33.1761367  43.3852872  67.6521934
  30.8257847  36.8308376  65.0236576  29.9642326  37.1289630  65.3153314
  30.8520282  37.0478775  64.0917609  27.6419417  45.3750567  61.4310382
  28.1057762  45.6538270  60.6415004  27.3776215  44.4734011  61.2483473
  24.5343498  44.9222048  64.3690145  25.1044855  45.3509317  63.7307630
  25.1251610  44.6404633  65.0674331  26.5788303  41.4973719  58.2399947
  27.2812346  41.9494763  58.7073873  26.2468931  40.8557538  58.8679840
  25.0268664  40.0885476  72.6151156  24.3967325  40.7701756  72.8486553
  24.9204752  39.9768557  71.6704295  20.3213637  39.7557272  63.5417081
  19.5312691  40.0114800  63.0657191  20.8124884  40.5705610  63.6469121
  22.2728382  40.1201851  60.5000557  21.4759545  40.2320545  61.0184053
  22.0453974  40.4588503  59.6341448  28.1034050  46.6446554  68.4483072
  28.1678482  47.1066961  69.2841244  27.3944974  46.0143919  68.5765382
  18.6051340  40.0087762  65.9732071  18.8559378  40.8934772  66.2389647
  19.1410888  39.8292364  65.2007163  24.3049407  34.3906241  74.9776407
  23.9116353  33.8372440  75.6524052  25.1215547  34.7016820  75.3682925
  21.2711465  45.8290100  58.8889977  21.7835985  46.6233350  59.0395542
  21.9234178  45.1316390  58.8223579  27.2217368  35.8064121  72.5696664
  27.9627081  36.4071274  72.4901127  27.4535291  35.0641758  72.0114707
  22.3658706  40.9920488  70.8474894  22.2512221  40.0905745  71.1481993
  21.5103224  41.2384185  70.4959710  29.4450544  48.9338228  72.4462394
  29.0014398  48.1474607  72.1283299  30.1067757  49.1217379  71.7806285
  24.2037665  50.4634030  66.9723073  24.7545090  50.3351093  66.2000067
  23.3649141  50.7628919  66.6217966  28.0004836  46.7285158  71.3167304
  28.5333173  45.9673446  71.0866612  27.4718917  46.4358809  72.0591458
  31.1674531  31.8345223  66.8460946  30.8238800  32.7246865  66.7700056
  31.5353494  31.6446881  65.9830531  19.2360382  44.1578754  59.6649548
  20.0735604  44.5675762  59.4483256  19.4138649  43.2178196  59.6349742
  31.1324814  41.8253835  55.3533381  30.6171437  42.5958439  55.5921768
  30.8602122  41.1518971  55.9766442  28.7171925  36.6703535  60.4118619
  27.8613521  36.2810386  60.2324258  29.1298877  36.7495496  59.5518405
  30.2471071  34.2049879  64.8110179  29.7435867  34.1680014  63.9977984
  30.5401678  35.1142621  64.8706836  26.4913957  34.2888608  63.8176361
  27.3566954  34.0931417  63.4582250  26.5591466  34.0598960  64.7445717
  30.9211117  39.6980927  57.1793162  30.6161252  40.0127076  58.0303305
  31.8741559  39.7762347  57.2220495  29.3657549  45.8571150  58.8286116
  28.8378910  45.1223910  58.5159353  28.8645051  46.6345826  58.5826084
  34.3450395  44.0520171  63.9453162  33.6874069  44.7419432  64.0333291
  35.1490794  44.4416602  64.2887149  24.0976276  36.5190816  61.1892728
  24.6720028  36.2965998  60.4565920  24.6847259  36.5879511  61.9421329
  33.1555854  42.4064543  61.9957104  33.6687735  43.0394535  62.4978814
  33.8057077  41.8065739  61.6300464  24.4245863  38.5495277  55.2088613
  23.5883176  38.8869964  55.5297888  24.2850633  38.4144257  54.2715750
  26.3998944  33.3932065  59.9167797  25.7463356  33.0781082  59.2924412
  26.3579418  32.7707806  60.6427620  29.6336684  39.8813999  64.2415445
  28.7159246  40.1028946  64.0837133  30.0496828  39.9560309  63.3827152
  30.4171732  41.2805414  59.3718125  31.1643551  41.7926812  59.0625247
  30.6863322  40.9589467  60.2322518  28.6898382  43.7763955  56.3545079
  27.7809602  43.4922988  56.4517549  28.7193466  44.1963034  55.4948386
  32.8650569  38.3162531  61.3536914  32.1273326  37.8039917  61.6847157
  33.1177343  37.8762912  60.5420191  19.2586553  41.4969469  60.3360281
  19.0610953  40.9038830  59.6111348  18.7033217  41.1921679  61.0536220
  27.2383276  41.3892576  62.4554874  27.2931886  40.4366412  62.3797351
  26.4274478  41.5452015  62.9396173  25.1775636  40.0069635  60.2145253
  24.3643502  40.3063806  60.6210445  25.6734631  39.6125324  60.9319736
  30.7749848  40.4711460  69.0460147  31.1299236  40.6982933  69.9054613
  31.4221979  40.8029837  68.4237403  36.5047585  43.5929896  59.7509476
  36.3665484  43.7831492  58.8230665  36.1483804  44.3549279  60.2077527
  24.6689711  37.5787991  65.8306488  25.3089090  37.4376750  65.1329452
  23.8367242  37.2922504  65.4545090  21.7532778  41.0233503  58.0201233
  20.8230367  40.9617959  58.2371196  21.8490250  40.5009456  57.2237875
  21.6718327  37.5488316  60.6079475  21.9325145  38.4633649  60.4988636
  22.4935500  37.0812759  60.7576088  23.1443253  38.9626073  67.7778300
  23.8166306  38.7543435  67.1290949  22.3173039  38.7648159  67.3383532
  29.0468825  35.5888014  69.7943961  28.3996740  36.2877964  69.7008437
  29.8169840  36.0224158  70.1620209  32.4547623  45.8536866  72.8694514
  32.3033129  45.6247418  71.9524597  32.4452302  46.8107468  72.8825859
  29.2232959  43.4268779  67.8540780  30.1525019  43.5779939  67.6809748
  28.8023989  43.5152800  66.9989427  28.0221291  47.4519443  65.6239318
  27.8832377  47.0838228  66.4965256  27.2335887  47.9667083  65.4523276
  29.5726506  46.8301046  63.0128156  29.2376339  46.7901816  63.9085806
  29.0730452  46.1645762  62.5398566  23.5470750  42.2368676  68.5380737
  23.4090548  41.5048915  69.1392276  24.4575674  42.1477576  68.2564925
  32.5085698  44.1757080  53.2865215  31.8914868  43.4503909  53.1898268
  32.0402186  44.9366441  52.9432290  26.1753051  41.9488635  68.0264416
  26.8852669  41.3081828  67.9851035  26.1322359  42.2001530  68.9490597
  24.8881985  38.9353853  69.8460056  24.3519342  38.4844592  70.4981652
  24.2998693  39.0699762  69.1030520  23.1830528  55.7017903  63.7404715
  23.4227126  56.3336427  64.4183733  22.3399725  55.3505943  64.0270074
  24.2984244  38.3942505  52.4086520  23.4213710  38.2731306  52.0448766
  24.7741997  37.6028583  52.1565408  15.8186384  43.1819664  62.5028027
  16.5057424  42.8681395  61.9149042  15.6634513  44.0861029  62.2295278
  20.6221106  38.0709861  66.9313050  20.5379295  37.4635531  66.1963460
  19.8003812  38.5618879  66.9322547  30.7944820  36.5563425  62.2983245
  31.2913519  35.8033387  61.9784316  30.0231801  36.5927741  61.7326455
  38.6474577  42.2603790  63.9401537  38.6364453  43.1428506  63.5695470
  37.7791957  41.9075341  63.7456074  31.8774601  45.3135112  59.8721669
  30.9430879  45.4336574  59.7026373  32.0551269  44.4107579  59.6081679
  27.3779789  38.6980808  62.0254930  27.0077576  38.1451848  62.7135836
  27.8738881  38.0938941  61.4729930  35.2647152  41.1552431  60.4071703
  35.7307604  41.9880423  60.3332006  35.7154652  40.6897413  61.1116962
  25.2068987  49.1578303  69.1209948  25.9078447  49.7914786  69.2739342
  24.7364102  49.4993034  68.3605587  33.0070273  41.7122910  66.9462498
  32.3541723  41.9598817  66.2914951  33.3850653  40.8987048  66.6124976
  29.0557846  42.4542721  73.4328535  28.3798483  42.3536850  74.1030911
  29.8785480  42.2981935  73.8964533  20.8036705  48.6914658  66.0541051
  21.3890142  47.9458346  66.1868955  20.6061544  49.0018614  66.9377715
  15.3954360  41.2620258  64.7745494  15.4338459  40.7283849  65.5682612
  14.8894653  40.7355463  64.1556471  22.7745122  36.1084798  68.2708036
  22.8386449  36.9699629  67.8585434  22.7112242  35.4958800  67.5380395
  19.0262938  39.9884360  57.8499425  19.3216379  39.0795038  57.7966479
  18.1250973  39.9672099  57.5280428  22.5557185  38.0640357  63.8326974
  21.8343770  38.6776324  63.6934447  23.3450440  38.5998121  63.7543620
  25.3583498  35.3994783  70.1067626  25.8817900  35.6457080  70.8693935
  25.1395831  36.2314818  69.6870763  20.7550779  37.6698458  57.9738750
  20.4263485  36.7895837  57.7913856  21.1090150  37.6146126  58.8615140
  23.8692602  37.9571427  58.3414228  24.2088675  38.4857349  57.6192836
  24.3164723  38.2951834  59.1172795  26.5636043  36.3408478  67.7917296
  26.2232863  35.5416291  68.1937976  25.8575049  36.6410189  67.2194129
  27.2152515  33.4257791  66.2444619  28.0378584  32.9518269  66.1223509
  27.4590578  34.2048274  66.7443305  25.8560749  36.4546049  56.5407521
  26.5769112  36.8327302  56.0371238  25.2326054  37.1734926  56.6442499
  29.9991872  37.1591198  57.4765853  30.2155487  38.0415836  57.1754681
  29.5185939  36.7677411  56.7471495  24.7391094  40.1176911  64.0536598
  24.5935674  40.4317214  64.9460879  24.2616297  40.7361812  63.5007496
  26.5987477  37.1079459  64.1017487  26.5849045  36.2120553  63.7649785
  27.3159905  37.1150123  64.7355773  28.4513607  37.5416799  66.1470615
  28.1931385  38.4633870  66.1454945  27.9198648  37.1447234  66.8371079
  19.2136756  42.6582256  66.9924259  18.6690224  43.4342064  67.1244533
  20.0916106  43.0053060  66.8343380  26.0024372  35.9893840  59.3705057
  26.1240284  35.0610486  59.5695945  25.7126415  36.0032525  58.4583373
  28.8715563  33.6748750  62.5071777  28.8937260  33.7388083  61.5523757
  29.2883622  32.8353259  62.7012283  39.2499187  43.4104010  60.5451000
  39.6930333  42.6611335  60.1470123  38.3725697  43.4014146  60.1624732
  20.0002778  41.7852152  69.8854416  19.2584514  41.9334787  70.4719046
  19.6795522  42.0460418  69.0221165  20.4459391  49.6717581  61.9164810
  21.2717411  49.3721352  61.5363454  20.0953443  48.9025203  62.3654599
  25.4140925  49.0244049  63.9862484  24.7920934  48.3614754  63.6864712
  26.0845791  49.0505181  63.3036132  18.6467996  47.5903907  62.8753744
  17.8099905  47.1626081  62.6937745  18.6191642  47.7836350  63.8124535
  25.4865452  37.5025837  73.5794990  25.5353607  38.3787960  73.1972760
  26.0287966  36.9603230  73.0066633  36.0918173  44.8959427  70.1728856
  36.1416178  44.7309434  71.1144378  35.9832096  44.0286686  69.7826736
  27.7164740  38.2557209  70.3341349  26.8468050  38.5490775  70.0623937
  27.9524221  38.8397654  71.0548612  38.7932052  44.8809248  62.9373447
  39.6278943  45.3199052  63.1011008  38.9291181  44.4047901  62.1181693
  35.8423558  42.4388983  68.8850935  36.3177679  42.6316629  68.0769787
  34.9189123  42.4948168  68.6394319  22.7307064  43.6013150  58.4682013
  22.4853106  42.6975480  58.6662224  22.9002979  43.6030300  57.5261491
  30.4203774  34.4736826  67.8506769  30.9385718  35.2097853  67.5253258
  30.0658907  34.7800820  68.6853528  22.0002712  39.3341507  55.9668175
  21.3071957  39.4085862  55.3108211  21.7554464  38.5701851  56.4889692
  34.5425227  39.3154743  67.1179241  35.4942650  39.4152840  67.1391465
  34.3728677  38.5233011  67.6277325  32.5639606  36.4010326  67.3038642
  31.9689538  36.6815339  66.6085130  32.2789303  36.8904227  68.0755383
  37.0213305  42.5360862  66.2321540  36.9889625  41.5976863  66.4181224
  37.6313928  42.6144899  65.4987365  28.8596635  41.4056915  52.2748744
  29.8055740  41.2763124  52.3437163  28.4810880  40.6671577  52.7518173
  28.7435328  45.4574662  73.7349401  29.6638337  45.6353261  73.9289448
  28.7084911  44.5130707  73.5829101  27.0439553  39.3306892  52.2103630
  26.1371008  39.0340004  52.2866343  27.3215534  39.0336710  51.3437916
  17.9617493  40.6513255  62.6602676  17.6420277  39.7978563  62.3677050
  17.4150921  40.8661833  63.4160643  21.7397401  43.3675696  66.3772183
  21.9583410  44.2992804  66.3960216  22.1523174  43.0083671  67.1626986
  28.6601618  33.8743781  58.3647871  27.8502347  33.5290866  58.7403117
  29.3486035  33.5651325  58.9535483  26.6125266  38.9408902  75.7674932
  26.5121993  39.8903259  75.6987023  26.3946808  38.6127141  74.8951002
  25.8138337  36.1893827  52.3515609  26.6757501  36.5148725  52.6111426
  25.9988681  35.4025323  51.8388675  17.8305753  44.2716167  64.6295798
  17.1369224  43.8570119  64.1165752  18.5778744  44.3136703  64.0329217
  26.4756536  42.3706041  74.5839993  25.9923618  43.1706401  74.7903882
  26.5617475  42.3813986  73.6307437  19.7442496  44.2034420  62.5061813
  19.7213184  44.3022108  61.5543696  20.0543132  45.0499571  62.8278979
  22.4029873  46.2610575  66.6208427  23.3573127  46.2294518  66.5538359
  22.2042397  45.8001199  67.4358653  22.9929256  44.8311692  69.1879225
  23.8122145  45.3255770  69.2114062  23.2666063  43.9143660  69.1596792
  32.7495852  37.2222444  58.5507180  31.8621707  37.5072094  58.3327375
  33.1649841  37.0616207  57.7034457  20.7580102  51.8030195  63.6378625
  20.6234570  51.0430596  63.0716623  20.3412164  52.5271095  63.1707414
  32.7236875  42.7376980  58.7657470  32.6672077  43.1945531  57.9265103
  33.2765218  41.9767664  58.5880313  33.4571655  43.9281761  56.0610000
  33.4020459  43.7626032  55.1198444  32.8317710  44.6357794  56.2172189
  18.2464170  39.1649825  69.8871422  18.8923033  38.6548779  70.3758647
  18.0381321  39.9018507  70.4614847  30.7717562  46.2330673  75.3863562
  31.6408722  46.4071325  75.0250197  30.2924313  47.0525090  75.2639292
  26.7667780  33.4289870  55.6395318  26.7546450  34.3731710  55.7963589
  27.6591202  33.2460015  55.3454779  30.5819900  30.0232647  59.8941255
  29.8152296  29.4691133  60.0397937  30.9930605  30.0954515  60.7555406
  22.5861661  36.3117442  73.9846436  23.4493122  35.9554247  74.1949761
  22.0127071  35.9731337  74.6721840  37.1301055  58.2637745  71.8135846
  37.8715739  58.8022789  71.5370670  36.4238041  58.8904034  71.9707398
  38.8398591  62.0577075  71.3167304  39.3726927  61.2965363  71.0866612
  38.3112672  61.7650727  72.0591458  43.2941377  61.1828784  72.8694514
  43.1426884  60.9539336  71.9524597  43.2846057  62.1399385  72.8825859
  39.8951601  57.7834639  73.4328535  39.2192238  57.6828768  74.1030911
  40.7179235  57.6273853  73.8964533  39.5829082  60.7866579  73.7349401
  40.5032092  60.9645178  73.9289448  39.5478666  59.8422625  73.5829101
  41.4213654  45.3524564  59.8941255  40.6546050  44.7983051  60.0397937
  41.8324359  45.4246433  60.7555406  44.8618037  86.3601738  63.7404715
  45.1014635  86.9920262  64.4183733  44.0187234  86.0089778  64.0270074
  45.3362869  82.3849740  61.0703493  44.6673245  82.8695868  60.5867533
  45.1975739  82.6318961  61.9846872  45.5936737  83.3583347  63.8497068
  45.4769121  84.3028780  63.7475758  44.7729183  83.0556909  64.2382867
  64.1097547  88.6003134  64.7908837  64.7475957  88.4809882  64.0872177
  63.9918390  89.5483978  64.8496789  60.9187253  88.5530562  64.7270362
  60.5805764  88.4371627  63.8390897  61.7877021  88.1521727  64.7071368
  56.7774069  90.4066039  60.7167253  56.2138934  90.3155976  59.9483540
  56.6626464  89.5865943  61.1969745  61.4007036  89.7065414  70.6856567
  61.3895677  89.3118212  69.8137071  61.5627675  88.9731487  71.2790339
  54.3238501  91.9017230  63.5551473  55.1159793  91.5608055  63.1397772
  54.5635151  92.0112205  64.4753626  62.3573627  94.0737006  56.0281718
  61.7061607  94.6591087  55.6415731  63.1517990  94.6043201  56.0876755
  56.2829255  91.1626144  56.4268852  57.0560131  90.6155131  56.2881728
  56.6354653  92.0270393  56.6383313  58.1214297  92.4902526  69.6335751
  57.8304163  93.3948157  69.5182417  58.7571281  92.5319053  70.3479821
  59.0470504  89.8679374  66.2237111  59.6434076  89.6435397  65.5094074
  59.1045475  89.1264120  66.8262559  58.6195532  87.3218810  54.0587302
  58.8721053  86.8000331  53.2970765  57.6820091  87.1584955  54.1613985
  63.6638815  86.3254588  61.8662045  64.4501904  85.9074011  61.5152462
  63.9277520  87.2300680  62.0343693  63.8348893  91.7627438  56.5650702
  63.1994726  91.8362065  57.2771606  63.5046299  92.3521037  55.8869781
  69.0647242  86.2629821  62.7695024  69.7972414  85.6929038  63.0032853
  68.3086598  85.8751422  63.2101529  60.6823362  88.6857063  59.9658366
  60.3181569  88.1587684  60.6771287  61.5390478  88.2955532  59.7924851
  66.5872663  79.9751395  67.2289632  66.2555987  80.8446806  67.0050847
  65.9918276  79.6587679  67.9083663  60.3228849  83.7146962  54.9619714
  60.4903251  84.5827199  55.3290186  60.1326018  83.8774244  54.0381004
  63.0804182  92.1763941  66.6285545  62.7804905  93.0788980  66.5201352
  62.7355242  91.9096125  67.4806698  56.5316664  88.6277738  62.6622249
  55.6067160  88.4953952  62.8699941  56.7801077  89.4071957  63.1592192
  66.4801326  84.6946482  64.3082982  65.5718203  84.6261890  64.0141743
  66.4288922  85.1718426  65.1364808  60.3018070  86.1704620  55.9466381
  60.1817695  86.6161671  56.7851862  59.6070658  86.5189938  55.3879919
  58.0624962  98.9408262  59.5956513  57.9848992  99.8916087  59.6744993
  57.4586606  98.5954134  60.2531439  68.3462972  82.8962920  66.0860856
  67.7037353  83.1895453  65.4400651  67.8417901  82.7815840  66.8914053
  66.0003136  86.6426093  56.7746715  66.9120992  86.8753480  56.5994413
  65.4912783  87.2263137  56.2121794  58.8088564  88.9221580  71.8135846
  59.5503248  89.4606624  71.5370670  58.1025550  89.5487869  71.9707398
  64.2843904  91.0650721  70.4108008  64.6927260  90.6233131  69.6662640
  63.5621165  90.4903348  70.6642201  60.6374974  86.0023328  67.7841565
  61.4836169  86.4262741  67.9276214  60.5773611  85.3456952  68.4780128
  64.6072718  91.6251912  64.1660297  63.9781581  91.7897626  63.4636365
  64.2198380  92.0393521  64.9371261  68.4861950  92.5606349  61.5204661
  67.8012988  92.9405251  60.9701694  68.5705800  93.1701676  62.2536608
  63.7874419  83.6627696  69.4422739  63.5435351  84.4169757  68.9057014
  64.0634350  84.0413044  70.2769986  65.7412882  90.2066308  68.1200004
  65.9529777  90.8498068  67.4434385  65.6942630  89.3728625  67.6521934
  63.3439111  82.8184129  65.0236576  62.4823590  83.1165383  65.3153314
  63.3701545  83.0354528  64.0917609  60.1600680  91.3626320  61.4310382
  60.6239026  91.6414023  60.6415004  59.8957478  90.4609764  61.2483473
  57.0524761  90.9097801  64.3690145  57.6226118  91.3385070  63.7307630
  57.6432873  90.6280386  65.0674331  59.0969566  87.4849472  58.2399947
  59.7993610  87.9370516  58.7073873  58.7650195  86.8433291  58.8679840
  66.8558710  93.0838264  66.2922361  67.6776154  92.6818451  66.0105043
  66.8521113  92.9806498  67.2438477  54.7909646  86.1077604  60.5000557
  53.9940809  86.2196298  61.0184053  54.5635238  86.4464256  59.6341448
  60.6215313  92.6322307  68.4483072  60.6859746  93.0942714  69.2841244
  59.9126237  92.0019672  68.5765382  74.9464703  89.4277012  62.6407333
  74.1928411  88.8584410  62.4851337  75.0812244  89.3939677  63.5877968
  60.3363331  94.2990415  58.3162052  60.2009006  95.1441950  58.7446900
  60.8773143  94.5009692  57.5527986  53.7892728  91.8165853  58.8889977
  54.3017249  92.6109103  59.0395542  54.4415441  91.1192143  58.8223579
  55.5987613  94.9331609  60.9712731  55.7754241  95.8549574  60.7833714
  56.3944447  94.6190028  61.4007110  61.9631807  94.9213981  72.4462394
  61.5195661  94.1350360  72.1283299  62.6249021  95.1093132  71.7806285
  56.7218928  96.4509783  66.9723073  57.2726354  96.3226846  66.2000067
  55.8830404  96.7504672  66.6217966  64.0613045  95.2016781  70.4743796
  64.0431521  96.0225662  69.9824065  64.9832965  95.0770856  70.6993937
  60.5186100  92.7160911  71.3167304  61.0514436  91.9549199  71.0866612
  59.9900181  92.4234562  72.0591458  51.7541645  90.1454507  59.6649548
  52.5916867  90.5551515  59.4483256  51.9319913  89.2053949  59.6349742
  63.6506077  87.8129588  55.3533381  63.1352701  88.5834192  55.5921768
  63.3783386  87.1394724  55.9766442  62.7652335  80.1925632  64.8110179
  62.2617130  80.1555767  63.9977984  63.0582942  81.1018374  64.8706836
  68.6240351  90.5661942  57.2886554  67.8469794  90.2273102  56.8441716
  69.3031832  90.5714565  56.6141519  63.4392380  85.6856680  57.1793162
  63.1342516  86.0002829  58.0303305  64.3922822  85.7638100  57.2220495
  61.8838812  91.8446903  58.8286116  61.3560174  91.1099663  58.5159353
  61.3826315  92.6221579  58.5826084  66.8631658  90.0395924  63.9453162
  66.2055333  90.7295185  64.0333291  67.6672057  90.4292355  64.2887149
  65.6737117  88.3940296  61.9957104  66.1868999  89.0270288  62.4978814
  66.3238341  87.7941492  61.6300464  56.9427127  84.5371030  55.2088613
  56.1064439  84.8745717  55.5297888  56.8031897  84.4020010  54.2715750
  60.0291412  89.6627113  51.8321089  59.1218474  89.4316367  52.0312238
  60.5262444  88.8664733  52.0195071  62.9359491  98.3724620  54.7517775
  62.2621190  98.6756317  55.3602733  63.3225313  99.1753701  54.4023232
  62.1517948  85.8689752  64.2415445  61.2340509  86.0904699  64.0837133
  62.5678092  85.9436062  63.3827152  62.9352996  87.2681167  59.3718125
  63.6824815  87.7802565  59.0625247  63.2044585  86.9465220  60.2322518
  61.2079646  89.7639708  56.3545079  60.2990865  89.4798741  56.4517549
  61.2374730  90.1838787  55.4948386  66.4398913  93.3746298  60.1236247
  65.9861240  92.5337208  60.1801437  65.8092880  94.0107696  60.4611027
  65.3831833  84.3038284  61.3536914  64.6454590  83.7915670  61.6847157
  65.6358606  83.8638665  60.5420191  64.8831852  95.2122794  61.0586065
  65.1754827  95.7727851  60.3398430  65.3930473  95.5051355  61.8139224
  59.7564540  87.3768329  62.4554874  59.8113150  86.4242165  62.3797351
  58.9455742  87.5327768  62.9396173  60.9055734  91.3048452  53.6933158
  60.4675164  90.5884311  53.2338795  61.6466174  91.5324567  53.1318249
  59.8465478  95.9903145  62.1479518  59.8041656  96.2163992  61.2188050
  60.7628177  95.7566520  62.2965319  63.2931111  86.4587213  69.0460147
  63.6480499  86.6858686  69.9054613  63.9403243  86.7905590  68.4237403
  69.0228848  89.5805649  59.7509476  68.8846747  89.7707245  58.8230665
  68.6665067  90.3425032  60.2077527  69.0498228  91.6482176  64.7620748
  69.4834735  91.5557465  65.6103802  69.7629809  91.6239676  64.1240764
  57.9631278  92.8666174  61.9441481  58.7571877  92.3716495  61.7424056
  57.2522971  92.3384038  61.5809186  62.7826123  95.2484270  66.2953848
  62.8363145  95.8175206  67.0631564  61.9140904  95.4186155  65.9307886
  54.2714042  87.0109256  58.0201233  53.3411630  86.9493712  58.2371196
  54.3671514  86.4885209  57.2237875  69.9113778  91.6905877  67.2953633
  70.1049668  92.5951687  67.5412908  69.8114396  91.2313296  68.1292218
  64.9728886  91.8412619  72.8694514  64.8214393  91.6123171  71.9524597
  64.9633566  92.7983221  72.8825859  61.7414223  89.4144532  67.8540780
  62.6706283  89.5655692  67.6809748  61.3205253  89.5028553  66.9989427
  60.5402554  93.4395196  65.6239318  60.4013640  93.0713981  66.4965256
  59.7517151  93.9542836  65.4523276  61.1350706  98.5404293  56.9664854
  61.3102462  98.0692336  57.7810477  60.4483494  99.1670059  57.1946115
  62.0907770  92.8176799  63.0128156  61.7557602  92.7777569  63.9085806
  61.5911715  92.1521515  62.5398566  56.0652014  88.2244429  68.5380737
  55.9271811  87.4924668  69.1392276  56.9756937  88.1353329  68.2564925
  65.0266961  90.1632833  53.2865215  64.4096132  89.4379662  53.1898268
  64.5583450  90.9242194  52.9432290  58.6934314  87.9364388  68.0264416
  59.4033933  87.2957581  67.9851035  58.6503622  88.1877283  68.9490597
  66.6821093  94.8731742  70.9470996  66.6233639  94.1890962  70.2801579
  67.0840611  95.6150732  70.4951622  55.7011792 101.6893656  63.7404715
  55.9408390 102.3212180  64.4183733  54.8580988 101.3381696  64.0270074
  56.8165507  84.3818258  52.4086520  55.9394973  84.2607059  52.0448766
  57.2923260  83.5904336  52.1565408  66.6838500  92.8371326  69.1784975
  65.7965279  92.4997248  69.3011374  67.2537051  92.1054357  69.4153741
  48.3367647  89.1695418  62.5028027  49.0238687  88.8557148  61.9149042
  48.1815776  90.0736782  62.2295278  60.2139654  97.4972778  66.1446219
  60.1409825  98.3027750  66.6565523  59.7717047  97.6964744  65.3194240
  60.0029433  96.7344548  59.6549040  59.2196955  97.2766228  59.7487265
  60.7022178  97.2518528  60.0543281  63.3126083  82.5439178  62.2983245
  63.8094783  81.7909140  61.9784316  62.5413065  82.5803494  61.7326455
  71.1655841  88.2479543  63.9401537  71.1545717  89.1304259  63.5695470
  70.2973220  87.8951094  63.7456074  62.6738337  97.3959612  68.3004377
  63.3866309  98.0307077  68.2280279  62.1828366  97.4923478  67.4844379
  64.3955864  91.3010865  59.8721669  63.4612143  91.4212327  59.7026373
  64.5732532  90.3983332  59.6081679  67.7828415  87.1428184  60.4071703
  68.2488868  87.9756176  60.3332006  68.2335916  86.6773166  61.1116962
  57.7250251  95.1454056  69.1209948  58.4259710  95.7790539  69.2739342
  57.2545366  95.4868787  68.3605587  65.8504646  93.4872005  57.4057855
  66.1264490  93.3728600  58.3151729  64.9809145  93.0889490  57.3670028
  65.7545078  79.5108771  64.4462604  64.8408158  79.7412998  64.6144811
  66.1838180  79.5947215  65.2976637  65.5251537  87.6998663  66.9462498
  64.8722987  87.9474571  66.2914951  65.9031916  86.8862801  66.6124976
  62.4858710  97.7358356  61.0490669  62.6681105  96.9180012  61.5118421
  63.3091696  97.9526048  60.6115559  62.8200876  96.6626541  58.3105717
  63.3488642  96.1518996  57.6975879  63.0829096  96.3469072  59.1751250
  61.5739110  88.4418474  73.4328535  60.8979747  88.3412603  74.1030911
  62.3966743  88.2857688  73.8964533  53.3217969  94.6790411  66.0541051
  53.9071405  93.9334099  66.1868955  53.1242807  94.9894367  66.9377715
  56.1756624  97.7141658  61.0703493  55.5066999  98.1987786  60.5867533
  56.0369494  97.9610879  61.9846872  47.9135623  87.2496011  64.7745494
  47.9519723  86.7159602  65.5682612  47.4075916  86.7231216  64.1556471
  60.3161892  99.7485402  67.6686151  60.8680201  99.9117023  68.4335237
  60.6568086 100.3389839  66.9966176  65.1672767  94.5746659  73.5234806
  65.7112671  95.1876617  73.0289761  64.5859612  95.1326237  74.0401819
  63.4530280  97.6967377  64.6549834  63.3281419  96.8957117  64.1460779
  64.1109371  98.1913570  64.1663804  65.5165188  95.4976397  66.2829384
  64.5695524  95.3781748  66.2107710  65.8647961  94.6098895  66.3655645
  62.5211621  95.2929113  62.4833736  62.3736584  94.3645821  62.6641306
  63.3465115  95.3149204  61.9990811  56.3873866  83.9447180  58.3414228
  56.7269938  84.4733102  57.6192836  56.8345986  84.2827587  59.1172795
  66.1245743  96.1157672  63.5698609  67.0492291  95.9100533  63.4323060
  65.9561047  95.8674073  64.4787950  62.5173136  83.1466951  57.4765853
  62.7336750  84.0291589  57.1754681  62.0367203  82.7553164  56.7471495
  65.9141060  96.6343340  58.9260700  66.0877937  96.0689762  58.1734553
  66.4069951  97.4344234  58.7440190  51.7318019  88.6458009  66.9924259
  51.1871487  89.4217817  67.1244533  52.6097369  88.9928813  66.8343380
  71.7680451  89.3979763  60.5451000  72.2111597  88.6487088  60.1470123
  70.8906961  89.3889899  60.1624732  66.9016232  95.9510104  56.0257598
  67.5967137  96.5716797  56.2444913  67.2439382  95.1005455  56.3009976
  52.5184041  87.7727905  69.8854416  51.7765777  87.9210540  70.4719046
  52.1976785  88.0336171  69.0221165  68.8007655  93.4009810  57.5544929
  69.3258979  93.7397082  56.8294249  68.7130008  92.4656825  57.3708064
  60.4627704  97.3143883  69.6834806  60.7714830  97.0693030  70.5557505
  61.2603186  97.5190522  69.1953676  60.4848316  99.4681793  61.9140182
  60.0453306  98.9758171  62.6073039  61.2356433  98.9254760  61.6732258
  52.9640655  95.6593334  61.9164810  53.7898675  95.3597106  61.5363454
  52.6134707  94.8900956  62.3654599  57.9322188  95.0119802  63.9862484
  57.3102197  94.3490507  63.6864712  58.6027055  95.0380934  63.3036132
  51.1649260  93.5779660  62.8753744  50.3281168  93.1501834  62.6937745
  51.1372905  93.7712103  63.8124535  68.4901561  94.0342713  72.8596127
  67.6997105  94.0166852  72.3200627  68.2534916  94.5731007  73.6145164
  68.6099436  90.8835180  70.1728856  68.6597441  90.7185187  71.1144378
  68.5013360  90.0162439  69.7826736  57.4935695  93.5623725  57.4620945
  57.6423815  94.2459190  56.8087617  58.3002138  93.5428815  57.9770400
  65.9003199  86.8666108  71.4888162  66.8013061  86.7272572  71.1972160
  65.9751173  87.0320562  72.4286340  70.1117633  93.3032121  70.4170877
  69.8202441  93.6662102  71.2534338  69.4989764  92.5899129  70.2384209
  71.3113315  90.8685001  62.9373447  72.1460207  91.3074805  63.1011008
  71.4472444  90.3923654  62.1181693  68.3604821  88.4264736  68.8850935
  68.8358943  88.6192382  68.0769787  67.4370387  88.4823922  68.6394319
  55.2488328  89.5888903  58.4682013  55.0034370  88.6851233  58.6662224
  55.4184242  89.5906053  57.5261491  62.9385038  80.4612579  67.8506769
  63.4566982  81.1973606  67.5253258  62.5840171  80.7676573  68.6853528
  54.5183975  85.3217260  55.9668175  53.8253220  85.3961615  55.3108211
  54.2735727  84.5577604  56.4889692  60.9931100  96.0571856  54.9332692
  60.4205068  96.6762043  54.4803164  61.5663894  96.6071217  55.4672614
  67.0606490  85.3030496  67.1179241  68.0123913  85.4028593  67.1391465
  66.8909941  84.5108764  67.6277325  65.0820870  82.3886079  67.3038642
  64.4870802  82.6691092  66.6085130  64.7970566  82.8779980  68.0755383
  64.2128360  96.3409006  56.0641274  65.1459033  96.2754567  56.2674150
  64.1251573  97.1765273  55.6055807  66.8416377  95.6574876  53.0245222
  66.7630008  95.3234740  53.9180980  67.6626044  96.1496644  53.0236694
  69.5394568  88.5236615  66.2321540  69.5070888  87.5852616  66.4181224
  70.1495192  88.6020652  65.4987365  61.3777899  87.3932668  52.2748744
  62.3237004  87.2638877  52.3437163  60.9992144  86.6547330  52.7518173
  69.6889057  85.3147659  66.2779824  69.1728105  84.5306116  66.0909752
  70.5729005  84.9866376  66.4426343  67.3499783  79.0588674  62.2375636
  67.1524605  78.7503763  63.1218968  67.9599489  79.7850313  62.3673566
  75.3571118  89.5852622  65.3727577  76.0874506  89.3237910  65.9335281
  74.7478063  88.8481344  65.4129645  73.4386415  87.7260485  65.9702028
  72.7119579  87.5916450  65.3618520  73.0233702  88.0337313  66.7758746
  61.2616591  91.4450415  73.7349401  62.1819601  91.6229014  73.9289448
  61.2266175  90.5006460  73.5829101  59.5620816  85.3182645  52.2103630
  58.6552271  85.0215758  52.2866343  59.8396797  85.0212463  51.3437916
  54.2578664  89.3551449  66.3772183  54.4764674  90.2868557  66.3960216
  54.6704438  88.9959424  67.1626986  59.1306529  84.9284655  75.7674932
  59.0303256  85.8779012  75.6987023  58.9128071  84.6002894  74.8951002
  58.3319601  82.1769580  52.3515609  59.1938765  82.5024478  52.6111426
  58.5169945  81.3901076  51.8388675  50.3487016  90.2591920  64.6295798
  49.6550488  89.8445873  64.1165752  51.0960007  90.3012456  64.0329217
  66.4852237  81.0498106  59.4950832  65.9050906  81.7082911  59.1128884
  66.2188170  80.2275451  59.0838249  64.9355804  80.4503164  61.6972152
  65.4355582  80.5619699  60.8886471  65.5791411  80.1464217  62.3372961
  58.9937799  88.3581794  74.5839993  58.5104881  89.1582154  74.7903882
  59.0798738  88.3689739  73.6307437  52.2623759  90.1910173  62.5061813
  52.2394447  90.2897861  61.5543696  52.5724395  91.0375324  62.8278979
  54.9211137  92.2486329  66.6208427  55.8754390  92.2170271  66.5538359
  54.7223660  91.7876952  67.4358653  55.5110519  90.8187445  69.1879225
  56.3303408  91.3131523  69.2114062  55.7847327  89.9019413  69.1596792
  65.2677115  83.2098197  58.5507180  64.3802970  83.4947847  58.3327375
  65.6831104  83.0491960  57.7034457  68.6191651  83.2344718  62.2661519
  69.3952041  83.7241170  62.5386136  67.8939786  83.6602772  62.7233389
  71.0564210  83.9472337  63.3235460  71.6508701  83.7068073  62.6128768
  71.1290794  83.2279468  63.9508996  53.2761366  97.7905948  63.6378625
  53.1415834  97.0306349  63.0716623  52.8593428  98.5146848  63.1707414
  64.4120329  92.9742872  52.6455200  65.1156179  93.1792874  53.2612856
  63.6882977  93.5419633  52.9104284  65.2418139  88.7252733  58.7657470
  65.1853340  89.1821284  57.9265103  65.7946481  87.9643417  58.5880313
  69.0522945  84.5142465  59.5907590  68.7959879  84.1139100  60.4215798
  68.4275813  85.2286259  59.4657729  73.3635283  87.2538538  62.0978881
  72.8034841  87.3231727  62.8710443  72.7578786  87.0779523  61.3778377
  56.4330492  98.6875265  63.8497068  56.3162876  99.6320698  63.7475758
  55.6122938  98.3848827  64.2382867  66.3207026  93.4125401  54.6953660
  67.1552630  92.9806599  54.5131135  66.1591369  93.2407414  55.6230555
  65.9752918  89.9157514  56.0610000  65.9201722  89.7501785  55.1198444
  65.3498974  90.6233547  56.2172189  63.2898825  92.2206426  75.3863562
  64.1589985  92.3947078  75.0250197  62.8105577  93.0400843  75.2639292
  57.4585006  99.3403527  67.0652996  58.3612252  99.3727137  67.3819491
  57.2322376  98.4103978  67.0799332  59.2138608  98.0934513  63.7263075
  58.2634239  98.0936375  63.6127447  59.5171094  97.3467248  63.2099109
  63.1001163  76.0108400  59.8941255  62.3333559  75.4566886  60.0397937
  63.5111868  76.0830268  60.7555406  71.7581007 103.8822480  64.7270362
  71.4199519 103.7663545  63.8390897  72.6270776 103.4813645  64.7071368
  67.6167823 105.7357956  60.7167253  67.0532688 105.6447893  59.9483540
  67.5020218 104.9157861  61.1969745  65.1632255 107.2309148  63.5551473
  65.9553547 106.8899973  63.1397772  65.4028905 107.3404123  64.4753626
  67.1223009 106.4918061  56.4268852  67.8953885 105.9447048  56.2881728
  67.4748408 107.3562311  56.6383313  69.8864258 105.1971292  66.2237111
  70.4827831 104.9727314  65.5094074  69.9439230 104.4556037  66.8262559
  69.4589287 102.6510727  54.0587302  69.7114808 102.1292249  53.2970765
  68.5213846 102.4876873  54.1613985  74.5032570 101.6546506  61.8662045
  75.2895659 101.2365929  61.5152462  74.7671274 102.5592598  62.0343693
  69.1785576 104.5538833  56.2611677  69.0621834 103.8783737  56.9292761
  69.2887835 104.0671207  55.4443830  71.5217117 104.0148980  59.9658366
  71.1575324 103.4879601  60.6771287  72.3784232 103.6247449  59.7924851
  77.4266417  95.3043313  67.2289632  77.0949742  96.1738724  67.0050847
  76.8312031  94.9879597  67.9083663  71.1622603  99.0438880  54.9619714
  71.3297006  99.9119117  55.3290186  70.9719773  99.2066162  54.0381004
  67.3710418 103.9569656  62.6622249  66.4460915 103.8245870  62.8699941
  67.6194831 104.7363875  63.1592192  77.3195080 100.0238399  64.3082982
  76.4111958  99.9553808  64.0141743  77.2682676 100.5010344  65.1364808
  71.1411824 101.4996538  55.9466381  71.0211450 101.9453588  56.7851862
  70.4464413 101.8481855  55.3879919  64.7319229 103.6002929  63.4966038
  64.8611610 103.8537408  64.4105450  64.0516681 104.1930637  63.1770693
  79.1856727  98.2254838  66.0860856  78.5431107  98.5187371  65.4400651
  78.6811655  98.1107758  66.8914053  69.6482319 104.2513498  71.8135846
  70.3897003 104.7898542  71.5370670  68.9419304 104.8779787  71.9707398
  71.4768728 101.3315245  67.7841565  72.3229923 101.7554659  67.9276214
  71.4167366 100.6748870  68.4780128  74.6268174  98.9919614  69.4422739
  74.3829105  99.7461674  68.9057014  74.9028104  99.3704961  70.2769986
  74.1832865  98.1476047  65.0236576  73.3217344  98.4457300  65.3153314
  74.2095300  98.3646446  64.0917609  67.8918516 106.2389719  64.3690145
  68.4619873 106.6676987  63.7307630  68.4826628 105.9572304  65.0674331
  69.9363321 102.8141390  58.2399947  70.6387364 103.2662433  58.7073873
  69.6043949 102.1725209  58.8679840  68.3843682 101.4053146  72.6151156
  67.7542343 102.0869427  72.8486553  68.2779770 101.2936228  71.6704295
  63.6788655 101.0724942  63.5417081  62.8887709 101.3282471  63.0657191
  64.1699902 101.8873280  63.6469121  65.6303400 101.4369522  60.5000557
  64.8334563 101.5488216  61.0184053  65.4028992 101.7756174  59.6341448
  61.9626358 101.3255433  65.9732071  62.2134396 102.2102443  66.2389647
  62.4985906 101.1460034  65.2007163  67.6624425  95.7073912  74.9776407
  67.2691371  95.1540111  75.6524052  68.4790565  96.0184491  75.3682925
  64.6286483 107.1457770  58.8889977  65.1411003 107.9401021  59.0395542
  65.2809196 106.4484061  58.8223579  70.5792386  97.1231791  72.5696664
  71.3202099  97.7238944  72.4901127  70.8110309  96.3809429  72.0114707
  65.7233724 102.3088159  70.8474894  65.6087239 101.4073416  71.1481993
  64.8678242 102.5551855  70.4959710  74.5249549  93.1512894  66.8460946
  74.1813818  94.0414536  66.7700056  74.8928512  92.9614552  65.9830531
  62.5935400 105.4746425  59.6649548  63.4310622 105.8843433  59.4483256
  62.7713667 104.5345867  59.6349742  74.4899832 103.1421505  55.3533381
  73.9746455 103.9126110  55.5921768  74.2177140 102.4686641  55.9766442
  73.6046089  95.5217549  64.8110179  73.1010885  95.4847685  63.9977984
  73.8976696  96.4310292  64.8706836  69.8488975  95.6056279  63.8176361
  70.7141972  95.4099088  63.4582250  69.9166484  95.3766631  64.7445717
  74.2786135 101.0148597  57.1793162  73.9736270 101.3294747  58.0303305
  75.2316577 101.0930017  57.2220495  67.4551294  97.8358487  61.1892728
  68.0295046  97.6133668  60.4565920  68.0422277  97.9047182  61.9421329
  67.7820881  99.8662948  55.2088613  66.9458194 100.2037635  55.5297888
  67.6425651  99.7311928  54.2715750  69.7573962  94.7099736  59.9167797
  69.1038374  94.3948753  59.2924412  69.7154436  94.0875476  60.6427620
  70.8685167 104.9919031  51.8321089  69.9612229 104.7608284  52.0312238
  71.3656199 104.1956650  52.0195071  72.9911702 101.1981669  64.2415445
  72.0734264 101.4196616  64.0837133  73.4071846 101.2727980  63.3827152
  73.7746750 102.5973085  59.3718125  74.5218569 103.1094482  59.0625247
  74.0438340 102.2757138  60.2322518  76.2225587  99.6330201  61.3536914
  75.4848344  99.1207588  61.6847157  76.4752361  99.1930583  60.5420191
  76.3237215  92.4106453  61.9478683  76.6296091  91.5503817  61.6604598
  77.0489819  93.0024074  61.7477677  62.6161571 102.8137140  60.3360281
  62.4185971 102.2206501  59.6111348  62.0608235 102.5089350  61.0536220
  70.5958294 102.7060246  62.4554874  70.6506904 101.7534083  62.3797351
  69.7849496 102.8619686  62.9396173  68.5350654 101.3237306  60.2145253
  67.7218520 101.6231477  60.6210445  69.0309648 100.9292995  60.9319736
  74.1324866 101.7879131  69.0460147  74.4874254 102.0150604  69.9054613
  74.7796997 102.1197507  68.4237403  68.0264729  98.8955662  65.8306488
  68.6664108  98.7544421  65.1329452  67.1942260  98.6090175  65.4545090
  65.1107796 102.3401174  58.0201233  64.1805385 102.2785629  58.2371196
  65.2065268 101.8177127  57.2237875  65.0293345  98.8655987  60.6079475
  65.2900163  99.7801320  60.4988636  65.8510518  98.3980429  60.7576088
  66.5018271 100.2793744  67.7778300  67.1741324 100.0711106  67.1290949
  65.6748057 100.0815830  67.3383532  72.4043843  96.9055685  69.7943961
  71.7571758  97.6045634  69.7008437  73.1744858  97.3391829  70.1620209
  66.9045768 103.5536347  68.5380737  66.7665566 102.8216586  69.1392276
  67.8150692 103.4645247  68.2564925  69.5328069 103.2656306  68.0264416
  70.2427687 102.6249498  67.9851035  69.4897377 103.5169201  68.9490597
  68.2457003 100.2521524  69.8460056  67.7094360  99.8012263  70.4981652
  67.6573711 100.3867433  69.1030520  67.6559262  99.7110175  52.4086520
  66.7788728  99.5898976  52.0448766  68.1317015  98.9196254  52.1565408
  59.1761402 104.4987335  62.5028027  59.8632442 104.1849065  61.9149042
  59.0209530 105.4028700  62.2295278  63.9796124  99.3877532  66.9313050
  63.8954313  98.7803201  66.1963460  63.1578830  99.8786550  66.9322547
  74.1519838  97.8731095  62.2983245  74.6488537  97.1201058  61.9784316
  73.3806819  97.9095412  61.7326455  70.7354807 100.0148478  62.0254930
  70.3652594  99.4619519  62.7135836  71.2313899  99.4106612  61.4729930
  76.5938833  94.8400689  64.4462604  75.6801912  95.0704916  64.6144811
  77.0231934  94.9239133  65.2976637  58.7529378 102.5787929  64.7745494
  58.7913477 102.0451519  65.5682612  58.2469671 102.0523134  64.1556471
  66.1320140  97.4252469  68.2708036  66.1961467  98.2867300  67.8585434
  66.0687260  96.8126471  67.5380395  65.6072413  99.4975602  71.9181070
  66.2344452  99.1152679  72.5318595  64.7500332  99.2789804  72.2836763
  62.3837955 101.3052031  57.8499425  62.6791397 100.3962709  57.7966479
  61.4825991 101.2839770  57.5280428  68.7158516  96.7162454  70.1067626
  69.2392918  96.9624750  70.8693935  68.4970849  97.5482489  69.6870763
  64.1125797  98.9866128  57.9738750  63.7838503  98.1063507  57.7913856
  64.4665168  98.9313797  58.8615140  67.2267620  99.2739098  58.3414228
  67.5663693  99.8025019  57.6192836  67.6739741  99.6119504  59.1172795
  69.9211061  97.6576149  67.7917296  69.5807881  96.8583962  68.1937976
  69.2150067  97.9577860  67.2194129  70.5727533  94.7425461  66.2444619
  71.3953602  94.2685940  66.1223509  70.8165596  95.5215945  66.7443305
  69.2135767  97.7713720  56.5407521  69.9344130  98.1494973  56.0371238
  68.5901071  98.4902597  56.6442499  73.3566890  98.4758869  57.4765853
  73.5730505  99.3583507  57.1754681  72.8760957  98.0845082  56.7471495
  68.0966112 101.4344582  64.0536598  67.9510692 101.7484885  64.9460879
  67.6191315 102.0529482  63.5007496  69.9562495  98.4247130  64.1017487
  69.9424063  97.5288223  63.7649785  70.6734923  98.4317794  64.7355773
  71.8088625  98.8584470  66.1470615  71.5506403  99.7801541  66.1454945
  71.2773666  98.4614905  66.8371079  62.5711774 103.9749926  66.9924259
  62.0265242 104.7509734  67.1244533  63.4491124 104.3220731  66.8343380
  69.3599390  97.3061510  59.3705057  69.4815302  96.3778156  59.5695945
  69.0701433  97.3200196  58.4583373  72.2290581  94.9916421  62.5071777
  72.2512278  95.0555754  61.5523757  72.6458640  94.1520929  62.7012283
  63.3577796 103.1019823  69.8854416  62.6159532 103.2502458  70.4719046
  63.0370540 103.3628088  69.0221165  68.8440470  98.8193508  73.5794990
  68.8928625  99.6955630  73.1972760  69.3862984  98.2770901  73.0066633
  71.0739758  99.5724880  70.3341349  70.2043068  99.8658446  70.0623937
  71.3099239 100.1565325  71.0548612  66.0882082 104.9180821  58.4682013
  65.8428124 104.0143151  58.6662224  66.2577997 104.9197971  57.5261491
  73.7778792  95.7904497  67.8506769  74.2960736  96.5265524  67.5253258
  73.4233925  96.0968490  68.6853528  65.3577730 100.6509178  55.9668175
  64.6646975 100.7253533  55.3108211  65.1129482  99.8869522  56.4889692
  74.0291386  92.2104779  63.3707666  74.3093140  91.5427969  63.9968092
  74.8141993  92.4033875  62.8582330  75.9214624  97.7177997  67.3038642
  75.3264556  97.9983009  66.6085130  75.6364321  98.2071898  68.0755383
  72.2171653 102.7224586  52.2748744  73.1630758 102.5930794  52.3437163
  71.8385898 101.9839248  52.7518173  78.1893538  94.3880592  62.2375636
  77.9918359  94.0795680  63.1218968  78.7993244  95.1142231  62.3673566
  70.4014571 100.6474562  52.2103630  69.4946026 100.3507675  52.2866343
  70.6790552 100.3504381  51.3437916  61.3192511 101.9680926  62.6602676
  60.9995295 101.1146234  62.3677050  60.7725939 102.1829504  63.4160643
  65.0972419 104.6843367  66.3772183  65.3158428 105.6160475  66.3960216
  65.5098192 104.3251341  67.1626986  72.0176636  95.1911452  58.3647871
  71.2077365  94.8458537  58.7403117  72.7061053  94.8818996  58.9535483
  73.9467185  94.2689499  59.9872168  74.4998223  94.6884952  60.6462191
  74.1837271  93.3425247  60.0295124  69.1713355  97.5061498  52.3515609
  70.0332519  97.8316396  52.6111426  69.3563699  96.7192994  51.8388675
  61.1880771 105.5883837  64.6295798  60.4944242 105.1737790  64.1165752
  61.9353762 105.6304374  64.0329217  77.3245992  96.3790024  59.4950832
  76.7444661  97.0374828  59.1128884  77.0581924  95.5567369  59.0838249
  75.7749558  95.7795082  61.6972152  76.2749336  95.8911616  60.8886471
  76.4185166  95.4756135  62.3372961  63.1017513 105.5202091  62.5061813
  63.0788202 105.6189778  61.5543696  63.4118150 106.3667242  62.8278979
  65.7604891 107.5778246  66.6208427  66.7148145 107.5462189  66.5538359
  65.5617415 107.1168870  67.4358653  66.3504273 106.1479362  69.1879225
  67.1697162 106.6423441  69.2114062  66.6241081 105.2311330  69.1596792
  76.1070870  98.5390115  58.5507180  75.2196725  98.8239765  58.3327375
  76.5224859  98.3783878  57.7034457  79.4585406  98.5636636  62.2661519
  80.2345796  99.0533088  62.5386136  78.7333540  98.9894690  62.7233389
  61.6039188 100.4817496  69.8871422  62.2498051  99.9716450  70.3758647
  61.3956339 101.2186178  70.4614847  70.1242798  94.7457541  55.6395318
  70.1121468  95.6899381  55.7963589  71.0166220  94.5627686  55.3454779
  73.9394918  91.3400317  59.8941255  73.1727313  90.7858804  60.0397937
  74.3505623  91.4122186  60.7555406  65.9436679  97.6285113  73.9846436
  66.8068140  97.2721918  74.1949761  65.3702089  97.2899008  74.6721840
  20.7522530   4.2897586  51.5154144  21.3900940   4.1704333  50.8117484
  20.6343373   5.2378430  51.5742096  17.5612236   4.2425014  51.4515668
  17.2230748   4.1266079  50.5636203  18.4302004   3.8416179  51.4316674
  18.0432019   5.3959866  57.4101874  18.0320660   5.0012664  56.5382377
  18.2052659   4.6625939  58.0035645  18.9998611   9.7631458  42.7527024
  18.3486590  10.3485539  42.3661038  19.7942973  10.2937653  42.8122062
  12.9254238   6.8520595  43.1514158  13.6985114   6.3049583  43.0127034
  13.2779637   7.7164845  43.3628620  14.7639280   8.1796978  56.3581058
  14.4729146   9.0842609  56.2427724  15.3996265   8.2213505  57.0725127
  15.6895487   5.5573826  52.9482417  16.2859059   5.3329849  52.2339380
  15.7470459   4.8158572  53.5507865  20.3063798   2.0149040  48.5907352
  21.0926888   1.5968463  48.2397769  20.5702503   2.9195132  48.7589000
  20.4773876   7.4521890  43.2896008  19.8419709   7.5256517  44.0016913
  20.1471282   8.0415489  42.6115088  25.7072226   1.9524273  49.4940330
  26.4397398   1.3823490  49.7278160  24.9511581   1.5645874  49.9346836
  17.3248345   4.3751515  46.6903673  16.9606553   3.8482136  47.4016594
  18.1815461   3.9849984  46.5170158  19.7229165   7.8658393  53.3530851
  19.4229889   8.7683432  53.2446659  19.3780225   7.5990576  54.2052004
  23.1226309   0.3840933  51.0328289  22.2143187   0.3156342  50.7387050
  23.0713905   0.8612878  51.8610114  14.7049945  14.6302714  46.3201819
  14.6273975  15.5810539  46.3990300  14.1011589  14.2848586  46.9776745
  24.9887956  -1.4142628  52.8106163  24.3462336  -1.1210095  52.1645957
  24.4842884  -1.5289708  53.6159359  22.6428119   2.3320545  43.4992022
  23.5545975   2.5647932  43.3239720  22.1337766   2.9157589  42.9367101
  15.4513547   4.6116032  58.5381153  16.1928232   5.1501076  58.2615977
  14.7450533   5.2382321  58.6952705  20.9268887   6.7545173  57.1353315
  21.3352243   6.3127583  56.3907947  20.2046148   6.1797800  57.3887507
  21.2497702   7.3146363  50.8905603  20.6206564   7.4792078  50.1881671
  20.8623364   7.7287973  51.6616567  25.1286934   8.2500801  48.2449967
  24.4437972   8.6299703  47.6947001  25.2130783   8.8596128  48.9781915
  22.3837865   5.8960760  54.8445311  22.5954760   6.5392520  54.1679692
  22.3367613   5.0623077  54.3767241  16.8025664   7.0520772  48.1555689
  17.2664009   7.3308475  47.3660311  16.5382462   6.1504216  47.9728779
  13.6949745   6.5992253  51.0935452  14.2651102   7.0279521  50.4552936
  14.2857856   6.3174838  51.7919637  23.4983693   8.7732716  53.0167668
  24.3201137   8.3712903  52.7350350  23.4946096   8.6700950  53.9683784
  17.2640297   8.3216759  55.1728379  17.3284729   8.7837166  56.0086550
  16.5551220   7.6914124  55.3010688  31.5889686   5.1171464  49.3652640
  30.8353395   4.5478862  49.2096644  31.7237227   5.0834129  50.3123274
  16.9788314   9.9884867  45.0407359  16.8433989  10.8336402  45.4692207
  17.5198127  10.1904144  44.2773293  12.2412596  10.6226061  47.6958037
  12.4179225  11.5444026  47.5079021  13.0369430  10.3084480  48.1252417
  18.6056791  10.6108433  59.1707701  18.1620645   9.8244812  58.8528605
  19.2674004  10.7987584  58.5051592  13.3643912  12.1404235  53.6968380
  13.9151337  12.0121298  52.9245373  12.5255388  12.4399124  53.3463272
  20.7038029  10.8911233  57.1989102  20.6856504  11.7120114  56.7069371
  21.6257949  10.7665308  57.4239243  17.1611083   8.4055362  58.0412611
  17.6939420   7.6443651  57.8111919  16.6325164   8.1129014  58.7836765
  20.2931060   3.5024040  42.0778687  19.7777684   4.2728644  42.3167075
  20.0208369   2.8289176  42.7011749  25.2665335   6.2556394  44.0131861
  24.4894777   5.9167554  43.5687023  25.9456816   6.2609017  43.3386826
  20.0817364   1.3751132  43.9038469  19.7767499   1.6897281  44.7548612
  21.0347806   1.4532552  43.9465802  18.5263796   7.5341355  45.5531423
  17.9985157   6.7994115  45.2404660  18.0251298   8.3116031  45.3071391
  23.5056642   5.7290375  50.6698469  22.8480316   6.4189637  50.7578598
  24.3097041   6.1186807  51.0132455  22.3162100   4.0834748  48.7202411
  22.8293982   4.7164740  49.2224120  22.9663324   3.4835944  48.3545771
  16.6716396   5.3521565  38.5566396  15.7643457   5.1210819  38.7557545
  17.1687428   4.5559184  38.7440377  19.5784475  14.0619072  41.4763082
  18.9046173  14.3650769  42.0848040  19.9650297  14.8648153  41.1268539
  19.5777979   2.9575619  46.0963431  20.3249798   3.4697017  45.7870554
  19.8469568   2.6359672  46.9567825  17.8504629   5.4534160  43.0790386
  16.9415848   5.1693193  43.1762856  17.8799713   5.8733239  42.2193693
  23.0823897   9.0640750  46.8481553  22.6286224   8.2231659  46.9046744
  22.4517863   9.7002148  47.1856333  21.5256836  10.9017246  47.7831371
  21.8179810  11.4622303  47.0643737  22.0355456  11.1945807  48.5384531
  17.5480717   6.9942904  40.4178464  17.1100147   6.2778763  39.9584102
  18.2891158   7.2219019  39.8563556  16.4890461  11.6797597  48.8724825
  16.4466640  11.9058444  47.9433357  17.4053160  11.4460972  49.0210626
  19.9356095   2.1481665  55.7705454  20.2905482   2.3753138  56.6299920
  20.5828226   2.4800042  55.1482709  25.6653832   5.2700101  46.4754783
  25.5271730   5.4601697  45.5475972  25.3090051   6.0319484  46.9322834
  25.6923211   7.3376628  51.4866054  26.1259718   7.2451917  52.3349108
  26.4054792   7.3134128  50.8486070  14.6056262   8.5560626  48.6686787
  15.3996860   8.0610946  48.4669362  13.8947954   8.0278489  48.3054493
  19.4251106  10.9378722  53.0199155  19.4788128  11.5069658  53.7876871
  18.5565888  11.1080607  52.6553192  26.5538761   7.3800328  54.0198940
  26.7474651   8.2846139  54.2658215  26.4539379   6.9207748  54.8537525
  21.6153870   7.5307071  59.5939820  21.4639376   7.3017623  58.6769904
  21.6058549   8.4877673  59.6071165  18.3839206   5.1038984  54.5786087
  19.3131266   5.2550144  54.4055054  17.9630236   5.1923005  53.7234733
  17.1827538   9.1289648  52.3484624  17.0438623   8.7608433  53.2210563
  16.3942134   9.6437288  52.1768582  17.7775690  14.2298745  43.6910161
  17.9527445  13.7586788  44.5055784  17.0908478  14.8564511  43.9191422
  18.7332753   8.5071251  49.7373462  18.3982585   8.4672021  50.6331112
  18.2336699   7.8415967  49.2643873  21.6691945   5.8527285  40.0110522
  21.0521115   5.1274114  39.9143575  21.2008433   6.6136646  39.6677596
  23.3246076  10.5626194  57.6716302  23.2658622   9.8785414  57.0046885
  23.7265595  11.3045184  57.2196928  12.3436775  17.3788108  50.4650021
  12.5833373  18.0106632  51.1429040  11.5005971  17.0276148  50.7515380
  23.3263483   8.5265778  55.9030282  22.4390262   8.1891699  56.0256681
  23.8962035   7.7948809  56.1399047  16.8564637  13.1867230  52.8691525
  16.7834808  13.9922202  53.3810830  16.4142030  13.3859196  52.0439547
  16.6454416  12.4239000  46.3794347  15.8621938  12.9660680  46.4732571
  17.3447162  12.9412980  46.7788588  27.8080824   3.9373995  50.6646844
  27.7970700   4.8198710  50.2940777  26.9398203   3.5845546  50.4701381
  19.3163320  13.0854064  55.0249684  20.0291293  13.7201529  54.9525585
  18.8253349  13.1817930  54.2089686  21.0380847   6.9905317  46.5966976
  20.1037126   7.1106779  46.4271680  21.2157516   6.0877783  46.3326985
  24.4253399   2.8322636  47.1317010  24.8913851   3.6650628  47.0577312
  24.8760899   2.3667618  47.8362268  14.3675234  10.8348508  55.8455255
  15.0684693  11.4684990  55.9984649  13.8970349  11.1763239  55.0850894
  22.4929630   9.1766457  44.1303162  22.7689474   9.0623052  45.0397036
  21.6234128   8.7783942  44.0915335  22.1676520   3.3893115  53.6707805
  21.5147970   3.6369022  53.0160258  22.5456900   2.5757253  53.3370282
  19.1283694  13.4252808  47.7735975  19.3106088  12.6074464  48.2363728
  19.9516680  13.6420500  47.3360865  19.4625859  12.3520993  45.0351024
  19.9913626  11.8413448  44.4221186  19.7254079  12.0363523  45.8996557
  18.2164093   4.1312926  60.1573842  17.5404730   4.0307055  60.8276217
  19.0391727   3.9752140  60.6209839   9.9642952  10.3684863  52.7786357
  10.5496389   9.6228550  52.9114262   9.7667790  10.6788819  53.6623021
  12.8181607  13.4036110  47.7948800  12.1491982  13.8882238  47.3112840
  12.6794477  13.6505330  48.7092178  16.9586876  15.4379853  54.3931458
  17.5105184  15.6011475  55.1580543  17.2993069  16.0284291  53.7211483
  21.8097750  10.2641111  60.2480113  22.3537654  10.8771069  59.7535067
  21.2284595  10.8220689  60.7647126  20.0955263  13.3861829  51.3795140
  19.9706403  12.5851569  50.8706086  20.7534354  13.8808022  50.8909110
  22.1590171  11.1870849  53.0074690  21.2120507  11.0676200  52.9353017
  22.5072945  10.2993347  53.0900952  19.1636605  10.9823565  49.2079043
  19.0161567  10.0540273  49.3886613  19.9890098  11.0043656  48.7236118
  22.7670727  11.8052124  50.2943915  23.6917274  11.5994985  50.1568366
  22.5986030  11.5568525  51.2033257  22.5566043  12.3237791  45.6506007
  22.7302920  11.7584214  44.8979859  23.0494934  13.1238686  45.4685497
  28.4105434   5.0874214  47.2696307  28.8536580   4.3381540  46.8715430
  27.5331944   5.0784351  46.8870038  23.5441215  11.6404556  42.7502905
  24.2392120  12.2611249  42.9690220  23.8864365  10.7899907  43.0255283
  25.4432638   9.0904261  44.2790236  25.9683962   9.4291534  43.5539556
  25.3554991   8.1551277  44.0953370  17.1052687  13.0038335  56.4080112
  17.4139814  12.7587482  57.2802812  17.9028169  13.2084974  55.9198983
  17.1273299  15.1576245  48.6385489  16.6878289  14.6652623  49.3318346
  17.8781416  14.6149212  48.3977564   9.6065638  11.3487786  48.6410117
  10.4323658  11.0491557  48.2608761   9.2559690  10.5795408  49.0899906
  14.5747171  10.7014254  50.7107791  13.9527181  10.0384959  50.4110019
  15.2452038  10.7275386  50.0281438  25.1326544   9.7237165  59.5841434
  24.3422088   9.7061304  59.0445933  24.8959899  10.2625459  60.3390470
  25.2524420   6.5729631  56.8974162  25.3022424   6.4079639  57.8389685
  25.1438343   5.7056890  56.5072043  14.1360678   9.2518177  44.1866251
  14.2848799   9.9353642  43.5332924  14.9427122   9.2323267  44.7015707
  22.5428182   2.5560559  58.2133469  23.4438045   2.4167024  57.9217467
  22.6176156   2.7215014  59.1531646  26.7542616   8.9926573  57.1416184
  26.4627425   9.3556553  57.9779645  26.1414748   8.2793581  56.9629516
  27.9538299   6.5579453  49.6618754  28.7885190   6.9969257  49.8256314
  28.0897427   6.0818106  48.8427000  25.0029805   4.1159188  55.6096242
  25.4783926   4.3086834  54.8015093  24.0795370   4.1718373  55.3639626
  17.6356084  11.7466308  41.6577999  17.0630051  12.3656495  41.2048471
  18.2088877  12.2965669  42.1917921  23.7031474   0.9924948  53.8424547
  24.6548896   1.0923045  53.8636771  23.5334924   0.2003216  54.3522632
  20.8553344  12.0303458  42.7886581  21.7884017  11.9649019  42.9919456
  20.7676556  12.8659725  42.3301114  23.4841360  11.3469328  39.7490528
  23.4054992  11.0129192  40.6426286  24.3051027  11.8391096  39.7482001
  26.1819551   4.2131067  52.9566847  26.1495871   3.2747068  53.1426531
  26.7920175   4.2915104  52.2232672  26.3314040   1.0042111  53.0025130
  25.8153089   0.2200567  52.8155059  27.2153988   0.6760827  53.1671650
  31.9996101   5.2747074  52.0972884  32.7299490   5.0132362  52.6580587
  31.3903047   4.5375796  52.1374952  30.0811398   3.4154937  52.6947335
  29.3544562   3.2810902  52.0863827  29.6658685   3.7231765  53.5004053
  17.9041575   7.1344866  60.4594708  18.8244584   7.3123465  60.6534755
  17.8691158   6.1900912  60.3074407  11.5636120   7.9380780  53.3453734
  12.5179374   7.9064723  53.2783665  11.3648644   7.4771404  54.1603960
  25.2616635  -1.0760830  48.9906826  26.0377025  -0.5864378  49.2631443
  24.5364769  -0.6502776  49.4478696  27.6989193  -0.3633211  50.0480767
  28.2933684  -0.6037475  49.3374075  27.7715777  -1.0826080  50.6754303
   9.9186349  13.4800400  50.3623932   9.7840817  12.7200801  49.7961930
   9.5018411  14.2041300  49.8952720  21.0545312   8.6637323  39.3700507
  21.7581162   8.8687326  39.9858162  20.3307961   9.2314085  39.6349590
  21.8843122   4.4147185  45.4902777  21.8278324   4.8715736  44.6510409
  22.4371465   3.6537869  45.3125620  25.6947928   0.2036917  46.3152896
  25.4384862  -0.1966448  47.1461104  25.0700796   0.9180711  46.1903036
  30.0060266   2.9432990  48.8224188  29.4459824   3.0126179  49.5955750
  29.4003769   2.7673974  48.1023684  13.0755475  14.3769717  50.5742374
  12.9587859  15.3215149  50.4721064  12.2547921  14.0743278  50.9628173
  22.9632009   9.1019853  41.4198967  23.7977613   8.6701051  41.2376442
  22.8016352   8.9301866  42.3475861  22.6177902   5.6051966  42.7855306
  22.5626705   5.4396237  41.8443750  21.9923957   6.3127999  42.9417496
  19.9323809   7.9100878  62.1108869  20.8014968   8.0841530  61.7495504
  19.4530560   8.7295295  61.9884598  14.1009989  15.0297979  53.7898303
  15.0037236  15.0621589  54.1064798  13.8747359  14.0998430  53.8044638
  15.8563591  13.7828965  50.4508381  14.9059222  13.7830827  50.3372753
  16.1596077  13.0361700  49.9344416  31.5916284  19.6189504  51.5154144
  32.2294694  19.4996251  50.8117484  31.4737127  20.5670348  51.5742096
  28.4005991  19.5716932  51.4515668  28.0624502  19.4557997  50.5636203
  29.2695759  19.1708097  51.4316674  24.2592806  21.4252408  47.4412559
  23.6957672  21.3342345  46.6728847  24.1445201  20.6052313  47.9215052
  28.8825774  20.7251784  57.4101874  28.8714415  20.3304582  56.5382377
  29.0446413  19.9917856  58.0035645  21.8057238  22.9203600  50.2796780
  22.5978530  22.5794425  49.8643079  22.0453889  23.0298575  51.1998933
  23.7647992  22.1812513  43.1514158  24.5378868  21.6341500  43.0127034
  24.1173391  23.0456762  43.3628620  25.6033035  23.5088895  56.3581058
  25.3122901  24.4134526  56.2427724  26.2390019  23.5505423  57.0725127
  26.5289242  20.8865744  52.9482417  27.1252814  20.6621766  52.2339380
  26.5864213  20.1450489  53.5507865  26.1014270  18.3405179  40.7832608
  26.3539791  17.8186701  40.0216071  25.1638829  18.1771325  40.8859292
  31.1457553  17.3440958  48.5907352  31.9320642  16.9260381  48.2397769
  31.4096257  18.2487050  48.7589000  36.5465980  17.2816191  49.4940330
  37.2791152  16.7115408  49.7278160  35.7905336  16.8937791  49.9346836
  25.8210559  20.2433285  42.9856983  25.7046817  19.5678189  43.6538068
  25.9312819  19.7565659  42.1689136  28.1642100  19.7043432  46.6903673
  27.8000307  19.1774053  47.4016594  29.0209216  19.3141901  46.5170158
  34.0691400  10.9937765  53.9534939  33.7374725  11.8633176  53.7296154
  33.4737014  10.6774049  54.6328969  27.8047587  14.7333332  41.6865021
  27.9721989  15.6013568  42.0535492  27.6144756  14.8960614  40.7626310
  30.5622920  23.1950311  53.3530851  30.2623643  24.0975350  53.2446659
  30.2173979  22.9282494  54.2052004  24.0135401  19.6464108  49.3867556
  23.0885898  19.5140322  49.5945248  24.2619815  20.4258327  49.8837498
  33.9620064  15.7132851  51.0328289  33.0536941  15.6448260  50.7387050
  33.9107660  16.1904796  51.8610114  27.7836808  17.1890989  42.6711688
  27.6636433  17.6348040  43.5097168  27.0889396  17.5376307  42.1125226
  21.3744212  19.2897381  50.2211345  21.5036594  19.5431860  51.1350757
  20.6941664  19.8825089  49.9016000  28.0360930  17.1322497  58.9763186
  27.2594264  17.6916417  58.9666051  28.6751493  17.6179280  59.4978056
  35.8281710  13.9149289  52.8106163  35.1856090  14.2081823  52.1645957
  35.3236639  13.8002210  53.6159359  33.4821874  17.6612463  43.4992022
  34.3939730  17.8939849  43.3239720  32.9731521  18.2449507  42.9367101
  26.2907302  19.9407950  58.5381153  27.0321986  20.4792994  58.2615977
  25.5844287  20.5674239  58.6952705  31.7662641  22.0837091  57.1353315
  32.1745998  21.6419501  56.3907947  31.0439903  21.5089718  57.3887507
  28.1193712  17.0209697  54.5086872  28.9654907  17.4449111  54.6521521
  28.0592349  16.3643322  55.2025435  32.0891456  22.6438281  50.8905603
  31.4600319  22.8083995  50.1881671  31.7017118  23.0579891  51.6616567
  35.9680688  23.5792719  48.2449967  35.2831726  23.9591620  47.6947001
  36.0524537  24.1888046  48.9781915  31.2693157  14.6814066  56.1668045
  31.0254089  15.4356126  55.6302321  31.5453087  15.0599413  57.0015292
  33.2231620  21.2252678  54.8445311  33.4348515  21.8684438  54.1679692
  33.1761368  20.3914995  54.3767241  30.8257849  13.8370499  51.7481883
  29.9642328  14.1351752  52.0398620  30.8520283  14.0540898  50.8162916
  27.6419418  22.3812689  48.1555689  28.1057764  22.6600392  47.3660311
  27.3776216  21.4796134  47.9728779  24.5343499  21.9284171  51.0935452
  25.1044856  22.3571439  50.4552936  25.1251611  21.6466755  51.7919637
  26.5788304  18.5035842  44.9645254  27.2812347  18.9556885  45.4319180
  26.2468933  17.8619660  45.5925147  25.0268666  17.0947598  59.3396463
  24.3967326  17.7763879  59.5731860  24.9204753  16.9830680  58.3949601
  20.3213638  16.7619394  50.2662387  19.5312692  17.0176923  49.7902498
  20.8124885  17.5767732  50.3714428  34.3377448  24.1024633  53.0167668
  35.1594891  23.7004821  52.7350350  34.3339850  23.9992868  53.9683784
  22.2728383  17.1263973  47.2245864  21.4759547  17.2382668  47.7429360
  22.0453976  17.4650626  46.3586754  28.1034051  23.6508677  55.1728379
  28.1678484  24.1129084  56.0086550  27.3944975  23.0206042  55.3010688
  18.6051341  17.0149885  52.6977378  18.8559379  17.8996895  52.9634954
  19.1410889  16.8354486  51.9252470  42.4283441  20.4463382  49.3652640
  41.6747149  19.8770780  49.2096644  42.5630982  20.4126046  50.3123274
  27.8182069  25.3176784  45.0407359  27.6827743  26.1628320  45.4692207
  28.3591881  25.5196062  44.2773293  24.3049408  11.3968364  61.7021714
  23.9116354  10.8434563  62.3769358  25.1215549  11.7078943  62.0928232
  21.2711466  22.8352222  45.6135284  21.7835987  23.6295472  45.7640849
  21.9234179  22.1378513  45.5468885  23.0806351  25.9517979  47.6958037
  23.2572979  26.8735943  47.5079021  23.8763184  25.6376398  48.1252417
  27.2217369  12.8126243  59.2941971  27.9627083  13.4133396  59.2146433
  27.4535292  12.0703881  58.7360013  22.3658707  17.9982610  57.5720200
  22.2512222  17.0967868  57.8727299  21.5103225  18.2446307  57.2205017
  24.2037666  27.4696152  53.6968380  24.7545091  27.3413216  52.9245373
  23.3649142  27.7691041  53.3463272  28.0004837  23.7347280  58.0412611
  28.5333174  22.9735568  57.8111919  27.4718918  23.4420932  58.7836765
  31.1674532   8.8407346  53.5706252  30.8238802   9.7308988  53.4945363
  31.5353495   8.6509004  52.7075837  19.2360383  21.1640877  46.3894855
  20.0735605  21.5737885  46.1728562  19.4138651  20.2240319  46.3595048
  31.1324815  18.8315957  42.0778687  30.6171438  19.6020562  42.3167075
  30.8602123  18.1581093  42.7011749  28.7171926  13.6765658  47.1363926
  27.8613522  13.2872508  46.9569565  29.1298878  13.7557619  46.2763711
  30.2471073  11.2112001  51.5355486  29.7435868  11.1742136  50.7223291
  30.5401680  12.1204744  51.5952142  26.4913959  11.2950731  50.5421667
  27.3566955  11.0993540  50.1827557  26.5591467  11.0661083  51.4691024
  36.1059089  21.5848312  44.0131861  35.3288532  21.2459471  43.5687023
  36.7850570  21.5900935  43.3386826  30.9211118  16.7043049  43.9038469
  30.6161254  17.0189198  44.7548612  31.8741560  16.7824469  43.9465802
  29.3657550  22.8633273  45.5531423  28.8378912  22.1286032  45.2404660
  28.8645053  23.6407949  45.3071391  34.3450396  21.0582293  50.6698469
  33.6874070  21.7481554  50.7578598  35.1490795  21.4478725  51.0132455
  24.0976278  13.5252939  47.9138034  24.6720030  13.3028120  47.1811227
  24.6847260  13.5941633  48.6666635  33.1555855  19.4126666  48.7202411
  33.6687737  20.0456658  49.2224120  33.8057079  18.8127861  48.3545771
  24.4245865  15.5557400  41.9333919  23.5883177  15.8932086  42.2543194
  24.2850634  15.4206380  40.9961056  26.3998945  10.3994188  46.6413104
  25.7463358  10.0843205  46.0169718  26.3579419   9.7769928  47.3672927
  27.5110150  20.6813483  38.5566396  26.6037212  20.4502736  38.7557545
  28.0081182  19.8851102  38.7440377  29.6336686  16.8876121  50.9660751
  28.7159247  17.1091068  50.8082439  30.0496829  16.9622432  50.1072459
  30.4171733  18.2867537  46.0963431  31.1643552  18.7988934  45.7870554
  30.6863323  17.9651590  46.9567825  28.6898384  20.7826078  43.0790386
  27.7809603  20.4985111  43.1762856  28.7193467  21.2025156  42.2193693
  33.9217651  24.3932667  46.8481553  33.4679978  23.5523577  46.9046744
  33.2911618  25.0294066  47.1856333  32.8650571  15.3224653  48.0782221
  32.1273327  14.8102039  48.4092463  33.1177344  14.8825035  47.2665498
  32.3650590  26.2309164  47.7831371  32.6573565  26.7914221  47.0643737
  32.8749211  26.5237725  48.5384531  32.9662198   8.1000905  48.6723990
  33.2721075   7.2398269  48.3849905  33.6914803   8.6918525  48.4722984
  19.2586554  18.5031592  47.0605588  19.0610954  17.9100953  46.3356655
  18.7033218  18.1983802  47.7781527  27.2383278  18.3954698  49.1800181
  27.2931887  17.4428535  49.1042658  26.4274480  18.5514137  49.6641480
  28.3874471  22.3234821  40.4178464  27.9493901  21.6070680  39.9584102
  29.1284912  22.5510936  39.8563556  25.1775638  17.0131758  46.9390560
  24.3643503  17.3125929  47.3455752  25.6734632  16.6187447  47.6565042
  27.3284215  27.0089515  48.8724825  27.2860394  27.2350361  47.9433357
  28.2446914  26.7752890  49.0210626  30.7749849  17.4773583  55.7705454
  31.1299237  17.7045056  56.6299920  31.4221980  17.8091959  55.1482709
  36.5047586  20.5992018  46.4754783  36.3665485  20.7893614  45.5475972
  36.1483805  21.3611401  46.9322834  24.6689712  14.5850114  52.5551795
  25.3089092  14.4438873  51.8574758  23.8367243  14.2984627  52.1790397
  36.5316966  22.6668545  51.4866054  36.9653472  22.5743835  52.3349108
  37.2448547  22.6426046  50.8486070  25.4450016  23.8852544  48.6686787
  26.2390615  23.3902864  48.4669362  24.7341709  23.3570407  48.3054493
  30.2644861  26.2670640  53.0199155  30.3181883  26.8361576  53.7876871
  29.3959642  26.4372525  52.6553192  21.7532780  18.0295626  44.7446540
  20.8230368  17.9680081  44.9616502  21.8490252  17.5071579  43.9483181
  21.6718329  14.5550439  47.3324782  21.9325146  15.4695772  47.2233942
  22.4935501  14.0874881  47.4821395  23.1443254  15.9688196  54.5023606
  23.8166308  15.7605558  53.8536255  22.3173041  15.7710282  54.0628839
  29.0468826  12.5950137  56.5189267  28.3996741  13.2940086  56.4253744
  29.8169841  13.0286281  56.8865515  32.4547624  22.8598989  59.5939820
  32.3033130  22.6309541  58.6769904  32.4452304  23.8169590  59.6071165
  29.2232960  20.4330902  54.5786087  30.1525020  20.5842061  54.4055054
  28.8023990  20.5214922  53.7234733  28.0221292  24.4581566  52.3484624
  27.8832378  24.0900350  53.2210563  27.2335888  24.9729205  52.1768582
  29.5726507  23.8363169  49.7373462  29.2376340  23.7963939  50.6331112
  29.0730453  23.1707885  49.2643873  23.5470751  19.2430799  55.2626043
  23.4090549  18.5111038  55.8637582  24.4575675  19.1539699  54.9810231
  32.5085699  21.1819203  40.0110522  31.8914870  20.4566031  39.9143575
  32.0402187  21.9428563  39.6677596  26.1753052  18.9550758  54.7509723
  26.8852671  18.3143950  54.7096342  26.1322360  19.2063653  55.6735904
  24.8881986  15.9415976  56.5705363  24.3519343  15.4906714  57.2226959
  24.2998694  16.0761885  55.8275827  23.1830529  32.7080025  50.4650021
  23.4227128  33.3398549  51.1429040  22.3399726  32.3568065  50.7515380
  24.2984245  15.4004627  39.1331826  23.4213711  15.2793428  38.7694073
  24.7741998  14.6090706  38.8810715  15.8186385  20.1881787  49.2273333
  16.5057425  19.8743517  48.6394349  15.6634514  21.0923152  48.9540585
  20.6221107  15.0771984  53.6558357  20.5379296  14.4697653  52.9208767
  19.8003814  15.5681002  53.6567853  27.6958391  28.5159148  52.8691525
  27.6228563  29.3214119  53.3810830  27.2535784  28.7151114  52.0439547
  27.4848171  27.7530918  46.3794347  26.7015693  28.2952598  46.4732571
  28.1840916  28.2704897  46.7788588  30.7944821  13.5625547  49.0228552
  31.2913521  12.8095510  48.7029622  30.0231803  13.5989864  48.4571761
  38.6474578  19.2665913  50.6646844  38.6364455  20.1490628  50.2940777
  37.7791958  18.9137464  50.4701381  30.1557075  28.4145982  55.0249684
  30.8685047  29.0493447  54.9525585  29.6647104  28.5109848  54.2089686
  31.8774602  22.3197234  46.5966976  30.9430881  22.4398697  46.4271680
  32.0551270  21.4169701  46.3326985  27.3779790  15.7042930  48.7500237
  27.0077577  15.1513971  49.4381142  27.8738882  15.1001064  48.1975237
  35.2647153  18.1614554  47.1317010  35.7307605  18.9942545  47.0577312
  35.7154654  17.6959535  47.8362268  25.2068988  26.1640425  55.8455255
  25.9078448  26.7976908  55.9984649  24.7364103  26.5055157  55.0850894
  33.2363816  10.5295141  51.1707911  32.3226896  10.7599368  51.3390118
  33.6656917  10.6133585  52.0221943  33.0070274  18.7185033  53.6707805
  32.3541725  18.9660940  53.0160258  33.3850654  17.9049171  53.3370282
  29.9677448  28.7544726  47.7735975  30.1499843  27.9366382  48.2363728
  30.7910434  28.9712418  47.3360865  29.0557847  19.4604844  60.1573842
  28.3798484  19.3598973  60.8276217  29.8785481  19.3044057  60.6209839
  20.8036706  25.6976780  52.7786357  21.3890143  24.9520468  52.9114262
  20.6061545  26.0080737  53.6623021  23.6575362  28.7328028  47.7948800
  22.9885737  29.2174155  47.3112840  23.5188231  28.9797248  48.7092178
  15.3954361  18.2682380  51.4990800  15.4338461  17.7345971  52.2927919
  14.8894654  17.7417586  50.8801778  27.7980630  30.7671771  54.3931458
  28.3498938  30.9303393  55.1580543  28.1386824  31.3576209  53.7211483
  22.7745123  13.1146921  54.9953343  22.8386450  13.9761752  54.5830740
  22.7112244  12.5020923  54.2625701  22.2497396  15.1870053  58.6426377
  22.8769435  14.8047131  59.2563901  21.3925315  14.9684255  59.0082070
  19.0262939  16.9946483  44.5744732  19.3216380  16.0857161  44.5211786
  18.1250975  16.9734222  44.2525734  30.9349018  28.7153747  51.3795140
  30.8100157  27.9143487  50.8706086  31.5928109  29.2099940  50.8909110
  22.5557186  15.0702479  50.5572280  21.8343772  15.6838447  50.4179754
  23.3450442  15.6060244  50.4788926  25.3583499  12.4056906  56.8312932
  25.8817901  12.6519202  57.5939242  25.1395833  13.2376940  56.4116070
  20.7550780  14.6760580  44.6984057  20.4263487  13.7957959  44.5159163
  21.1090151  14.6208249  45.5860446  30.0030359  26.3115483  49.2079043
  29.8555322  25.3832190  49.3886613  30.8283853  26.3335574  48.7236118
  23.8692604  14.9633550  45.0659535  24.2088676  15.4919471  44.3438143
  24.3164724  15.3013956  45.8418101  33.6064481  27.1344042  50.2943915
  34.5311029  26.9286903  50.1568366  33.4379784  26.8860443  51.2033257
  26.5636044  13.3470601  54.5162603  26.2232865  12.5478414  54.9183283
  25.8575051  13.6472312  53.9439436  27.2152516  10.4319913  52.9689926
  28.0378585   9.9580391  52.8468816  27.4590580  11.2110397  53.4688612
  25.8560751  13.4608172  43.2652827  26.5769113  13.8389424  42.7616544
  25.2326055  14.1797048  43.3687805  29.9991874  14.1653321  44.2011160
  30.2155488  15.0477958  43.8999988  29.5185941  13.7739534  43.4716802
  24.7391095  17.1239034  50.7781904  24.5935676  17.4379337  51.6706186
  24.2616299  17.7423934  50.2252803  26.5987478  14.1141582  50.8262794
  26.5849047  13.2182675  50.4895092  27.3159906  14.1212246  51.4601080
  28.4513609  14.5478922  52.8715921  28.1931386  15.4695993  52.8700252
  27.9198649  14.1509357  53.5616386  19.2136757  19.6644378  53.7169566
  18.6690225  20.4404186  53.8489840  20.0916107  20.0115183  53.5588687
  26.0024374  12.9955962  46.0950364  26.1240285  12.0672608  46.2941252
  25.7126416  13.0094648  45.1828680  28.8715564  10.6810873  49.2317084
  28.8937261  10.7450206  48.2769063  29.2883623   9.8415381  49.4257590
  39.2499188  20.4166132  47.2696307  39.6930334  19.6673457  46.8715430
  38.3725699  20.4076268  46.8870038  20.0002779  18.7914275  56.6099722
  19.2584515  18.9396910  57.1964353  19.6795523  19.0522540  55.7466472
  27.9446442  28.3330253  56.4080112  28.2533568  28.0879400  57.2802812
  28.7421924  28.5376891  55.9198983  27.9667054  30.4868162  48.6385489
  27.5272044  29.9944541  49.3318346  28.7175171  29.9441130  48.3977564
  20.4459393  26.6779703  48.6410117  21.2717413  26.3783475  48.2608761
  20.0953445  25.9087326  49.0899906  25.4140926  26.0306171  50.7107791
  24.7920935  25.3676876  50.4110019  26.0845793  26.0567303  50.0281438
  18.6467998  24.5966030  49.5999051  17.8099906  24.1688204  49.4183052
  18.6191643  24.7898473  50.5369842  25.4865453  14.5087959  60.3040297
  25.5353609  15.3850082  59.9218066  26.0287967  13.9665353  59.7311940
  24.9754433  24.5810095  44.1866251  25.1242553  25.2645559  43.5332924
  25.7820876  24.5615185  44.7015707  33.3821936  17.8852477  58.2133469
  34.2831799  17.7458942  57.9217467  33.4569911  18.0506932  59.1531646
  27.7164742  15.2619332  57.0586655  26.8468051  15.5552898  56.7869244
  27.9524222  15.8459777  57.7793919  38.7932053  21.8871370  49.6618754
  39.6278945  22.3261174  49.8256314  38.9291182  21.4110024  48.8427000
  22.7307066  20.6075272  45.1927320  22.4853108  19.7037602  45.3907530
  22.9002980  20.6092423  44.2506798  30.4203776  11.4798949  54.5752076
  30.9385719  12.2159976  54.2498564  30.0658908  11.7862942  55.4098835
  22.0002713  16.3403630  42.6913482  21.3071958  16.4147985  42.0353518
  21.7554465  15.5763974  43.2134999  30.6716370   7.8999231  50.0952972
  30.9518124   7.2322420  50.7213399  31.4566977   8.0928327  49.5827636
  34.5425228  16.3216865  53.8424547  35.4942651  16.4214963  53.8636771
  34.3728678  15.5295134  54.3522632  32.5639608  13.4072449  54.0283948
  31.9689540  13.6877461  53.3330437  32.2789304  13.8966349  54.8000689
  37.0213306  19.5422985  52.9566847  36.9889626  18.6038986  53.1426531
  37.6313930  19.6207022  52.2232672  28.8596637  18.4119038  38.9994051
  29.8055741  18.2825246  39.0682469  28.4810882  17.6733700  39.4763479
  37.1707794  16.3334028  53.0025130  36.6546843  15.5492485  52.8155059
  38.0547743  16.0052745  53.1671650  34.8318521  10.0775044  48.9620943
  34.6343342   9.7690132  49.8464275  35.4418227  10.8036683  49.0918873
  40.9205153  18.7446854  52.6947335  40.1938316  18.6102819  52.0863827
  40.5052440  19.0523683  53.5004053  28.7435329  22.4636784  60.4594708
  29.6638339  22.6415383  60.6534755  28.7084912  21.5192829  60.3074407
  27.0439554  16.3369014  38.9348936  26.1371009  16.0402127  39.0111650
  27.3215535  16.0398832  38.0683223  17.9617494  17.6575378  49.3847983
  17.6420279  16.8040686  49.0922357  17.4150922  17.8723956  50.1405950
  21.7397402  20.3737819  53.1017489  21.9583412  21.3054927  53.1205523
  22.1523176  20.0145793  53.8872293  28.6601620  10.8805904  45.0893178
  27.8502348  10.5352989  45.4648424  29.3486037  10.5713448  45.6780789
  30.5892168   9.9583951  46.7117474  31.1423207  10.3779404  47.3707497
  30.8262254   9.0319699  46.7540430  26.6125267  15.9471025  62.4920238
  26.5121994  16.8965382  62.4232329  26.3946809  15.6189263  61.6196308
  25.8138339  13.1955950  39.0760916  26.6757503  13.5210848  39.3356733
  25.9988683  12.4087446  38.5633981  17.8305754  21.2778289  51.3541104
  17.1369226  20.8632242  50.8411059  18.5778745  21.3198826  50.7574523
  33.9670975  12.0684476  46.2196139  33.3869644  12.7269280  45.8374191
  33.7006908  11.2461821  45.8083556  32.4174541  11.4689534  48.4217459
  32.9174320  11.5806068  47.6131778  33.0610149  11.1650587  49.0618267
  26.4756537  19.3768163  61.3085300  25.9923619  20.1768524  61.5149189
  26.5617476  19.3876108  60.3552744  19.7442497  21.2096543  49.2307119
  19.7213185  21.3084230  48.2789002  20.0543133  22.0561694  49.5524285
  22.4029875  23.2672698  53.3453734  23.3573128  23.2356640  53.2783665
  22.2042398  22.8063322  54.1603960  22.9929257  21.8373814  55.9124531
  23.8122146  22.3317893  55.9359369  23.2666065  20.9205782  55.8842099
  32.7495853  14.2284566  45.2752487  31.8621708  14.5134217  45.0572682
  33.1649842  14.0678330  44.4279764  36.1010389  14.2531087  48.9906826
  36.8770779  14.7427540  49.2631443  35.3758523  14.6789142  49.4478696
  38.5382948  14.9658707  50.0480767  39.1327439  14.7254443  49.3374075
  38.6109531  14.2465837  50.6754303  20.7580103  28.8092318  50.3623932
  20.6234571  28.0492718  49.7961930  20.3412166  29.5333217  49.8952720
  31.8939066  23.9929241  39.3700507  32.5974917  24.1979244  39.9858162
  31.1701715  24.5606003  39.6349590  32.7236877  19.7439102  45.4902777
  32.6672078  20.2007654  44.6510409  33.2765219  18.9829787  45.3125620
  36.5341683  15.5328834  46.3152896  36.2778617  15.1325470  47.1461104
  35.9094551  16.2472628  46.1903036  40.8454021  18.2724907  48.8224188
  40.2853578  18.3418097  49.5955750  40.2397524  18.0965892  48.1023684
  23.9149229  29.7061635  50.5742374  23.7981613  30.6507067  50.4721064
  23.0941676  29.4035196  50.9628173  33.4571656  20.9343884  42.7855306
  33.4020460  20.7688155  41.8443750  32.8317711  21.6419917  42.9417496
  18.2464171  16.1711948  56.6116728  18.8923035  15.6610902  57.1003954
  18.0381322  16.9080630  57.1860154  30.7717563  23.2392795  62.1108869
  31.6408723  23.4133448  61.7495504  30.2924315  24.0587212  61.9884598
  26.7667782  10.4351993  42.3640625  26.7546451  11.3793833  42.5208895
  27.6591203  10.2522138  42.0700086  24.9403743  30.3589896  53.7898303
  25.8430990  30.3913507  54.1064798  24.7141114  29.4290347  53.8044638
  26.6957345  29.1120883  50.4508381  25.7452976  29.1122745  50.3372753
  26.9989832  28.3653618  49.9344416  30.5819901   7.0294769  46.6186561
  29.8152297   6.4753256  46.7643244  30.9930606   7.1016638  47.4800713
  22.5861662  13.3179565  60.7091743  23.4493124  12.9616370  60.9195067
  22.0127073  12.9793460  61.3967147  47.3859735  32.6108108  49.4940330
  48.1184907  32.0407325  49.7278160  46.6299090  32.2229709  49.9346836
  32.2137967  34.6189299  50.2211345  32.3430348  34.8723778  51.1350757
  31.5335418  35.2117007  49.9016000  46.8074443  38.9084637  48.2449967
  46.1225481  39.2883538  47.6947001  46.8918292  39.5179963  48.9781915
  41.6651603  29.1662416  51.7481883  40.8036082  29.4643670  52.0398620
  41.6914038  29.3832815  50.8162916  31.1607393  32.0911312  50.2662387
  30.3706446  32.3468840  49.7902498  31.6518640  32.9059650  50.3714428
  29.4445095  32.3441802  52.6977378  29.6953134  33.2288812  52.9634954
  29.9804644  32.1646404  51.9252470  35.1443163  26.7260282  61.7021714
  34.7510108  26.1726480  62.3769358  35.9609303  27.0370860  62.0928232
  35.0431421  42.7988070  53.6968380  35.5938846  42.6705133  52.9245373
  34.2042897  43.0982959  53.3463272  41.0864827  26.5403919  51.5355486
  40.5829623  26.5034054  50.7223291  41.3795434  27.4496662  51.5952142
  37.3307713  26.6242649  50.5421667  38.1960710  26.4285457  50.1827557
  37.3985222  26.3953000  51.4691024  43.8055952  23.4292823  48.6723990
  44.1114829  22.5690186  48.3849905  44.5308557  24.0210443  48.4722984
  38.5352146  43.8451065  52.8691525  38.4622317  44.6506037  53.3810830
  38.0929539  44.0443031  52.0439547  41.6338576  28.8917465  49.0228552
  42.1307275  28.1387427  48.7029622  40.8625557  28.9281782  48.4571761
  44.0757570  25.8587058  51.1707911  43.1620650  26.0891285  51.3390118
  44.5050672  25.9425502  52.0221943  31.6430461  41.0268698  52.7786357
  32.2283898  40.2812386  52.9114262  31.4455299  41.3372655  53.6623021
  26.2348116  33.5974298  51.4990800  26.2732215  33.0637889  52.2927919
  25.7288409  33.0709504  50.8801778  33.3950940  30.3994397  50.5572280
  32.6737526  31.0130365  50.4179754  34.1844196  30.9352162  50.4788926
  44.4458236  42.4635959  50.2943915  45.3704783  42.2578821  50.1568366
  44.2773539  42.2152361  51.2033257  35.5784849  32.4530952  50.7781904
  35.4329430  32.7671255  51.6706186  35.1010053  33.0715852  50.2252803
  37.4381232  29.4433500  50.8262794  37.4242801  28.5474593  50.4895092
  38.1553660  29.4504163  51.4601080  44.2353552  42.9821627  45.6506007
  44.4090429  42.4168049  44.8979859  44.7282443  43.7822522  45.4685497
  30.0530512  34.9936296  53.7169566  29.5083980  35.7696104  53.8489840
  30.9309861  35.3407100  53.5588687  39.7109319  26.0102790  49.2317084
  39.7331015  26.0742123  48.2769063  40.1277378  25.1707299  49.4257590
  41.5110124  23.2291149  50.0952972  41.7911878  22.5614338  50.7213399
  42.2960731  23.4220245  49.5827636  45.6712276  25.4066962  48.9620943
  45.4737097  25.0982050  49.8464275  46.2811981  26.1328601  49.0918873
  28.8011249  32.9867295  49.3847983  28.4814033  32.1332604  49.0922357
  28.2544677  33.2015874  50.1405950  41.4285922  25.2875869  46.7117474
  41.9816961  25.7071322  47.3707497  41.6656009  24.3611617  46.7540430
  28.6699509  36.6070207  51.3541104  27.9762980  36.1924160  50.8411059
  29.4172500  36.6490743  50.7574523  44.8064729  27.3976394  46.2196139
  44.2263399  28.0561198  45.8374191  44.5400662  26.5753738  45.8083556
  43.2568296  26.7981451  48.4217459  43.7568074  26.9097986  47.6131778
  43.9003904  26.4942504  49.0618267  30.5836251  36.5388461  49.2307119
  30.5606939  36.6376148  48.2789002  30.8936888  37.3853612  49.5524285
  46.9404144  29.5823005  48.9906826  47.7164534  30.0719458  49.2631443
  46.2152278  30.0081059  49.4478696  47.3735437  30.8620752  46.3152896
  47.1172371  30.4617388  47.1461104  46.7488305  31.5764546  46.1903036
  29.0857926  31.5003866  56.6116728  29.7316789  30.9902820  57.1003954
  28.8775077  32.2372547  57.1860154  41.4213655  22.3586687  46.6186561
  40.6546051  21.8045174  46.7643244  41.8324360  22.4308556  47.4800713
  48.0786454  41.0578023  46.6413104  47.4250867  40.7427040  46.0169718
  48.0366928  40.4353764  47.3672927  44.4532632  43.7730756  54.9953343
  44.5173959  44.6345587  54.5830740  44.3899753  43.1604758  54.2625701
  64.1097548  65.6065257  51.5154144  64.7475958  65.4872004  50.8117484
  63.9918391  66.5546101  51.5742096  60.9187254  65.5592685  51.4515668
  60.5805766  65.4433750  50.5636203  61.7877022  65.1583850  51.4316674
  61.4007037  66.7127537  57.4101874  61.3895678  66.3180335  56.5382377
  61.5627677  65.9793609  58.0035645  62.3573629  71.0799129  42.7527024
  61.7061608  71.6653209  42.3661038  63.1517991  71.6105324  42.8122062
  58.3391822  66.2309038  42.9856983  58.2228080  65.5553942  43.6538068
  58.4494082  65.7441412  42.1689136  60.6823363  65.6919185  46.6903673
  60.3181571  65.1649806  47.4016594  61.5390479  65.3017654  46.5170158
  58.0624963  75.9470384  46.3201819  57.9848993  76.8978209  46.3990300
  57.4586607  75.6016257  46.9776745  60.1600681  68.3688442  48.1555689
  60.6239027  68.6476145  47.3660311  59.8957480  67.4671887  47.9728779
  66.8558711  70.0900386  53.0167668  67.6776155  69.6880574  52.7350350
  66.8521114  69.9868621  53.9683784  74.9464704  66.4339135  49.3652640
  74.1928412  65.8646533  49.2096644  75.0812245  66.4001799  50.3123274
  60.3363332  71.3052537  45.0407359  60.2009007  72.1504073  45.4692207
  60.8773145  71.5071815  44.2773293  64.0613047  72.2078904  57.1989102
  64.0431522  73.0287785  56.7069371  64.9832967  72.0832979  57.4239243
  60.5186101  69.7223033  58.0412611  61.0514438  68.9611321  57.8111919
  59.9900182  69.4296685  58.7836765  63.6506078  64.8191710  42.0778687
  63.1352702  65.5896315  42.3167075  63.3783387  64.1456846  42.7011749
  62.9359493  75.3786743  41.4763082  62.2621191  75.6818440  42.0848040
  63.3225314  76.1815823  41.1268539  61.2079647  66.7701831  43.0790386
  60.2990866  66.4860864  43.1762856  61.2374731  67.1900909  42.2193693
  64.8831854  72.2184917  47.7831371  65.1754828  72.7789974  47.0643737
  65.3930474  72.5113478  48.5384531  60.9055735  68.3110574  40.4178464
  60.4675165  67.5946433  39.9584102  61.6466176  68.5386689  39.8563556
  63.2931113  63.4649336  55.7705454  63.6480500  63.6920809  56.6299920
  63.9403244  63.7967712  55.1482709  57.9631280  69.8728297  48.6686787
  58.7571878  69.3778617  48.4669362  57.2522972  69.3446160  48.3054493
  69.9113779  68.6967999  54.0198940  70.1049669  69.6013810  54.2658215
  69.8114397  68.2375418  54.8537525  64.9728888  68.8474742  59.5939820
  64.8214394  68.6185294  58.6769904  64.9633567  69.8045343  59.6071165
  61.1350708  75.5466416  43.6910161  61.3102463  75.0754459  44.5055784
  60.4483496  76.1732182  43.9191422  66.6821094  71.8793864  57.6716302
  66.6233640  71.1953085  57.0046885  67.0840613  72.6212854  57.2196928
  66.6838501  69.8433448  55.9030282  65.7965280  69.5059370  56.0256681
  67.2537052  69.1116480  56.1399047  60.0029434  73.7406671  46.3794347
  59.2196956  74.2828351  46.4732571  60.7022180  74.2580650  46.7788588
  65.5251538  64.7060786  53.6707805  64.8722988  64.9536693  53.0160258
  65.9031918  63.8924924  53.3370282  62.4858712  74.7420479  47.7735975
  62.6681106  73.9242135  48.2363728  63.3091698  74.9588171  47.3360865
  62.8200877  73.6688664  45.0351024  63.3488644  73.1581119  44.4221186
  63.0829097  73.3531194  45.8996557  61.5739111  65.4480597  60.1573842
  60.8979748  65.3474726  60.8276217  62.3966745  65.2919810  60.6209839
  65.5165189  72.5038520  53.0074690  64.5695525  72.3843871  52.9353017
  65.8647963  71.6161018  53.0900952  66.1245745  73.1219795  50.2943915
  67.0492292  72.9162656  50.1568366  65.9561048  72.8736196  51.2033257
  65.9141061  73.6405462  45.6506007  66.0877938  73.0751885  44.8979859
  66.4069952  74.4406357  45.4685497  66.9016233  72.9572227  42.7502905
  67.5967138  73.5778919  42.9690220  67.2439383  72.1067578  43.0255283
  68.4901562  71.0404836  59.5841434  67.6997106  71.0228975  59.0445933
  68.2534917  71.5793129  60.3390470  68.6099437  67.8897302  56.8974162
  68.6597442  67.7247310  57.8389685  68.5013361  67.0224561  56.5072043
  57.4935696  70.5685848  44.1866251  57.6423817  71.2521312  43.5332924
  58.3002140  70.5490938  44.7015707  65.9003200  63.8728230  58.2133469
  66.8013063  63.7334695  57.9217467  65.9751174  64.0382685  59.1531646
  70.1117634  70.3094244  57.1416184  69.8202443  70.6724224  57.9779645
  69.4989766  69.5961252  56.9629516  68.3604823  65.4326858  55.6096242
  68.8358944  65.6254505  54.8015093  67.4370388  65.4886044  55.3639626
  60.9931102  73.0633978  41.6577999  60.4205069  73.6824165  41.2048471
  61.5663895  73.6133340  42.1917921  64.2128361  73.3471128  42.7886581
  65.1459035  73.2816690  42.9919456  64.1251574  74.1827395  42.3301114
  69.5394569  65.5298738  52.9566847  69.5070889  64.5914739  53.1426531
  70.1495193  65.6082775  52.2232672  75.3571119  66.5914745  52.0972884
  76.0874508  66.3300033  52.6580587  74.7478065  65.8543467  52.1374952
  66.3207027  70.4187523  41.4198967  67.1552631  69.9868722  41.2376442
  66.1591370  70.2469537  42.3475861  65.9752920  66.9219637  42.7855306
  65.9201723  66.7563908  41.8443750  65.3498975  67.6295670  42.9417496
  74.9491302  80.9357174  51.5154144  75.5869712  80.8163922  50.8117484
  74.8312145  81.8838018  51.5742096  71.7581009  80.8884603  51.4515668
  71.4199520  80.7725667  50.5636203  72.6270777  80.4875768  51.4316674
  67.6167824  82.7420079  47.4412559  67.0532690  82.6510016  46.6728847
  67.5020219  81.9219983  47.9215052  72.2400792  82.0419454  57.4101874
  72.2289432  81.6472253  56.5382377  72.4021431  81.3085527  58.0035645
  65.1632256  84.2371271  50.2796780  65.9553548  83.8962095  49.8643079
  65.4028907  84.3466246  51.1998933  73.1967383  86.4091047  42.7527024
  72.5455363  86.9945127  42.3661038  73.9911746  86.9397242  42.8122062
  67.1223010  83.4980184  43.1514158  67.8953886  82.9509171  43.0127034
  67.4748409  84.3624433  43.3628620  68.9608053  84.8256566  56.3581058
  68.6697919  85.7302197  56.2427724  69.5965037  84.8673094  57.0725127
  69.8864260  82.2033415  52.9482417  70.4827832  81.9789437  52.2339380
  69.9439231  81.4618160  53.5507865  69.4589288  79.6572850  40.7832608
  69.7114809  79.1354371  40.0216071  68.5213847  79.4938995  40.8859292
  74.5032571  78.6608628  48.5907352  75.2895660  78.2428051  48.2397769
  74.7671275  79.5654720  48.7589000  74.6742648  84.0981479  43.2896008
  74.0388481  84.1716105  44.0016913  74.3440055  84.6875077  42.6115088
  79.9040998  78.5983862  49.4940330  80.6366170  78.0283078  49.7278160
  79.1480354  78.2105462  49.9346836  69.1785577  81.5600956  42.9856983
  69.0621835  80.8845859  43.6538068  69.2887837  81.0733330  42.1689136
  71.5217118  81.0211103  46.6903673  71.1575325  80.4941724  47.4016594
  72.3784234  80.6309572  46.5170158  77.4266418  72.3105436  53.9534939
  77.0949743  73.1800847  53.7296154  76.8312032  71.9941720  54.6328969
  71.1622605  76.0501003  41.6865021  71.3297007  76.9181239  42.0535492
  70.9719774  76.2128284  40.7626310  73.9197938  84.5117982  53.3530851
  73.6198661  85.4143020  53.2446659  73.5748997  84.2450165  54.2052004
  67.3710419  80.9631778  49.3867556  66.4460916  80.8307993  49.5945248
  67.6194833  81.7425998  49.8837498  77.3195082  77.0300522  51.0328289
  76.4111959  76.9615930  50.7387050  77.2682678  77.5072467  51.8610114
  71.1411826  78.5058660  42.6711688  71.0211451  78.9515711  43.5097168
  70.4464414  78.8543978  42.1125226  64.7319230  80.6065052  50.2211345
  64.8611612  80.8599531  51.1350757  64.0516682  81.1992760  49.9016000
  68.9018718  91.2762302  46.3201819  68.8242747  92.2270127  46.3990300
  68.2980361  90.9308174  46.9776745  71.3935947  78.4490167  58.9763186
  70.6169282  79.0084088  58.9666051  72.0326511  78.9346950  59.4978056
  79.1856728  75.2316960  52.8106163  78.5431108  75.5249493  52.1645957
  78.6811657  75.1169881  53.6159359  76.8396892  78.9780133  43.4992022
  77.7514748  79.2107520  43.3239720  76.3306539  79.5617178  42.9367101
  69.6482320  81.2575621  58.5381153  70.3897004  81.7960665  58.2615977
  68.9419305  81.8841909  58.6952705  75.1237659  83.4004761  57.1353315
  75.5321015  82.9587172  56.3907947  74.4014921  82.8257389  57.3887507
  71.4768729  78.3377368  54.5086872  72.3229925  78.7616782  54.6521521
  71.4167367  77.6810992  55.2025435  75.4466474  83.9605952  50.8905603
  74.8175337  84.1251666  50.1881671  75.0592136  84.3747561  51.6616567
  79.3255706  84.8960390  48.2449967  78.6406744  85.2759291  47.6947001
  79.4099555  85.5055716  48.9781915  74.6268175  75.9981736  56.1668045
  74.3829107  76.7523797  55.6302321  74.9028105  76.3767084  57.0015292
  76.5806638  82.5420349  54.8445311  76.7923533  83.1852109  54.1679692
  76.5336386  81.7082665  54.3767241  74.1832867  75.1538169  51.7481883
  73.3217346  75.4519423  52.0398620  74.2095301  75.3708568  50.8162916
  70.9994436  83.6980360  48.1555689  71.4632782  83.9768063  47.3660311
  70.7351234  82.7963804  47.9728779  67.8918517  83.2451841  51.0935452
  68.4619874  83.6739110  50.4552936  68.4826629  82.9634426  51.7919637
  69.9363322  79.8203512  44.9645254  70.6387365  80.2724556  45.4319180
  69.6043951  79.1787331  45.5925147  68.3843684  78.4115269  59.3396463
  67.7542344  79.0931550  59.5731860  68.2779771  78.2998351  58.3949601
  63.6788656  78.0787065  50.2662387  62.8887710  78.3344593  49.7902498
  64.1699903  78.8935403  50.3714428  77.6952466  85.4192304  53.0167668
  78.5169909  85.0172491  52.7350350  77.6914868  85.3160538  53.9683784
  65.6303401  78.4431644  47.2245864  64.8334565  78.5550338  47.7429360
  65.4028994  78.7818296  46.3586754  71.4609069  84.9676347  55.1728379
  71.5253502  85.4296755  56.0086550  70.7519993  84.3373712  55.3010688
  85.7858459  81.7631053  49.3652640  85.0322167  81.1938451  49.2096644
  85.9206000  81.7293717  50.3123274  71.1757087  86.6344455  45.0407359
  71.0402761  87.4795991  45.4692207  71.7166899  86.8363733  44.2773293
  64.6286484  84.1519893  45.6135284  65.1411005  84.9463143  45.7640849
  65.2809197  83.4546183  45.5468885  66.4381369  87.2685649  47.6958037
  66.6147997  88.1903614  47.5079021  67.2338202  86.9544068  48.1252417
  70.5792387  74.1293914  59.2941971  71.3202101  74.7301067  59.2146433
  70.8110310  73.3871552  58.7360013  65.7233725  79.3150281  57.5720200
  65.6087240  78.4135538  57.8727299  64.8678243  79.5613978  57.2205017
  72.8025563  87.2568021  59.1707701  72.3589417  86.4704400  58.8528605
  73.4642777  87.4447172  58.5051592  67.5612684  88.7863823  53.6968380
  68.1120109  88.6580886  52.9245373  66.7224160  89.0858712  53.3463272
  74.9006801  87.5370821  57.1989102  74.8825276  88.3579702  56.7069371
  75.8226721  87.4124897  57.4239243  71.3579855  85.0514951  58.0412611
  71.8908192  84.2903239  57.8111919  70.8293936  84.7588603  58.7836765
  74.5249550  70.1575017  53.5706252  74.1813820  71.0476658  53.4945363
  74.8928513  69.9676674  52.7075837  62.5935401  82.4808547  46.3894855
  63.4310623  82.8905556  46.1728562  62.7713669  81.5407989  46.3595048
  74.4899833  80.1483628  42.0778687  73.9746456  80.9188233  42.3167075
  74.2177141  79.4748764  42.7011749  72.0746944  74.9933329  47.1363926
  71.2188540  74.6040179  46.9569565  72.4873896  75.0725289  46.2763711
  73.6046091  72.5279672  51.5355486  73.1010886  72.4909807  50.7223291
  73.8976697  73.4372415  51.5952142  69.8488976  72.6118402  50.5421667
  70.7141973  72.4161210  50.1827557  69.9166485  72.3828753  51.4691024
  79.4634107  82.9015983  44.0131861  78.6863550  82.5627142  43.5687023
  80.1425588  82.9068606  43.3386826  74.2786136  78.0210720  43.9038469
  73.9736272  78.3356869  44.7548612  75.2316578  78.0992140  43.9465802
  72.7232568  84.1800943  45.5531423  72.1953930  83.4453703  45.2404660
  72.2220071  84.9575620  45.3071391  77.7025414  82.3749964  50.6698469
  77.0449088  83.0649225  50.7578598  78.5065813  82.7646396  51.0132455
  67.4551296  74.8420610  47.9138034  68.0295047  74.6195791  47.1811227
  68.0422278  74.9109304  48.6666635  76.5130873  80.7294336  48.7202411
  77.0262755  81.3624328  49.2224120  77.1632097  80.1295532  48.3545771
  67.7820883  76.8725071  41.9333919  66.9458195  77.2099757  42.2543194
  67.6425652  76.7374050  40.9961056  70.8685168  81.9981154  38.5566396
  69.9612230  81.7670407  38.7557545  71.3656200  81.2018773  38.7440377
  73.7753247  90.7078661  41.4763082  73.1014946  91.0110358  42.0848040
  74.1619069  91.5107741  41.1268539  72.9911704  78.2043792  50.9660751
  72.0734265  78.4258739  50.8082439  73.4071847  78.2790103  50.1072459
  73.7746751  79.6035208  46.0963431  74.5218570  80.1156605  45.7870554
  74.0438341  79.2819260  46.9567825  72.0473402  82.0993748  43.0790386
  71.1384621  81.8152781  43.1762856  72.0768485  82.5192827  42.2193693
  77.2792669  85.7100338  46.8481553  76.8254996  84.8691248  46.9046744
  76.6486636  86.3461736  47.1856333  76.2225589  76.6392324  48.0782221
  75.4848345  76.1269710  48.4092463  76.4752362  76.1992706  47.2665498
  75.7225608  87.5476835  47.7831371  76.0148583  88.1081892  47.0643737
  76.2324229  87.8405396  48.5384531  76.3237216  69.4168576  48.6723990
  76.6296093  68.5565939  48.3849905  77.0489821  70.0086196  48.4722984
  62.6161572  79.8199263  47.0605588  62.4185972  79.2268623  46.3356655
  62.0608236  79.5151473  47.7781527  70.5958296  79.7122369  49.1800181
  70.6506905  78.7596205  49.1042658  69.7849498  79.8681808  49.6641480
  71.7449489  83.6402492  40.4178464  71.3068919  82.9238351  39.9584102
  72.4859930  83.8678607  39.8563556  68.5350656  78.3299429  46.9390560
  67.7218521  78.6293599  47.3455752  69.0309650  77.9355118  47.6565042
  70.6859233  88.3257186  48.8724825  70.6435412  88.5518032  47.9433357
  71.6021932  88.0920560  49.0210626  74.1324867  78.7941253  55.7705454
  74.4874255  79.0212726  56.6299920  74.7796998  79.1259630  55.1482709
  79.8622604  81.9159689  46.4754783  79.7240503  82.1061285  45.5475972
  79.5058823  82.6779072  46.9322834  68.0264730  75.9017784  52.5551795
  68.6664110  75.7606543  51.8574758  67.1942261  75.6152298  52.1790397
  79.8891984  83.9836216  51.4866054  80.3228490  83.8911505  52.3349108
  80.6023564  83.9593717  50.8486070  68.8025034  85.2020215  48.6686787
  69.5965633  84.7070535  48.4669362  68.0916727  84.6738078  48.3054493
  73.6219879  87.5838310  53.0199155  73.6756901  88.1529247  53.7876871
  72.7534660  87.7540195  52.6553192  65.1107798  79.3463296  44.7446540
  64.1805386  79.2847752  44.9616502  65.2065270  78.8239249  43.9483181
  65.0293347  75.8718109  47.3324782  65.2900164  76.7863443  47.2233942
  65.8510519  75.4042552  47.4821395  66.5018272  77.2855866  54.5023606
  67.1741325  77.0773229  53.8536255  65.6748059  77.0877952  54.0628839
  80.7507533  84.0259917  54.0198940  80.9443423  84.9305727  54.2658215
  80.6508151  83.5667336  54.8537525  72.4043844  73.9117807  56.5189267
  71.7571759  74.6107757  56.4253744  73.1744859  74.3453951  56.8865515
  75.8122642  84.1766660  59.5939820  75.6608148  83.9477211  58.6769904
  75.8027321  85.1337261  59.6071165  72.5807978  81.7498572  54.5786087
  73.5100038  81.9009732  54.4055054  72.1599008  81.8382593  53.7234733
  71.3796310  85.7749237  52.3484624  71.2407396  85.4068021  53.2210563
  70.5910906  86.2896876  52.1768582  71.9744462  90.8758333  43.6910161
  72.1496218  90.4046376  44.5055784  71.2877250  91.5024099  43.9191422
  72.9301525  85.1530839  49.7373462  72.5951358  85.1131609  50.6331112
  72.4305471  84.4875555  49.2643873  66.9045769  80.5598469  55.2626043
  66.7665567  79.8278708  55.8637582  67.8150693  80.4707370  54.9810231
  75.8660717  82.4986874  40.0110522  75.2489888  81.7733702  39.9143575
  75.3977205  83.2596234  39.6677596  69.5328070  80.2718429  54.7509723
  70.2427688  79.6311621  54.7096342  69.4897378  80.5231324  55.6735904
  77.5214849  87.2085782  57.6716302  77.4627395  86.5245002  57.0046885
  77.9234367  87.9504772  57.2196928  68.2457004  77.2583647  56.5705363
  67.7094361  76.8074385  57.2226959  67.6573712  77.3929555  55.8275827
  66.5405547  94.0247696  50.4650021  66.7802146  94.6566220  51.1429040
  65.6974744  93.6735736  50.7515380  67.6559263  76.7172298  39.1331826
  66.7788729  76.5961099  38.7694073  68.1317016  75.9258376  38.8810715
  77.5232256  85.1725366  55.9030282  76.6359035  84.8351288  56.0256681
  78.0930807  84.4408397  56.1399047  59.1761403  81.5049458  49.2273333
  59.8632443  81.1911188  48.6394349  59.0209532  82.4090822  48.9540585
  71.0533409  89.8326818  52.8691525  70.9803581  90.6381790  53.3810830
  70.6110802  90.0318784  52.0439547  70.8423189  89.0698588  46.3794347
  70.0590711  89.6120269  46.4732571  71.5415934  89.5872568  46.7788588
  74.1519839  74.8793218  49.0228552  74.6488539  74.1263180  48.7029622
  73.3806821  74.9157535  48.4571761  82.0049596  80.5833583  50.6646844
  81.9939473  81.4658299  50.2940777  81.1366976  80.2305134  50.4701381
  73.5132093  89.7313652  55.0249684  74.2260065  90.3661117  54.9525585
  73.0222121  89.8277518  54.2089686  75.2349620  83.6364905  46.5966976
  74.3005898  83.7566368  46.4271680  75.4126288  82.7337372  46.3326985
  70.7354808  77.0210601  48.7500237  70.3652595  76.4681641  49.4381142
  71.2313900  76.4168734  48.1975237  78.6222171  79.4782224  47.1317010
  79.0882623  80.3110216  47.0577312  79.0729672  79.0127206  47.8362268
  68.5644006  87.4808096  55.8455255  69.2653466  88.1144579  55.9984649
  68.0939121  87.8222827  55.0850894  76.6898402  85.8226046  44.1303162
  76.9658246  85.7082640  45.0397036  75.8202901  85.4243531  44.0915335
  76.5938834  71.8462811  51.1707911  75.6801914  72.0767038  51.3390118
  77.0231935  71.9301255  52.0221943  76.3645292  80.0352703  53.6707805
  75.7116743  80.2828611  53.0160258  76.7425672  79.2216842  53.3370282
  73.3252466  90.0712397  47.7735975  73.5074861  89.2534052  48.2363728
  74.1485452  90.2880089  47.3360865  73.6594632  88.9980582  45.0351024
  74.1882398  88.4873036  44.4221186  73.9222851  88.6823112  45.8996557
  72.4132865  80.7772514  60.1573842  71.7373502  80.6766644  60.8276217
  73.2360499  80.6211728  60.6209839  64.1611724  87.0144451  52.7786357
  64.7465161  86.2688139  52.9114262  63.9636563  87.3248408  53.6623021
  67.0150380  90.0495698  47.7948800  66.3460755  90.5341826  47.3112840
  66.8763249  90.2964919  48.7092178  71.1555648  92.0839442  54.3931458
  71.7073956  92.2471063  55.1580543  71.4961842  92.6743880  53.7211483
  66.1320141  74.4314592  54.9953343  66.1961468  75.2929423  54.5830740
  66.0687262  73.8188593  54.2625701  65.6072414  76.5037724  58.6426377
  66.2344453  76.1214802  59.2563901  64.7500333  76.2851926  59.0082070
  76.0066523  86.9100699  60.2480113  76.5506427  87.5230658  59.7535067
  75.4253367  87.4680278  60.7647126  62.3837957  78.3114153  44.5744732
  62.6791398  77.4024832  44.5211786  61.4825993  78.2901893  44.2525734
  74.2924036  90.0321417  51.3795140  74.1675175  89.2311157  50.8706086
  74.9503127  90.5267611  50.8909110  65.9132204  76.3870150  50.5572280
  65.1918789  77.0006118  50.4179754  66.7025460  76.9227915  50.4788926
  76.3558944  87.8330437  53.0074690  75.4089279  87.7135789  52.9353017
  76.7041717  86.9452936  53.0900952  68.7158517  73.7224576  56.8312932
  69.2392919  73.9686873  57.5939242  68.4970851  74.5544611  56.4116070
  64.1125798  75.9928251  44.6984057  63.7838504  75.1125630  44.5159163
  64.4665169  75.9375920  45.5860446  73.3605377  87.6283154  49.2079043
  73.2130340  86.6999861  49.3886613  74.1858871  87.6503244  48.7236118
  67.2267621  76.2801221  45.0659535  67.5663694  76.8087142  44.3438143
  67.6739742  76.6181627  45.8418101  76.9639499  88.4511712  50.2943915
  77.8886047  88.2454574  50.1568366  76.7954802  88.2028114  51.2033257
  69.9211062  74.6638271  54.5162603  69.5807883  73.8646085  54.9183283
  69.2150069  74.9639982  53.9439436  70.5727534  71.7487584  52.9689926
  71.3953603  71.2748062  52.8468816  70.8165598  72.5278068  53.4688612
  69.2135769  74.7775842  43.2652827  69.9344131  75.1557095  42.7616544
  68.5901073  75.4964719  43.3687805  73.3566892  75.4820991  44.2011160
  73.5730506  76.3645629  43.8999988  72.8760959  75.0907205  43.4716802
  68.0966113  78.4406705  50.7781904  67.9510694  78.7547008  51.6706186
  67.6191317  79.0591605  50.2252803  69.9562496  75.4309253  50.8262794
  69.9424065  74.5350346  50.4895092  70.6734924  75.4379916  51.4601080
  71.8088626  75.8646593  52.8715921  71.5506404  76.7863663  52.8700252
  71.2773667  75.4677027  53.5616386  76.7534815  88.9697380  45.6506007
  76.9271693  88.4043802  44.8979859  77.2463706  89.7698275  45.4685497
  62.5711775  80.9812049  53.7169566  62.0265243  81.7571857  53.8489840
  63.4491125  81.3282853  53.5588687  69.3599392  74.3123633  46.0950364
  69.4815303  73.3840279  46.2941252  69.0701434  74.3262319  45.1828680
  72.2290582  71.9978543  49.2317084  72.2512279  72.0617876  48.2769063
  72.6458641  71.1583052  49.4257590  82.6074206  81.7333803  47.2696307
  83.0505352  80.9841128  46.8715430  81.7300717  81.7243939  46.8870038
  77.7409988  88.2864144  42.7502905  78.4360892  88.9070837  42.9690220
  78.0833138  87.4359495  43.0255283  63.3577797  80.1081945  56.6099722
  62.6159533  80.2564581  57.1964353  63.0370541  80.3690211  55.7466472
  79.6401411  85.7363850  44.2790236  80.1652735  86.0751123  43.5539556
  79.5523763  84.8010865  44.0953370  71.3021460  89.6497923  56.4080112
  71.6108586  89.4047070  57.2802812  72.0996942  89.8544562  55.9198983
  71.3242072  91.8035833  48.6385489  70.8847062  91.3112212  49.3318346
  72.0750189  91.2608801  48.3977564  63.8034411  87.9947374  48.6410117
  64.6292430  87.6951146  48.2608761  63.4528463  87.2254996  49.0899906
  62.0043016  85.9133700  49.5999051  61.1674924  85.4855875  49.4183052
  61.9766661  86.1066144  50.5369842  68.8440471  75.8255630  60.3040297
  68.8928627  76.7017753  59.9218066  69.3862985  75.2833023  59.7311940
  79.3295317  86.3696753  59.5841434  78.5390861  86.3520892  59.0445933
  79.0928671  86.9085047  60.3390470  79.4493192  83.2189220  56.8974162
  79.4991197  83.0539227  57.8389685  79.3407115  82.3516479  56.5072043
  68.3329451  85.8977766  44.1866251  68.4817571  86.5813230  43.5332924
  69.1395894  85.8782856  44.7015707  76.7396954  79.2020148  58.2133469
  77.6406817  79.0626613  57.9217467  76.8144929  79.3674603  59.1531646
  71.0739760  76.5787003  57.0586655  70.2043069  76.8720569  56.7869244
  71.3099240  77.1627448  57.7793919  80.9511389  85.6386161  57.1416184
  80.6596197  86.0016142  57.9779645  80.3383520  84.9253170  56.9629516
  82.1507071  83.2039041  49.6618754  82.9853963  83.6428845  49.8256314
  82.2866200  82.7277694  48.8427000  79.1998577  80.7618776  55.6096242
  79.6752699  80.9546422  54.8015093  78.2764142  80.8177962  55.3639626
  66.0882084  81.9242943  45.1927320  65.8428126  81.0205273  45.3907530
  66.2577998  81.9260094  44.2506798  73.7778794  72.7966620  54.5752076
  74.2960737  73.5327646  54.2498564  73.4233926  73.1030613  55.4098835
  65.3577731  77.6571301  42.6913482  64.6646976  77.7315656  42.0353518
  65.1129483  76.8931644  43.2134999  74.0291388  69.2166902  50.0952972
  74.3093141  68.5490091  50.7213399  74.8141995  69.4095998  49.5827636
  71.8324856  88.3925896  41.6577999  71.2598823  89.0116083  41.2048471
  72.4057650  88.9425258  42.1917921  77.9000246  77.6384536  53.8424547
  78.8517669  77.7382634  53.8636771  77.7303696  76.8462805  54.3522632
  75.9214626  74.7240119  54.0283948  75.3264558  75.0045132  53.3330437
  75.6364322  75.2134020  54.8000689  75.0522116  88.6763046  42.7886581
  75.9852789  88.6108608  42.9919456  74.9645329  89.5119313  42.3301114
  77.6810133  87.9928916  39.7490528  77.6023764  87.6588780  40.6426286
  78.5019799  88.4850684  39.7482001  80.3788324  80.8590656  52.9566847
  80.3464644  79.9206656  53.1426531  80.9888947  80.9374692  52.2232672
  72.2171655  79.7286709  38.9994051  73.1630759  79.5992917  39.0682469
  71.8385900  78.9901371  39.4763479  80.5282812  77.6501699  53.0025130
  80.0121861  76.8660156  52.8155059  81.4122761  77.3220416  53.1671650
  78.1893539  71.3942715  48.9620943  77.9918360  71.0857803  49.8464275
  78.7993245  72.1204354  49.0918873  86.1964874  81.9206663  52.0972884
  86.9268262  81.6591951  52.6580587  85.5871819  81.1835385  52.1374952
  84.2780171  80.0614525  52.6947335  83.5513334  79.9270490  52.0863827
  83.8627458  80.3691354  53.5004053  72.1010347  83.7804455  60.4594708
  73.0213357  83.9583054  60.6534755  72.0659930  82.8360500  60.3074407
  70.4014572  77.6536685  38.9348936  69.4946027  77.3569798  39.0111650
  70.6790553  77.3566503  38.0683223  61.3192512  78.9743049  49.3847983
  60.9995297  78.1208357  49.0922357  60.7725940  79.1891627  50.1405950
  65.0972420  81.6905489  53.1017489  65.3158430  82.6222597  53.1205523
  65.5098194  81.3313464  53.8872293  69.9700285  77.2638695  62.4920238
  69.8697012  78.2133052  62.4232329  69.7521827  76.9356934  61.6196308
  69.1713356  74.5123620  39.0760916  70.0332520  74.8378519  39.3356733
  69.3563701  73.7255116  38.5633981  61.1880772  82.5945960  51.3541104
  60.4944244  82.1799913  50.8411059  61.9353763  82.6366497  50.7574523
  77.3245993  73.3852147  46.2196139  76.7444662  74.0436951  45.8374191
  77.0581926  72.5629491  45.8083556  75.7749559  72.7857204  48.4217459
  76.2749338  72.8973739  47.6131778  76.4185167  72.4818257  49.0618267
  69.8331555  80.6935834  61.3085300  69.3498637  81.4936194  61.5149189
  69.9192494  80.7043779  60.3552744  63.1017515  82.5264214  49.2307119
  63.0788203  82.6251901  48.2789002  63.4118151  83.3729365  49.5524285
  65.7604893  84.5840369  53.3453734  66.7148146  84.5524311  53.2783665
  65.5617416  84.1230993  54.1603960  66.3504275  83.1541485  55.9124531
  67.1697164  83.6485564  55.9359369  66.6241082  82.2373453  55.8842099
  76.1070871  75.5452237  45.2752487  75.2196726  75.8301888  45.0572682
  76.5224860  75.3846001  44.4279764  79.4585407  75.5698758  48.9906826
  80.2345797  76.0595211  49.2631443  78.7333541  75.9956812  49.4478696
  81.8957966  76.2826377  50.0480767  82.4902457  76.0422113  49.3374075
  81.9684549  75.5633508  50.6754303  64.1155121  90.1259988  50.3623932
  63.9809589  89.3660389  49.7961930  63.6987184  90.8500888  49.8952720
  75.2514084  85.3096912  39.3700507  75.9549935  85.5146914  39.9858162
  74.5276733  85.8773674  39.6349590  76.0811895  81.0606773  45.4902777
  76.0247096  81.5175325  44.6510409  76.6340237  80.2997458  45.3125620
  79.8916701  76.8496505  46.3152896  79.6353635  76.4493141  47.1461104
  79.2669569  77.5640299  46.1903036  84.2029038  79.5892578  48.8224188
  83.6428596  79.6585768  49.5955750  83.5972542  79.4133563  48.1023684
  67.2724247  91.0229305  50.5742374  67.1556631  91.9674738  50.4721064
  66.4516694  90.7202867  50.9628173  77.1600782  85.7479441  41.4198967
  77.9946386  85.3160640  41.2376442  76.9985125  85.5761455  42.3475861
  76.8146674  82.2511554  42.7855306  76.7595478  82.0855826  41.8443750
  76.1892729  82.9587587  42.9417496  74.1292581  84.5560466  62.1108869
  74.9983741  84.7301118  61.7495504  73.6499333  85.3754883  61.9884598
  70.1242799  71.7519663  42.3640625  70.1121469  72.6961503  42.5208895
  71.0166221  71.5689809  42.0700086  68.2978761  91.6757567  53.7898303
  69.2006008  91.7081177  54.1064798  68.0716131  90.7458018  53.8044638
  70.0532363  90.4288554  50.4508381  69.1027994  90.4290415  50.3372753
  70.3564850  89.6821288  49.9344416  82.5974763  96.2176520  51.4515668
  82.2593275  96.1017585  50.5636203  83.4664531  95.8167685  51.4316674
  78.4561579  98.0711997  47.4412559  77.8926444  97.9801934  46.6728847
  78.3413974  97.2511901  47.9215052  83.0794546  97.3711372  57.4101874
  83.0683187  96.9764170  56.5382377  83.2415186  96.6377445  58.0035645
  76.0026011  99.5663188  50.2796780  76.7947303  99.2254013  49.8643079
  76.2422661  99.6758163  51.1998933  77.9616765  98.8272102  43.1514158
  78.7347641  98.2801089  43.0127034  78.3142164  99.6916351  43.3628620
  80.7258014  97.5325332  52.9482417  81.3221586  97.3081355  52.2339380
  80.7832986  96.7910078  53.5507865  80.2983043  94.9864768  40.7832608
  80.5508563  94.4646289  40.0216071  79.3607602  94.8230913  40.8859292
  85.3426325  93.9900546  48.5907352  86.1289415  93.5719969  48.2397769
  85.6065030  94.8946638  48.7589000  80.0179331  96.8892874  42.9856983
  79.9015589  96.2137777  43.6538068  80.1281591  96.4025248  42.1689136
  82.3610872  96.3503021  46.6903673  81.9969079  95.8233642  47.4016594
  83.2177988  95.9601490  46.5170158  88.2660173  87.6397353  53.9534939
  87.9343498  88.5092764  53.7296154  87.6705786  87.3233637  54.6328969
  82.0016359  91.3792920  41.6865021  82.1690762  92.2473157  42.0535492
  81.8113528  91.5420202  40.7626310  78.2104174  96.2923696  49.3867556
  77.2854670  96.1599910  49.5945248  78.4588587  97.0717915  49.8837498
  88.1588836  92.3592439  51.0328289  87.2505714  92.2907848  50.7387050
  88.1076432  92.8364384  51.8610114  81.9805580  93.8350578  42.6711688
  81.8605205  94.2807629  43.5097168  81.2858168  94.1835896  42.1125226
  75.5712985  95.9356970  50.2211345  75.7005366  96.1891449  51.1350757
  74.8910436  96.5284678  49.9016000  82.2329702  93.7782085  58.9763186
  81.4563036  94.3376005  58.9666051  82.8720265  94.2638868  59.4978056
  90.0250483  90.5608878  52.8106163  89.3824863  90.8541411  52.1645957
  89.5205411  90.4461798  53.6159359  80.4876074  96.5867538  58.5381153
  81.2290759  97.1252582  58.2615977  79.7813060  97.2133827  58.6952705
  82.3162484  93.6669286  54.5086872  83.1623679  94.0908699  54.6521521
  82.2561122  93.0102910  55.2025435  85.4661929  91.3273654  56.1668045
  85.2222861  92.0815715  55.6302321  85.7421860  91.7059002  57.0015292
  85.0226621  90.4830087  51.7481883  84.1611100  90.7811341  52.0398620
  85.0489056  90.7000486  50.8162916  78.7312272  98.5743759  51.0935452
  79.3013629  99.0031028  50.4552936  79.3220383  98.2926344  51.7919637
  80.7757077  95.1495430  44.9645254  81.4781120  95.6016474  45.4319180
  80.4437705  94.5079249  45.5925147  79.2237438  93.7407187  59.3396463
  78.5936099  94.4223467  59.5731860  79.1173526  93.6290268  58.3949601
  74.5182410  93.4078983  50.2662387  73.7281464  93.6636511  49.7902498
  75.0093658  94.2227320  50.3714428  76.4697156  93.7723562  47.2245864
  75.6728319  93.8842256  47.7429360  76.2422748  94.1110214  46.3586754
  72.8020113  93.6609473  52.6977378  73.0528152  94.5456483  52.9634954
  73.3379662  93.4814075  51.9252470  78.5018181  88.0427952  61.7021714
  78.1085126  87.4894151  62.3769358  79.3184321  88.3538531  62.0928232
  75.4680239  99.4811811  45.6135284  75.9804759 100.2755061  45.7640849
  76.1202951  98.7838101  45.5468885  81.4186142  89.4585832  59.2941971
  82.1595855  90.0592985  59.2146433  81.6504065  88.7163469  58.7360013
  76.5627480  94.6442199  57.5720200  76.4480995  93.7427456  57.8727299
  75.7071998  94.8905896  57.2205017  85.3643305  85.4866934  53.5706252
  85.0207574  86.3768576  53.4945363  85.7322267  85.2968592  52.7075837
  73.4329155  97.8100465  46.3894855  74.2704377  98.2197473  46.1728562
  73.6107423  96.8699907  46.3595048  85.3293587  95.4775546  42.0778687
  84.8140211  96.2480150  42.3167075  85.0570896  94.8040682  42.7011749
  82.9140698  90.3225246  47.1363926  82.0582295  89.9332097  46.9569565
  83.3267650  90.4017207  46.2763711  84.4439845  87.8571590  51.5355486
  83.9404641  87.8201725  50.7223291  84.7370452  88.7664332  51.5952142
  80.6882731  87.9410319  50.5421667  81.5535728  87.7453128  50.1827557
  80.7560240  87.7120671  51.4691024  85.1179891  93.3502638  43.9038469
  84.8130026  93.6648787  44.7548612  86.0710333  93.4284058  43.9465802
  78.2945050  90.1712527  47.9138034  78.8688802  89.9487709  47.1811227
  78.8816032  90.2401222  48.6666635  78.6214637  92.2016988  41.9333919
  77.7851949  92.5391675  42.2543194  78.4819407  92.0665968  40.9961056
  80.5967718  87.0453776  46.6413104  79.9432130  86.7302793  46.0169718
  80.5548192  86.4229517  47.3672927  81.7078923  97.3273071  38.5566396
  80.8005984  97.0962325  38.7557545  82.2049955  96.5310691  38.7440377
  83.8305458  93.5335710  50.9660751  82.9128020  93.7550657  50.8082439
  84.2465602  93.6082020  50.1072459  84.6140506  94.9327125  46.0963431
  85.3612325  95.4448523  45.7870554  84.8832095  94.6111178  46.9567825
  87.0619343  91.9684242  48.0782221  86.3242100  91.4561628  48.4092463
  87.3146117  91.5284623  47.2665498  87.1630970  84.7460494  48.6723990
  87.4689847  83.8857857  48.3849905  87.8883575  85.3378114  48.4722984
  73.4555326  95.1491180  47.0605588  73.2579726  94.5560541  46.3356655
  72.9001990  94.8443390  47.7781527  81.4352050  95.0414287  49.1800181
  81.4900660  94.0888123  49.1042658  80.6243252  95.1973726  49.6641480
  79.3744410  93.6591346  46.9390560  78.5612276  93.9585517  47.3455752
  79.8703404  93.2647035  47.6565042  84.9718622  94.1233171  55.7705454
  85.3268009  94.3504644  56.6299920  85.6190753  94.4551548  55.1482709
  78.8658485  91.2309702  52.5551795  79.5057864  91.0898461  51.8574758
  78.0336015  90.9444215  52.1790397  75.9501552  94.6755214  44.7446540
  75.0199140  94.6139670  44.9616502  76.0459024  94.1531167  43.9483181
  75.8687101  91.2010027  47.3324782  76.1293919  92.1155360  47.2233942
  76.6904274  90.7334470  47.4821395  77.3412027  92.6147784  54.5023606
  78.0135080  92.4065146  53.8536255  76.5141813  92.4169870  54.0628839
  83.2437599  89.2409725  56.5189267  82.5965514  89.9399675  56.4253744
  84.0138614  89.6745869  56.8865515  77.7439524  95.8890387  55.2626043
  77.6059322  95.1570626  55.8637582  78.6544447  95.7999287  54.9810231
  80.3721824  95.6010346  54.7509723  81.0821443  94.9603539  54.7096342
  80.3291133  95.8523241  55.6735904  79.0850758  92.5875564  56.5705363
  78.5488115  92.1366303  57.2226959  78.4967467  92.7221473  55.8275827
  78.4953017  92.0464216  39.1331826  77.6182484  91.9253017  38.7694073
  78.9710770  91.2550294  38.8810715  70.0155158  96.8341375  49.2273333
  70.7026197  96.5203105  48.6394349  69.8603286  97.7382740  48.9540585
  74.8189880  91.7231572  53.6558357  74.7348068  91.1157242  52.9208767
  73.9972586  92.2140590  53.6567853  84.9913594  90.2085136  49.0228552
  85.4882293  89.4555098  48.7029622  84.2200575  90.2449452  48.4571761
  81.5748562  92.3502519  48.7500237  81.2046350  91.7973559  49.4381142
  82.0707655  91.7460652  48.1975237  87.4332588  87.1754729  51.1707911
  86.5195668  87.4058956  51.3390118  87.8625690  87.2593173  52.0221943
  83.2526620  96.1064432  60.1573842  82.5767257  96.0058561  60.8276217
  84.0754254  95.9503646  60.6209839  75.0005479 102.3436369  52.7786357
  75.5858916 101.5980057  52.9114262  74.8030317 102.6540325  53.6623021
  69.5923134  94.9141969  51.4990800  69.6307233  94.3805560  52.2927919
  69.0863426  94.3877174  50.8801778  76.9713896  89.7606509  54.9953343
  77.0355222  90.6221340  54.5830740  76.9081016  89.1480511  54.2625701
  76.4466168  91.8329642  58.6426377  77.0738207  91.4506719  59.2563901
  75.5894087  91.6143844  59.0082070  73.2231711  93.6406071  44.5744732
  73.5185152  92.7316749  44.5211786  72.3219747  93.6193810  44.2525734
  76.7525958  91.7162068  50.5572280  76.0312544  92.3298035  50.4179754
  77.5419214  92.2519832  50.4788926  79.5552272  89.0516494  56.8312932
  80.0786674  89.2978791  57.5939242  79.3364605  89.8836529  56.4116070
  74.9519553  91.3220169  44.6984057  74.6232259  90.4417548  44.5159163
  75.3058924  91.2667837  45.5860446  78.0661376  91.6093138  45.0659535
  78.4057448  92.1379060  44.3438143  78.5133496  91.9473545  45.8418101
  80.7604817  89.9930189  54.5162603  80.4201637  89.1938002  54.9183283
  80.0543823  90.2931900  53.9439436  81.4121289  87.0779502  52.9689926
  82.2347358  86.6039980  52.8468816  81.6559352  87.8569985  53.4688612
  80.0529523  90.1067760  43.2652827  80.7737886  90.4849013  42.7616544
  79.4294827  90.8256637  43.3687805  84.1960646  90.8112909  44.2011160
  84.4124260  91.6937547  43.8999988  83.7154713  90.4199122  43.4716802
  78.9359867  93.7698622  50.7781904  78.7904448  94.0838925  51.6706186
  78.4585071  94.3883523  50.2252803  80.7956250  90.7601170  50.8262794
  80.7817819  89.8642264  50.4895092  81.5128678  90.7671834  51.4601080
  82.6482381  91.1938510  52.8715921  82.3900159  92.1155581  52.8700252
  82.1167421  90.7968945  53.5616386  73.4105530  96.3103967  53.7169566
  72.8658998  97.0863775  53.8489840  74.2884879  96.6574771  53.5588687
  80.1993146  89.6415550  46.0950364  80.3209057  88.7132197  46.2941252
  79.9095189  89.6554236  45.1828680  83.0684337  87.3270461  49.2317084
  83.0906033  87.3909794  48.2769063  83.4852396  86.4874970  49.4257590
  74.1971551  95.4373863  56.6099722  73.4553287  95.5856498  57.1964353
  73.8764296  95.6982128  55.7466472  74.6428165 103.3239292  48.6410117
  75.4686185 103.0243063  48.2608761  74.2922217 102.5546914  49.0899906
  72.8436770 101.2425618  49.5999051  72.0068678 100.8147792  49.4183052
  72.8160416 101.4358061  50.5369842  79.6834226  91.1547548  60.3040297
  79.7322381  92.0309671  59.9218066  80.2256740  90.6124941  59.7311940
  81.9133514  91.9078920  57.0586655  81.0436824  92.2012486  56.7869244
  82.1492995  92.4919365  57.7793919  76.9275838  97.2534861  45.1927320
  76.6821880  96.3497191  45.3907530  77.0971753  97.2552011  44.2506798
  84.6172548  88.1258537  54.5752076  85.1354492  88.8619564  54.2498564
  84.2627681  88.4322530  55.4098835  76.1971486  92.9863218  42.6913482
  75.5040731  93.0607573  42.0353518  75.9523238  92.2223562  43.2134999
  84.8685142  84.5458820  50.0952972  85.1486896  83.8782009  50.7213399
  85.6535749  84.7387915  49.5827636  86.7608380  90.0532037  54.0283948
  86.1658312  90.3337050  53.3330437  86.4758077  90.5425938  54.8000689
  83.0565409  95.0578626  38.9994051  84.0024514  94.9284834  39.0682469
  82.6779654  94.3193288  39.4763479  89.0287294  86.7234632  48.9620943
  88.8312115  86.4149721  49.8464275  89.6386999  87.4496271  49.0918873
  81.2408326  92.9828603  38.9348936  80.3339782  92.6861715  39.0111650
  81.5184307  92.6858421  38.0683223  72.1586267  94.3034966  49.3847983
  71.8389051  93.4500274  49.0922357  71.6119695  94.5183544  50.1405950
  75.9366174  97.0197407  53.1017489  76.1552184  97.9514515  53.1205523
  76.3491948  96.6605382  53.8872293  82.8570392  87.5265492  45.0893178
  82.0471120  87.1812577  45.4648424  83.5454809  87.2173036  45.6780789
  84.7860940  86.6043539  46.7117474  85.3391979  87.0238993  47.3707497
  85.0231027  85.6779287  46.7540430  80.8094040  92.5930613  62.4920238
  80.7090766  93.5424970  62.4232329  80.5915582  92.2648852  61.6196308
  80.0107111  89.8415538  39.0760916  80.8726275  90.1670436  39.3356733
  80.1957455  89.0547034  38.5633981  72.0274527  97.9237878  51.3541104
  71.3337998  97.5091830  50.8411059  72.7747518  97.9658414  50.7574523
  88.1639747  88.7144064  46.2196139  87.5838416  89.3728868  45.8374191
  87.8975680  87.8921409  45.8083556  86.6143314  88.1149122  48.4217459
  87.1143092  88.2265657  47.6131778  87.2578922  87.8110175  49.0618267
  80.6725310  96.0227752  61.3085300  80.1892391  96.8228112  61.5149189
  80.7586249  96.0335697  60.3552744  73.9411269  97.8556131  49.2307119
  73.9181957  97.9543819  48.2789002  74.2511906  98.7021282  49.5524285
  76.5998647  99.9132286  53.3453734  77.5541901  99.8816229  53.2783665
  76.4011171  99.4522910  54.1603960  77.1898029  98.4833403  55.9124531
  78.0090918  98.9777481  55.9359369  77.4634837  97.5665371  55.8842099
  86.9464625  90.8744155  45.2752487  86.0590480  91.1593805  45.0572682
  87.3618615  90.7137918  44.4279764  90.2979162  90.8990676  48.9906826
  91.0739552  91.3887128  49.2631443  89.5727296  91.3248730  49.4478696
  72.4432943  92.8171536  56.6116728  73.0891807  92.3070490  57.1003954
  72.2350095  93.5540218  57.1860154  80.9636554  87.0811581  42.3640625
  80.9515224  88.0253421  42.5208895  81.8559976  86.8981726  42.0700086
  84.7788673  83.6754358  46.6186561  84.0121069  83.1212844  46.7643244
  85.1899378  83.7476226  47.4800713  76.7830434  89.9639153  60.7091743
  77.6461896  89.6075958  60.9195067  76.2095845  89.6253048  61.3967147
  31.5916286  -3.3748374  38.2399450  32.2294696  -3.4941626  37.5362790
  31.4737129  -2.4267530  38.2987402  28.4005992  -3.4220946  38.1760975
  28.0624504  -3.5379881  37.2881510  29.2695760  -3.8229780  38.1561981
  28.8825775  -2.2686094  44.1347180  28.8714416  -2.6633296  43.2627684
  29.0446414  -3.0020021  44.7280952  29.8392366   2.0985499  29.4772331
  29.1880346   2.6839579  29.0906345  30.6336729   2.6291693  29.5367368
  23.7647994  -0.8125364  29.8759465  24.5378870  -1.3596377  29.7372341
  24.1173392   0.0518885  30.0873927  25.6033036   0.5151018  43.0826364
  25.3122902   1.4196649  42.9673031  26.2390020   0.5567546  43.7970434
  26.5289243  -2.1072133  39.6727724  27.1252815  -2.3316111  38.9584687
  26.5864215  -2.8487388  40.2753172  31.1457554  -5.6496920  35.3152658
  31.9320643  -6.0677497  34.9643075  31.4096259  -4.7450828  35.4834307
  31.3167632  -0.2124069  30.0141315  30.6813465  -0.1389443  30.7262220
  30.9865038   0.3769529  29.3360394  36.5465981  -5.7121687  36.2185637
  37.2791153  -6.2822470  36.4523466  35.7905337  -6.1000086  36.6592142
  28.1642101  -3.2894445  33.4148979  27.8000308  -3.8163824  34.1261901
  29.0209217  -3.6795976  33.2415465  30.5622921   0.2012433  40.0776158
  30.2623644   1.1037472  39.9691965  30.2173981  -0.0655383  40.9297311
  33.9620065  -7.2805026  37.7573595  33.0536942  -7.3489618  37.4632356
  33.9107661  -6.8033081  38.5855421  25.5443701   6.9656754  33.0447126
  25.4667731   7.9164579  33.1235606  24.9405345   6.6202626  33.7022052
  33.4821875  -5.3325415  30.2237329  34.3939731  -5.0998028  30.0485026
  32.9731522  -4.7488371  29.6612407  26.2907303  -3.0529927  45.2626460
  27.0321987  -2.5144883  44.9861283  25.5844289  -2.4263639  45.4198012
  31.7662643  -0.9100787  43.8598621  32.1745999  -1.3518376  43.1153254
  31.0439904  -1.4848159  44.1132814  32.0891457  -0.3499596  37.6150910
  31.4600320  -0.1853882  36.9126978  31.7017119   0.0642013  38.3861874
  35.9680689   0.5854842  34.9695274  35.2831727   0.9653743  34.4192307
  36.0524539   1.1950168  35.7027222  33.2231621  -1.7685199  41.5690617
  33.4348516  -1.1253440  40.8924998  33.1761369  -2.6022883  41.1012547
  27.6419419  -0.6125188  34.8800995  28.1057765  -0.3337485  34.0905618
  27.3776217  -1.5141744  34.6974086  24.5343500  -1.0653707  37.8180758
  25.1044857  -0.6366438  37.1798243  25.1251612  -1.3471122  38.5164944
  34.3377449   1.1086756  39.7412975  35.1594893   0.7066943  39.4595656
  34.3339852   1.0054990  40.6929091  28.1034052   0.6570799  41.8973685
  28.1678485   1.1191207  42.7331857  27.3944976   0.0268164  42.0255995
  42.4283442  -2.5474496  36.0897946  41.6747150  -3.1167097  35.9341951
  42.5630983  -2.5811831  37.0368581  27.8182070   2.3238907  31.7652666
  27.6827745   3.1690443  32.1937513  28.3591882   2.5258184  31.0018599
  23.0806352   2.9580101  34.4203344  23.2572980   3.8798066  34.2324328
  23.8763186   2.6438520  34.8497724  29.4450546   2.9462473  45.8953008
  29.0014401   2.1598852  45.5773912  30.1067760   3.1341624  45.2296898
  24.2037668   4.4758275  40.4213686  24.7545093   4.3475338  39.6490680
  23.3649143   4.7753164  40.0708579  31.5431784   3.2265273  43.9234409
  31.5250260   4.0474154  43.4314678  32.4651704   3.1019348  44.1484550
  28.0004839   0.7409403  44.7657917  28.5333175  -0.0202309  44.5357225
  27.4718920   0.4483055  45.5082072  31.1324816  -4.1621920  28.8023994
  30.6171440  -3.3917316  29.0412382  30.8602125  -4.8356784  29.4257056
  36.1059090  -1.4089566  30.7377168  35.3288533  -1.7478406  30.2932330
  36.7850571  -1.4036942  30.0632133  30.9211119  -6.2894828  30.6283775
  30.6161255  -5.9748679  31.4793918  31.8741562  -6.2113408  30.6711108
  29.3657551  -0.1304605  32.2776729  28.8378913  -0.8651845  31.9649967
  28.8645054   0.6470072  32.0316698  34.3450397  -1.9355584  37.3943776
  33.6874072  -1.2456323  37.4823904  35.1490796  -1.5459152  37.7377762
  33.1555856  -3.5811212  35.4447717  33.6687738  -2.9481220  35.9469427
  33.8057080  -4.1810016  35.0791077  30.4178230   6.3973113  28.2008388
  29.7439929   6.7004809  28.8093346  30.8044052   7.2002193  27.8513846
  30.4171735  -4.7070340  32.8208738  31.1643554  -4.1948943  32.5115860
  30.6863324  -5.0286288  33.6813132  28.6898385  -2.2111800  29.8035692
  27.7809604  -2.4952767  29.9008162  28.7193469  -1.7912721  28.9438999
  33.9217652   1.3994790  33.5726860  33.4679979   0.5585700  33.6292050
  33.2911619   2.0356188  33.9101640  32.3650592   3.2371287  34.5076678
  32.6573566   3.7976344  33.7889044  32.8749212   3.5299848  35.2629837
  27.3284217   4.0151638  35.5970131  27.2860396   4.2412484  34.6678663
  28.2446916   3.7815012  35.7455932  30.7749851  -5.5164295  42.4950761
  31.1299238  -5.2892822  43.3545226  31.4221982  -5.1845918  41.8728016
  36.5047587  -2.3945859  33.2000090  36.3665486  -2.2044263  32.2721279
  36.1483806  -1.6326476  33.6568141  36.5316967  -0.3269332  38.2111361
  36.9653474  -0.4194043  39.0594415  37.2448548  -0.3511831  37.5731377
  25.4450017   0.8914667  35.3932094  26.2390616   0.3964987  35.1914669
  24.7341710   0.3632530  35.0299800  30.2644862   3.2732762  39.7444462
  30.3181884   3.8423698  40.5122178  29.3959643   3.4434647  39.3798499
  37.3932517  -0.2845631  40.7444246  37.5868407   0.6200179  40.9903521
  37.2933135  -0.7438212  41.5782831  32.4547625  -0.1338889  46.3185127
  32.3033132  -0.3628337  45.4015211  32.4452305   0.8231713  46.3316472
  29.2232962  -2.5606976  41.3031394  30.1525022  -2.4095816  41.1300361
  28.8023992  -2.4722955  40.4480040  28.0221293   1.4643689  39.0729931
  27.8832379   1.0962473  39.9455869  27.2335890   1.9791328  38.9013889
  28.6169445   6.5652785  30.4155468  28.7921201   6.0940828  31.2301090
  27.9302233   7.1918551  30.6436728  29.5726509   0.8425291  36.4618769
  29.2376341   0.8026061  37.3576419  29.0730454   0.1770007  35.9889179
  34.1639832   2.8980234  44.3961609  34.1052378   2.2139454  43.7292192
  34.5659350   3.6399224  43.9442235  23.1830531   9.7142148  37.1895328
  23.4227129  10.3460672  37.8674346  22.3399727   9.3630188  37.4760687
  34.1657239   0.8619818  42.6275589  33.2784018   0.5245740  42.7501987
  34.7355790   0.1302849  42.8644354  27.6958393   5.5221270  39.5936832
  27.6228564   6.3276242  40.1056136  27.2535786   5.7213236  38.7684853
  27.4848172   4.7593040  33.1039653  26.7015694   5.3014721  33.1977878
  28.1840917   5.2767020  33.5033895  38.6474580  -3.7271965  37.3892150
  38.6364456  -2.8447249  37.0186083  37.7791959  -4.0800414  37.1946687
  30.1557076   5.4208104  41.7494990  30.8685048   6.0555569  41.6770892
  29.6647105   5.5171970  40.9334992  31.8774603  -0.6740643  33.3212282
  30.9430882  -0.5539181  33.1516986  32.0551271  -1.5768176  33.0572292
  35.2647154  -4.8323324  33.8562316  35.7307607  -3.9995332  33.7822619
  35.7154655  -5.2978342  34.5607575  25.2068990   3.1702548  42.5700561
  25.9078449   3.8039031  42.7229956  24.7364105   3.5117279  41.8096201
  33.3323385   1.5120498  30.8548468  33.6083229   1.3977092  31.7642342
  32.4627884   1.1137982  30.8160641  33.0070276  -4.2752845  40.3953112
  32.3541726  -4.0276937  39.7405564  33.3850656  -5.0888707  40.0615589
  29.9677450   5.7606848  34.4981282  30.1499844   4.9428504  34.9609034
  30.7910436   5.9774541  34.0606172  30.3019615   4.6875034  31.7596330
  30.8307381   4.1767488  31.1466493  30.5647835   4.3717564  32.6241863
  29.0557849  -3.5333034  46.8819149  28.3798486  -3.6338904  47.5521524
  29.8785483  -3.6893820  47.3455146  20.8036708   2.7038903  39.5031664
  21.3890145   1.9582591  39.6359568  20.6061546   3.0142860  40.3868328
  23.6575363   5.7390150  34.5194106  22.9885738   6.2236278  34.0358146
  23.5188233   5.9859371  35.4337485  27.7980632   7.7733894  41.1176765
  28.3498940   7.9365515  41.8825850  28.1386825   8.3638332  40.4456790
  32.6491506   2.5995151  46.9725419  33.1931410   3.2125110  46.4780374
  32.0678351   3.1574730  47.4892432  30.9349019   5.7215869  38.1040447
  30.8100158   4.9205609  37.5951392  31.5928110   6.2162063  37.6154417
  32.9983927   3.5224889  39.7319997  32.0514263   3.4030241  39.6598324
  33.3466700   2.6347387  39.8146258  30.0030360   3.3177606  35.9324349
  29.8555323   2.3894313  36.1131919  30.8283854   3.3397696  35.4481424
  33.6064482   4.1406164  37.0189222  34.5311030   3.9349026  36.8813673
  33.4379786   3.8922565  37.9278563  33.3959799   4.6591832  32.3751313
  33.5696676   4.0938254  31.6225166  33.8888690   5.4592727  32.1930803
  39.2499190  -2.5771745  33.9941613  39.6930336  -3.3264420  33.5960736
  38.3725700  -2.5861609  33.6115345  34.3834971   3.9758596  29.4748212
  35.0785876   4.5965289  29.6935526  34.7258121   3.1253947  29.7500590
  36.2826394   1.4258302  31.0035542  36.8077718   1.7645574  30.2784862
  36.1948747   0.4905317  30.8198677  27.9446443   5.3392375  43.1325419
  28.2533569   5.0941522  44.0048119  28.7421925   5.5439014  42.6444289
  27.9667055   7.4930285  35.3630796  27.5272045   7.0006664  36.0563652
  28.7175172   6.9503253  35.1222871  20.4459394   3.6841826  35.3655424
  21.2717414   3.3845598  34.9854067  20.0953446   2.9149448  35.8145212
  35.9720300   2.0591205  46.3086740  35.1815844   2.0415344  45.7691240
  35.7353655   2.5979499  47.0635777  36.0918175  -1.0916328  43.6219469
  36.1416180  -1.2566321  44.5634992  35.9832099  -1.9589069  43.2317350
  24.9754434   1.5872217  30.9111558  25.1242554   2.2707682  30.2578231
  25.7820877   1.5677307  31.4261014  33.3821938  -5.1085400  44.9378776
  34.2831800  -5.2478935  44.6462773  33.4569912  -4.9430945  45.8776953
  37.5936372   1.3280613  43.8661490  37.3021180   1.6910594  44.7024951
  36.9808503   0.6147621  43.6874823  38.7932054  -1.1066507  36.3864061
  39.6278946  -0.6676703  36.5501621  38.9291183  -1.5827854  35.5672306
  35.8423560  -3.5486772  42.3341548  36.3177682  -3.3559126  41.5260400
  34.9189126  -3.4927586  42.0884932  28.4749839   4.0820348  28.3823305
  27.9023807   4.7010535  27.9293777  29.0482633   4.6319710  28.9163227
  34.5425229  -6.6721012  40.5669854  35.4942652  -6.5722914  40.5882078
  34.3728680  -7.4642744  41.0767938  31.6947099   4.3657498  29.5131888
  32.6277772   4.3003060  29.7164763  31.6070312   5.2013765  29.0546420
  34.3235116   3.6823368  26.4735835  34.2448747   3.3483232  27.3671593
  35.1444783   4.1745136  26.4727307  37.0213307  -3.4514892  39.6812154
  36.9889627  -4.3898892  39.8671838  37.6313931  -3.3730856  38.9477979
  42.8389857  -2.3898886  38.8218191  43.5693245  -2.6513597  39.3825894
  42.2296802  -3.1270164  38.8620258  40.9205154  -4.2491023  39.4192642
  40.1938318  -4.3835058  38.8109133  40.5052441  -3.9414194  40.2249360
  28.7435331  -0.5301093  47.1840015  29.6638340  -0.3522494  47.3780061
  28.7084914  -1.4745048  47.0319714  22.4029876   0.2734821  40.0699040
  23.3573129   0.2418763  40.0028972  22.2042400  -0.1874556  40.8849266
  20.7580105   5.8154440  37.0869238  20.6234573   5.0554841  36.5207236
  20.3412167   6.5395340  36.6198027  31.8939068   0.9991364  26.0945813
  32.5974918   1.2041366  26.7103469  31.1701716   1.5668126  26.3594897
  32.7236878  -3.2498775  32.2148084  32.6672079  -2.7930224  31.3755716
  33.2765220  -4.0108090  32.0370926  40.8454022  -4.7212970  35.5469495
  40.2853580  -4.6519781  36.3201057  40.2397525  -4.8971985  34.8268991
  23.9149231   6.7123757  37.2987681  23.7981615   7.6569190  37.1966371
  23.0941677   6.4097319  37.6873480  33.8025765   1.4373893  28.1444273
  34.6371369   1.0055091  27.9621748  33.6410108   1.2655907  29.0721168
  33.4571657  -2.0593994  29.5100613  33.4020461  -2.2249722  28.5689057
  32.8317713  -1.3517961  29.6662803  30.7717564   0.2454918  48.8354176
  31.6408724   0.4195570  48.4740810  30.2924316   1.0649335  48.7129905
  24.9403745   7.3652019  40.5143609  25.8430991   7.3975629  40.8310104
  24.7141115   6.4352470  40.5289945  26.6957347   6.1183006  37.1753688
  25.7452978   6.1184867  37.0618060  26.9989833   5.3715740  36.6589722
  42.4310040  11.9543544  38.2399450  43.0688450  11.8350291  37.5362790
  42.3130883  12.9024388  38.2987402  39.2399747  11.9070972  38.1760975
  38.9018258  11.7912037  37.2881510  40.1089515  11.5062137  38.1561981
  39.7219529  13.0605824  44.1347180  39.7108170  12.6658622  43.2627684
  39.8840169  12.3271896  44.7280952  32.6450994  15.2557640  37.0042086
  33.4372286  14.9148465  36.5888386  32.8847644  15.3652615  37.9244240
  40.6786121  17.4277416  29.4772331  40.0274101  18.0131497  29.0906345
  41.4730484  17.9583611  29.5367368  34.6041748  14.5166553  29.8759465
  35.3772624  13.9695540  29.7372341  34.9567147  15.3810803  30.0873927
  36.4426791  15.8442936  43.0826364  36.1516657  16.7488567  42.9673031
  37.0783775  15.8859463  43.7970434  37.3682997  13.2219784  39.6727724
  37.9646570  12.9975807  38.9584687  37.4257969  12.4804530  40.2753172
  36.9408026  10.6759220  27.5077915  37.1933547  10.1540741  26.7461378
  36.0032585  10.5125365  27.6104599  41.9851309   9.6794998  35.3152658
  42.7714398   9.2614421  34.9643075  42.2490013  10.5841090  35.4834307
  42.1561386  15.1167848  30.0141315  41.5207219  15.1902475  30.7262220
  41.8258792  15.7061447  29.3360394  47.3859736   9.6170231  36.2185637
  48.1184908   9.0469448  36.4523466  46.6299092   9.2291832  36.6592142
  36.6604315  12.5787325  29.7102290  36.5440573  11.9032229  30.3783374
  36.7706575  12.0919699  28.8934443  39.0035856  12.0397473  33.4148979
  38.6394063  11.5128094  34.1261901  39.8602971  11.6495942  33.2415465
  44.9085156   3.3291805  40.6780245  44.5768481   4.1987216  40.4541460
  44.3130770   3.0128089  41.3574276  38.6441343   7.0687372  28.4110328
  38.8115745   7.9367609  28.7780799  38.4538512   7.2314654  27.4871617
  41.4016676  15.5304351  40.0776158  41.1017399  16.4329390  39.9691965
  41.0567735  15.2636534  40.9297311  34.8529157  11.9818148  36.1112863
  33.9279654  11.8494362  36.3190554  35.1013570  12.7612367  36.6082805
  44.8013820   8.0486891  37.7573595  43.8930697   7.9802300  37.4632356
  44.7501415   8.5258836  38.5855421  38.6230563   9.5245030  29.3956995
  38.5030189   9.9702081  30.2342475  37.9283152   9.8730347  28.8370533
  32.2137968  11.6251422  36.9456652  32.3430349  11.8785900  37.8596063
  31.5335420  12.2179130  36.6261307  36.3837456  22.2948672  33.0447126
  36.3061485  23.2456497  33.1235606  35.7799099  21.9494544  33.7022052
  38.8754685   9.4676537  45.7008493  38.0988019  10.0270457  45.6911357
  39.5145248   9.9533320  46.2223363  46.6675466   6.2503330  39.5351469
  46.0249846   6.5435863  38.8891264  46.1630394   6.1356250  40.3404666
  44.3215630   9.9966503  30.2237329  45.2333486  10.2293890  30.0485026
  43.8125277  10.5803547  29.6612407  37.1301058  12.2761990  45.2626460
  37.8715742  12.8147034  44.9861283  36.4238043  12.9028279  45.4198012
  42.6056397  14.4191131  43.8598621  43.0139753  13.9773541  43.1153254
  41.8833659  13.8443758  44.1132814  38.9587467   9.3563738  41.2332178
  39.8048662   9.7803151  41.3766827  38.8986105   8.6997362  41.9270741
  42.9285212  14.9792321  37.6150910  42.2994074  15.1438036  36.9126978
  42.5410874  15.3933931  38.3861874  46.8074444  15.9146759  34.9695274
  46.1225482  16.2945661  34.4192307  46.8918293  16.5242086  35.7027222
  42.1086913   7.0168106  42.8913352  41.8647844   7.7710166  42.3547627
  42.3846843   7.3953454  43.7260599  44.0625375  13.5606718  41.5690617
  44.2742271  14.2038478  40.8924998  44.0155124  12.7269035  41.1012547
  41.6651604   6.1724539  38.4727190  40.8036083   6.4705792  38.7643927
  41.6914039   6.3894938  37.5408222  38.4813174  14.7166729  34.8800995
  38.9451519  14.9954432  34.0905618  38.2169972  13.8150174  34.6974086
  35.3737255  14.2638211  37.8180758  35.9438612  14.6925479  37.1798243
  35.9645367  13.9820796  38.5164944  37.4182060  10.8389882  31.6890560
  38.1206103  11.2910926  32.1564487  37.0862688  10.1973701  32.3170453
  35.8662421   9.4301638  46.0641770  35.2361082  10.1117919  46.2977167
  35.7598509   9.3184720  45.1194908  31.1607394   9.0973435  36.9907694
  30.3706448   9.3530963  36.5147805  31.6518641   9.9121772  37.0959734
  45.1771203  16.4378674  39.7412975  45.9988647  16.0358861  39.4595656
  45.1733606  16.3346908  40.6929091  33.1122139   9.4618014  33.9491171
  32.3153302   9.5736708  34.4674666  32.8847731   9.8004666  33.0832061
  38.9427807  15.9862717  41.8973685  39.0072239  16.4483124  42.7331857
  38.2338731  15.3560082  42.0255995  29.4445097   9.3503925  39.4222685
  29.6953135  10.2350935  39.6880261  29.9804645   9.1708526  38.6497777
  53.2677196  12.7817422  36.0897946  52.5140905  12.2124820  35.9341951
  53.4024738  12.7480087  37.0368581  38.6575824  17.6530824  31.7652666
  38.5221499  18.4982360  32.1937513  39.1985637  17.8550102  31.0018599
  35.1443164   3.7322404  48.4267021  34.7510110   3.1788603  49.1014665
  35.9609304   4.0432983  48.8173538  32.1105222  15.1706263  32.3380591
  32.6229742  15.9649513  32.4886155  32.7627935  14.4732553  32.2714192
  33.9200107  18.2872019  34.4203344  34.0966735  19.2089983  34.2324328
  34.7156940  17.9730438  34.8497724  38.0611125   5.1480283  46.0187277
  38.8020838   5.7487437  45.9391740  38.2929048   4.4057921  45.4605320
  33.2052463  10.3336651  44.2965507  33.0905978   9.4321908  44.5972606
  32.3496981  10.5800347  43.9450324  40.2844301  18.2754391  45.8953008
  39.8408155  17.4890770  45.5773912  40.9461514  18.4633541  45.2296898
  35.0431422  19.8050193  40.4213686  35.5938847  19.6767256  39.6490680
  34.2042898  20.1045082  40.0708579  42.3825539  18.5557191  43.9234409
  42.3644014  19.3766072  43.4314678  43.3045459  18.4311266  44.1484550
  38.8398593  16.0701320  44.7657917  39.3726930  15.3089609  44.5357225
  38.3112674  15.7774972  45.5082072  42.0068288   1.1761386  40.2951559
  41.6632557   2.0663028  40.2190670  42.3747251   0.9863044  39.4321144
  30.0754139  13.4994917  33.1140161  30.9129361  13.9091925  32.8973869
  30.2532406  12.5594359  33.0840355  41.9718571  11.1669997  28.8023994
  41.4565194  11.9374602  29.0412382  41.6995879  10.4935134  29.4257056
  39.5565682   6.0119698  33.8609233  38.7007278   5.6226549  33.6814871
  39.9692634   6.0911659  33.0009018  41.0864828   3.5466042  38.2600792
  40.5829624   3.5096177  37.4468598  41.3795435   4.4558784  38.3197449
  37.3307714   3.6304771  37.2666974  38.1960711   3.4347580  36.9072863
  37.3985223   3.4015123  38.1936331  46.9452845  13.9202352  30.7377168
  46.1682288  13.5813512  30.2932330  47.6244326  13.9254975  30.0632133
  41.7604874   9.0397090  30.6283775  41.4555009   9.3543239  31.4793918
  42.7135316   9.1178509  30.6711108  40.2051306  15.1987313  32.2776729
  39.6772667  14.4640072  31.9649967  39.7038808  15.9761989  32.0316698
  45.1844152  13.3936333  37.3943776  44.5267826  14.0835595  37.4823904
  45.9884551  13.7832765  37.7377762  34.9370033   5.8606979  34.6383341
  35.5113785   5.6382161  33.9056534  35.5241016   5.9295674  35.3911942
  43.9949611  11.7480706  35.4447717  44.5081492  12.3810698  35.9469427
  44.6450834  11.1481902  35.0791077  35.2639620   7.8911440  28.6579226
  34.4276933   8.2286127  28.9788501  35.1244390   7.7560420  27.7206363
  37.2392701   2.7348228  33.3658410  36.5857113   2.4197245  32.7415025
  37.1973175   2.1123969  34.0918233  38.3503906  13.0167523  25.2811702
  37.4430968  12.7856777  25.4802851  38.8474938  12.2205142  25.4685684
  41.2571985  21.7265030  28.2008388  40.5833684  22.0296727  28.8093346
  41.6437807  22.5294111  27.8513846  40.4730441   9.2230162  37.6906058
  39.5553003   9.4445109  37.5327746  40.8890585   9.2976472  36.8317765
  41.2565489  10.6221577  32.8208738  42.0037308  11.1342975  32.5115860
  41.5257079  10.3005630  33.6813132  39.5292139  13.1180118  29.8035692
  38.6203359  12.8339151  29.9008162  39.5587223  13.5379197  28.9438999
  44.7611407  16.7286708  33.5726860  44.3073734  15.8877617  33.6292050
  44.1305373  17.3648106  33.9101640  43.7044326   7.6578694  34.8027527
  42.9667083   7.1456080  35.1337770  43.9571100   7.2179075  33.9910804
  43.2044346  18.5663204  34.5076678  43.4967320  19.1268261  33.7889044
  43.7142967  18.8591765  35.2629837  43.8055954   0.4354946  35.3969297
  44.1114830  -0.4247691  35.1095212  44.5308558   1.0272566  35.1968291
  30.0980310  10.8385632  33.7850895  29.9004710  10.2454993  33.0601961
  29.5426974  10.5337842  34.5026833  38.0777033  10.7308739  35.9045488
  38.1325643   9.7782575  35.8287964  37.2668235  10.8868178  36.3886786
  39.2268227  14.6588862  27.1423771  38.7887657  13.9424721  26.6829408
  39.9678668  14.8864977  26.5808862  36.0169393   9.3485798  33.6635867
  35.2037259   9.6479969  34.0701059  36.5128388   8.9541487  34.3810349
  38.1677971  19.3443555  35.5970131  38.1254150  19.5704402  34.6678663
  39.0840670  19.1106930  35.7455932  41.6143605   9.8127623  42.4950761
  41.9692993  10.0399096  43.3545226  42.2615736  10.1446000  41.8728016
  47.3441342  12.9346059  33.2000090  47.2059241  13.1247655  32.2721279
  46.9877561  13.6965442  33.6568141  35.5083468   6.9204154  39.2797102
  36.1482847   6.7792913  38.5820065  34.6760999   6.6338667  38.9035704
  47.3710722  15.0022586  38.2111361  47.8047228  14.9097875  39.0594415
  48.0842302  14.9780086  37.5731377  36.2843772  16.2206584  35.3932094
  37.0784370  15.7256904  35.1914669  35.5735464  15.6924447  35.0299800
  41.1038616  18.6024680  39.7444462  41.1575639  19.1715616  40.5122178
  40.2353398  18.7726565  39.3798499  32.5926535  10.3649666  31.4691847
  31.6624124  10.3034122  31.6861809  32.6884007   9.8425619  30.6728488
  32.5112084   6.8904479  34.0570088  32.7718902   7.8049812  33.9479249
  33.3329257   6.4228921  34.2066701  33.9837010   8.3042236  41.2268913
  34.6560063   8.0959598  40.5781562  33.1566796   8.1064322  40.7874145
  48.2326271  15.0446286  40.7444246  48.4262161  15.9492097  40.9903521
  48.1326889  14.5853705  41.5782831  39.8862582   4.9304177  43.2434574
  39.2390497   5.6294127  43.1499050  40.6563597   5.3640321  43.6110822
  43.2941380  15.1953029  46.3185127  43.1426886  14.9663581  45.4015211
  43.2846059  16.1523631  46.3316472  40.0626716  12.7684942  41.3031394
  40.9918776  12.9196101  41.1300361  39.6417746  12.8568963  40.4480040
  38.8615048  16.7935606  39.0729931  38.7226134  16.4254391  39.9455869
  38.0729644  17.3083246  38.9013889  39.4563200  21.8944703  30.4155468
  39.6314956  21.4232746  31.2301090  38.7695988  22.5210469  30.6436728
  40.4120263  16.1717209  36.4618769  40.0770096  16.1317979  37.3576419
  39.9124209  15.5061925  35.9889179  34.3864507  11.5784839  41.9871350
  34.2484305  10.8465078  42.5882889  35.2969431  11.4893739  41.7055538
  43.3479455  13.5173243  26.7355829  42.7308625  12.7920071  26.6388881
  42.8795943  14.2782604  26.3922903  37.0146808  11.2904798  41.4755030
  37.7246426  10.6497991  41.4341648  36.9716116  11.5417693  42.3981211
  45.0033586  18.2272152  44.3961609  44.9446133  17.5431372  43.7292192
  45.4053105  18.9691142  43.9442235  35.7275742   8.2770016  43.2950669
  35.1913099   7.8260755  43.9472266  35.1392450   8.4115925  42.5521134
  34.0224285  25.0434066  37.1895328  34.2620883  25.6752590  37.8674346
  33.1793482  24.6922106  37.4760687  35.1378001   7.7358668  25.8577133
  34.2607467   7.6147468  25.4939380  35.6135754   6.9444746  25.6056022
  45.0050994  16.1911736  42.6275589  44.1177772  15.8537657  42.7501987
  45.5749545  15.4594767  42.8644354  31.4614863   7.4126024  40.3803664
  31.3773052   6.8051693  39.6454074  30.6397569   7.9035042  40.3813160
  38.5352147  20.8513188  39.5936832  38.4622319  21.6568159  40.1056136
  38.0929540  21.0505154  38.7684853  38.3241927  20.0884958  33.1039653
  37.5409449  20.6306638  33.1977878  39.0234672  20.6058938  33.5033895
  41.6338577   5.8979587  35.7473859  42.1307276   5.1449550  35.4274929
  40.8625558   5.9343904  35.1817068  49.4868334  11.6019953  37.3892150
  49.4758210  12.4844668  37.0186083  48.6185714  11.2491504  37.1946687
  40.9950831  20.7500022  41.7494990  41.7078803  21.3847487  41.6770892
  40.5040859  20.8463888  40.9334992  42.7168358  14.6551275  33.3212282
  41.7824636  14.7752737  33.1516986  42.8945026  13.7523741  33.0572292
  38.2173546   8.0396970  35.4745543  37.8471333   7.4868011  36.1626449
  38.7132638   7.4355104  34.9220543  46.1040909  10.4968594  33.8562316
  46.5701361  11.3296586  33.7822619  46.5548409  10.0313576  34.5607575
  36.0462744  18.4994465  42.5700561  36.7472204  19.1330948  42.7229956
  35.5757859  18.8409197  41.8096201  44.1717140  16.8412415  30.8548468
  44.4476984  16.7269010  31.7642342  43.3021639  16.4429900  30.8160641
  44.0757572   2.8649181  37.8953218  43.1620651   3.0953408  38.0635425
  44.5050673   2.9487625  38.7467250  43.8464030  11.0539073  40.3953112
  43.1935480  11.3014980  39.7405564  44.2244410  10.2403211  40.0615589
  40.8071204  21.0898766  34.4981282  40.9893599  20.2720422  34.9609034
  41.6304190  21.3066458  34.0606172  41.1413369  20.0166951  31.7596330
  41.6701136  19.5059406  31.1466493  41.4041589  19.7009481  32.6241863
  39.8951603  11.7958884  46.8819149  39.2192240  11.6953013  47.5521524
  40.7179237  11.6398098  47.3455146  31.6430462  18.0330820  39.5031664
  32.2283899  17.2874508  39.6359568  31.4455301  18.3434777  40.3868328
  34.4969117  21.0682068  34.5194106  33.8279493  21.5528196  34.0358146
  34.3581987  21.3151288  35.4337485  26.2348117  10.6036421  38.2236107
  26.2732216  10.0700011  39.0173225  25.7288410  10.0771626  37.6047084
  38.6374386  23.1025811  41.1176765  39.1892694  23.2657433  41.8825850
  38.9780579  23.6930249  40.4456790  33.6138879   5.4500961  41.7198649
  33.6780206   6.3115792  41.3076047  33.5505999   4.8374963  40.9871008
  33.0891152   7.5224094  45.3671684  33.7163191   7.1401171  45.9809208
  32.2319071   7.3038296  45.7327376  43.4885260  17.9287069  46.9725419
  44.0325164  18.5417027  46.4780374  42.9072105  18.4866647  47.4892432
  29.8656695   9.3300523  31.2990039  30.1610136   8.4211201  31.2457092
  28.9644730   9.3088262  30.9771041  41.7742773  21.0507787  38.1040447
  41.6493913  20.2497527  37.5951392  42.4321864  21.5453980  37.6154417
  33.3950942   7.4056519  37.2817587  32.6737527   8.0192487  37.1425060
  34.1844197   7.9414284  37.2034233  43.8377682  18.8516807  39.7319997
  42.8908017  18.7322158  39.6598324  44.1860455  17.9639305  39.8146258
  36.1977255   4.7410946  43.5558239  36.7211657   4.9873242  44.3184548
  35.9789588   5.5730981  43.1361376  31.5944536   7.0114621  31.4229364
  31.2657242   6.1311999  31.2404470  31.9483907   6.9562289  32.3105753
  40.8424115  18.6469523  35.9324349  40.6949077  17.7186231  36.1131919
  41.6677608  18.6689614  35.4481424  34.7086359   7.2987590  31.7904841
  35.0482432   7.8273512  31.0683450  35.1558480   7.6367996  32.5663408
  44.4458237  19.4698082  37.0189222  45.3704784  19.2640943  36.8813673
  44.2773540  19.2214483  37.9278563  37.4029800   5.6824641  41.2407909
  37.0626620   4.8832454  41.6428589  36.6968806   5.9826352  40.6684743
  38.0546272   2.7673953  39.6935232  38.8772341   2.2934432  39.5714123
  38.2984335   3.5464437  40.1933919  36.6954506   5.7962212  29.9898134
  37.4162869   6.1743465  29.4861851  36.0719811   6.5151089  30.0933112
  40.8385629   6.5007361  30.9256466  41.0549244   7.3831999  30.6245295
  40.3579696   6.1093574  30.1962108  35.5784851   9.4593074  37.5027211
  35.4329431   9.7733377  38.3951493  35.1010054  10.0777974  36.9498110
  37.4381234   6.4495622  37.5508101  37.4242802   5.5536715  37.2140399
  38.1553662   6.4566286  38.1846387  39.2907364   6.8832962  39.5961228
  39.0325142   7.8050033  39.5945558  38.7592405   6.4863397  40.2861692
  44.2353553  19.9883749  32.3751313  44.4090431  19.4230172  31.6225166
  44.7282444  20.7884644  32.1930803  30.0530513  11.9998419  40.4414872
  29.5083981  12.7758226  40.5735147  30.9309863  12.3469223  40.2833994
  36.8418129   5.3310002  32.8195671  36.9634041   4.4026649  33.0186558
  36.5520172   5.3448688  31.9073986  39.7109320   3.0164913  35.9562391
  39.7331017   3.0804246  35.0014370  40.1277379   2.1769421  36.1502897
  50.0892944  12.7520172  33.9941613  50.5324090  12.0027498  33.5960736
  49.2119454  12.7430309  33.6115345  45.2228726  19.3050514  29.4748212
  45.9179630  19.9257207  29.6935526  45.5651876  18.4545865  29.7500590
  30.8396535  11.1268315  43.3345029  30.0978271  11.2750950  43.9209659
  30.5189279  11.3876580  42.4711778  47.1220149  16.7550219  31.0035542
  47.6471473  17.0937492  30.2784862  47.0342501  15.8197235  30.8198677
  38.7840197  20.6684293  43.1325419  39.0927324  20.4233440  44.0048119
  39.5815679  20.8730931  42.6444289  38.8060809  22.8222203  35.3630796
  38.3665800  22.3298581  36.0563652  39.5568926  22.2795170  35.1222871
  31.2853148  19.0133743  35.3655424  32.1111168  18.7137515  34.9854067
  30.9347200  18.2441366  35.8145212  36.2534682  18.3660212  37.4353097
  35.6314691  17.7030917  37.1355325  36.9239548  18.3921344  36.7526745
  29.4861753  16.9320070  36.3244357  28.6493662  16.5042244  36.1428359
  29.4585399  17.1252513  37.2615148  36.3259209   6.8442000  47.0285603
  36.3747365   7.7204123  46.6463373  36.8681723   6.3019393  46.4557247
  46.8114055  17.3883123  46.3086740  46.0209598  17.3707262  45.7691240
  46.5747409  17.9271417  47.0635777  46.9311930  14.2375589  43.6219469
  46.9809935  14.0725597  44.5634992  46.8225853  13.3702848  43.2317350
  35.8148188  16.9164135  30.9111558  35.9636309  17.5999599  30.2578231
  36.6214632  16.8969225  31.4261014  44.2215692  10.2206517  44.9378776
  45.1225555  10.0812982  44.6462773  44.2963667  10.3860972  45.8776953
  38.5558497   7.5973372  43.7831962  37.6861807   7.8906938  43.5114551
  38.7917978   8.1813817  44.5039226  48.4330127  16.6572531  43.8661490
  48.1414935  17.0202511  44.7024951  47.8202258  15.9439539  43.6874823
  49.6325809  14.2225411  36.3864061  50.4672700  14.6615215  36.5501621
  49.7684938  13.7464064  35.5672306  46.6817315  11.7805146  42.3341548
  47.1571436  11.9732792  41.5260400  45.7582880  11.8364331  42.0884932
  33.5700821  12.9429313  31.9172627  33.3246863  12.0391643  32.1152837
  33.7396736  12.9446463  30.9752105  41.2597531   3.8152989  41.2997382
  41.7779475   4.5514016  40.9743871  40.9052664   4.1216982  42.1344141
  32.8396469   8.6757670  29.4158788  32.1465714   8.7502025  28.7598824
  32.5948221   7.9118014  29.9380305  41.5110125   0.2353272  36.8198279
  41.7911879  -0.4323539  37.4458705  42.2960732   0.4282367  36.3072943
  39.3143594  19.4112266  28.3823305  38.7417561  20.0302453  27.9293777
  39.8876388  19.9611627  28.9163227  45.3818984   8.6570906  40.5669854
  46.3336407   8.7569003  40.5882078  45.2122434   7.8649174  41.0767938
  43.4033363   5.7426489  40.7529255  42.8083295   6.0231502  40.0575744
  43.1183060   6.2320390  41.5245996  42.5340854  19.6949416  29.5131888
  43.4671527  19.6294977  29.7164763  42.4464067  20.5305682  29.0546420
  45.1628870  19.0115286  26.4735835  45.0842502  18.6775150  27.3671593
  45.9838537  19.5037054  26.4727307  47.8607062  11.8777025  39.6812154
  47.8283382  10.9393026  39.8671838  48.4707685  11.9561062  38.9477979
  39.6990392  10.7473078  25.7239358  40.6449497  10.6179286  25.7927776
  39.3204637  10.0087740  26.2008786  45.6712277   2.4129084  35.6866250
  45.4737098   2.1044172  36.5709582  46.2811983   3.1390723  35.8164179
  53.6783611  12.9393032  38.8218191  54.4087000  12.6778320  39.3825894
  53.0690557  12.2021754  38.8620258  51.7598909  11.0800895  39.4192642
  51.0332072  10.9456860  38.8109133  51.3446195  11.3877723  40.2249360
  39.5829085  14.7990824  47.1840015  40.5032094  14.9769423  47.3780061
  39.5478668  13.8546870  47.0319714  37.8833310   8.6723055  25.6594243
  36.9764765   8.3756167  25.7356957  38.1609291   8.3752873  24.7928529
  28.8011250   9.9929418  36.1093289  28.4814034   9.1394726  35.8167663
  28.2544678  10.2077996  36.8651257  32.5791158  12.7091859  39.8262796
  32.7977167  13.6408967  39.8450830  32.9916931  12.3499833  40.6117600
  39.4995375   3.2159944  31.8138484  38.6896104   2.8707029  32.1893730
  40.1879792   2.9067488  32.4026096  41.4285924   2.2937991  33.4362781
  41.9816962   2.7133445  34.0952804  41.6656010   1.3673739  33.4785737
  37.4519023   8.2825065  49.2165545  37.3515750   9.2319422  49.1477636
  37.2340565   7.9543304  48.3441615  36.6532094   5.5309990  25.8006222
  37.5151258   5.8564888  26.0602040  36.8382438   4.7441486  25.2879288
  28.6699510  13.6132330  38.0786411  27.9762981  13.1986282  37.5656365
  29.4172501  13.6552866  37.4819830  44.8064731   4.4038516  32.9441445
  44.2263400   5.0623320  32.5619498  44.5400663   3.5815861  32.5328863
  43.2568297   3.8043574  35.1462766  43.7568075   3.9160109  34.3377084
  43.9003905   3.5004627  35.7863574  37.3150293  11.7122204  48.0330606
  36.8317375  12.5122564  48.2394496  37.4011232  11.7230149  47.0798050
  30.5836253  13.5450583  35.9552426  30.5606941  13.6438271  35.0034309
  30.8936889  14.3915734  36.2769592  33.2423630  15.6026738  40.0699040
  34.1966884  15.5710681  40.0028972  33.0436154  15.1417362  40.8849266
  33.8323013  14.1727854  42.6369838  34.6515902  14.6671933  42.6604675
  34.1059820  13.2559823  42.6087405  43.5889609   6.5638607  31.9997793
  42.7015464   6.8488257  31.7817988  44.0043598   6.4032370  31.1525070
  46.9404145   6.5885128  35.7152133  47.7164535   7.0781580  35.9876750
  46.2152279   7.0143182  36.1724002  49.3776704   7.3012747  36.7726073
  49.9721194   7.0608483  36.0619382  49.4503287   6.5819877  37.3999610
  31.5973859  21.1446358  37.0869238  31.4628327  20.3846759  36.5207236
  31.1805921  21.8687258  36.6198027  42.7332822  16.3283281  26.0945813
  43.4368672  16.5333284  26.7103469  42.0095471  16.8960043  26.3594897
  43.5630632  12.0793143  32.2148084  43.5065834  12.5361694  31.3755716
  44.1158975  11.3183827  32.0370926  47.3735438   7.8682875  33.0398203
  47.1172373   7.4679510  33.8706411  46.7488306   8.5826668  32.9148342
  51.6847776  10.6078948  35.5469495  51.1247334  10.6772137  36.3201057
  51.0791280  10.4319932  34.8268991  34.7542985  22.0415675  37.2987681
  34.6375369  22.9861107  37.1966371  33.9335431  21.7389236  37.6873480
  44.6419520  16.7665811  28.1444273  45.4765124  16.3347009  27.9621748
  44.4803863  16.5947824  29.0721168  44.2965412  13.2697924  29.5100613
  44.2414216  13.1042195  28.5689057  43.6711467  13.9773957  29.6662803
  29.0857927   8.5065988  43.3362035  29.7316790   7.9964942  43.8249260
  28.8775078   9.2434670  43.9105460  41.6111319  15.5746836  48.8354176
  42.4802479  15.7487488  48.4740810  41.1318070  16.3941253  48.7129905
  37.6061537   2.7706033  29.0885931  37.5940207   3.7147873  29.2454202
  38.4984959   2.5876178  28.7945392  35.7797499  22.6943937  40.5143609
  36.6824746  22.7267547  40.8310104  35.5534869  21.7644388  40.5289945
  37.5351101  21.4474923  37.1753688  36.5846732  21.4476785  37.0618060
  37.8383587  20.7007658  36.6589722  41.4213657  -0.6351190  33.3431868
  40.6546053  -1.1892704  33.4888550  41.8324362  -0.5629322  34.2046020
  33.4255418   5.6533605  47.4337049  34.2886879   5.2970410  47.6440374
  32.8520828   5.3147500  48.1212453  53.2703795  27.2835462  38.2399450
  53.9082205  27.1642209  37.5362790  53.1524638  28.2316306  38.2987402
  50.0793501  27.2362890  38.1760975  49.7412013  27.1203955  37.2881510
  50.9483269  26.8354055  38.1561981  45.9380317  29.0898366  34.1657866
  45.3745182  28.9988303  33.3974154  45.8232712  28.2698271  34.6460358
  50.5613284  28.3897742  44.1347180  50.5501925  27.9950540  43.2627684
  50.7233923  27.6563814  44.7280952  51.5179875  32.7569334  29.4772331
  50.8667855  33.3423414  29.0906345  52.3124238  33.2875529  29.5367368
  45.4435503  29.8458471  29.8759465  46.2166379  29.2987458  29.7372341
  45.7960901  30.7102720  30.0873927  47.2820545  31.1734853  43.0826364
  46.9910411  32.0780484  42.9673031  47.9177529  31.2151381  43.7970434
  48.2076752  28.5511702  39.6727724  48.8040324  28.3267724  38.9584687
  48.2651724  27.8096447  40.2753172  47.7801780  26.0051137  27.5077915
  48.0327301  25.4832658  26.7461378  46.8426339  25.8417283  27.6104599
  52.8245063  25.0086916  35.3152658  53.6108152  24.5906339  34.9643075
  53.0883768  25.9133008  35.4834307  52.9955141  30.4459766  30.0141315
  52.3600974  30.5194392  30.7262220  52.6652547  31.0353365  29.3360394
  58.2253490  24.9462149  36.2185637  58.9578662  24.3761366  36.4523466
  57.4692846  24.5583749  36.6592142  47.4998069  27.9079243  29.7102290
  47.3834327  27.2324147  30.3783374  47.6100329  27.4211617  28.8934443
  49.8429610  27.3689390  33.4148979  49.4787817  26.8420011  34.1261901
  50.6996726  26.9787859  33.2415465  55.7478911  18.6583723  40.6780245
  55.4162235  19.5279134  40.4541460  55.1524524  18.3420007  41.3574276
  49.4835097  22.3979290  28.4110328  49.6509499  23.2659526  28.7780799
  49.2932266  22.5606572  27.4871617  52.2410430  30.8596269  40.0776158
  51.9411153  31.7621308  39.9691965  51.8961490  30.5928452  40.9297311
  45.6922912  27.3110066  36.1112863  44.7673408  27.1786280  36.3190554
  45.9407325  28.0904285  36.6082805  49.4624318  24.8536947  29.3956995
  49.3423943  25.2993998  30.2342475  48.7676906  25.2022265  28.8370533
  43.0531723  26.9543339  36.9456652  43.1824104  27.2077818  37.8596063
  42.3729174  27.5471047  36.6261307  49.7148440  24.7968455  45.7008493
  48.9381774  25.3562375  45.6911357  50.3539003  25.2825238  46.2223363
  57.5069220  21.5795247  39.5351469  56.8643601  21.8727781  38.8891264
  57.0024149  21.4648168  40.3404666  55.1609384  25.3258421  30.2237329
  56.0727240  25.5585807  30.0485026  54.6519031  25.9095465  29.6612407
  47.9694812  27.6053908  45.2626460  48.7109496  28.1438952  44.9861283
  47.2631798  28.2320197  45.4198012  49.7981222  24.6855655  41.2332178
  50.6442417  25.1095069  41.3766827  49.7379859  24.0289280  41.9270741
  52.9480667  22.3460024  42.8913352  52.7041599  23.1002084  42.3547627
  53.2240598  22.7245371  43.7260599  52.5045359  21.5016457  38.4727190
  51.6429838  21.7997710  38.7643927  52.5307793  21.7186855  37.5408222
  49.3206928  30.0458647  34.8800995  49.7845274  30.3246350  34.0905618
  49.0563726  29.1442092  34.6974086  46.2131009  29.5930129  37.8180758
  46.7832366  30.0217397  37.1798243  46.8039121  29.3112713  38.5164944
  48.2575814  26.1681800  31.6890560  48.9599858  26.6202843  32.1564487
  47.9256443  25.5265618  32.3170453  46.7056176  24.7593556  46.0641770
  46.0754836  25.4409837  46.2977167  46.5992264  24.6476638  45.1194908
  42.0001148  24.4265352  36.9907694  41.2100202  24.6822881  36.5147805
  42.4912396  25.2413690  37.0959734  43.9515894  24.7909931  33.9491171
  43.1547057  24.9028626  34.4674666  43.7241486  25.1296584  33.0832061
  49.7821561  31.3154635  41.8973685  49.8465994  31.7775042  42.7331857
  49.0732485  30.6852000  42.0255995  40.2838851  24.6795843  39.4222685
  40.5346890  25.5642853  39.6880261  40.8198400  24.5000444  38.6497777
  64.1070951  28.1109340  36.0897946  63.3534659  27.5416738  35.9341951
  64.2418492  28.0772004  37.0368581  49.4969579  32.9822742  31.7652666
  49.3615254  33.8274278  32.1937513  50.0379391  33.1842020  31.0018599
  45.9836919  19.0614322  48.4267021  45.5903864  18.5080521  49.1014665
  46.8003059  19.3724900  48.8173538  42.9498976  30.4998180  32.3380591
  43.4623497  31.2941430  32.4886155  43.6021689  29.8024471  32.2714192
  44.7593861  33.6163936  34.4203344  44.9360489  34.5381901  34.2324328
  45.5550695  33.3022356  34.8497724  48.9004880  20.4772201  46.0187277
  49.6414593  21.0779354  45.9391740  49.1322802  19.7349839  45.4605320
  44.0446218  25.6628568  44.2965507  43.9299733  24.7613826  44.5972606
  43.1890735  25.9092265  43.9450324  45.8825176  35.1342110  40.4213686
  46.4332602  35.0059174  39.6490680  45.0436652  35.4336999  40.0708579
  49.6792348  31.3993238  44.7657917  50.2120684  30.6381526  44.5357225
  49.1506429  31.1066890  45.5082072  52.8462042  16.5053304  40.2951559
  52.5026312  17.3954946  40.2190670  53.2141005  16.3154962  39.4321144
  40.9147893  28.8286834  33.1140161  41.7523115  29.2383843  32.8973869
  41.0926161  27.8886277  33.0840355  52.8112325  26.4961915  28.8023994
  52.2958949  27.2666520  29.0412382  52.5389634  25.8227051  29.4257056
  50.3959436  21.3411616  33.8609233  49.5401033  20.9518466  33.6814871
  50.8086388  21.4203577  33.0009018  51.9258583  18.8757959  38.2600792
  51.4223378  18.8388094  37.4468598  52.2189190  19.7850702  38.3197449
  48.1701469  18.9596689  37.2666974  49.0354466  18.7639498  36.9072863
  48.2378978  18.7307041  38.1936331  52.5998628  24.3689007  30.6283775
  52.2948764  24.6835156  31.4793918  53.5529071  24.4470427  30.6711108
  51.0445060  30.5279231  32.2776729  50.5166422  29.7931990  31.9649967
  50.5432563  31.3053907  32.0316698  45.7763788  21.1898897  34.6383341
  46.3507540  20.9674078  33.9056534  46.3634770  21.2587591  35.3911942
  54.8343365  27.0772624  35.4447717  55.3475247  27.7102616  35.9469427
  55.4844589  26.4773819  35.0791077  46.1033375  23.2203358  28.6579226
  45.2670687  23.5578044  28.9788501  45.9638145  23.0852338  27.7206363
  48.0786456  18.0640146  33.3658410  47.4250868  17.7489163  32.7415025
  48.0366930  17.4415886  34.0918233  49.1897660  28.3459441  25.2811702
  48.2824722  28.1148694  25.4802851  49.6868692  27.5497060  25.4685684
  51.3124196  24.5522079  37.6906058  50.3946757  24.7737026  37.5327746
  51.7284340  24.6268390  36.8317765  52.0959244  25.9513495  32.8208738
  52.8431063  26.4634892  32.5115860  52.3650833  25.6297548  33.6813132
  50.3685894  28.4472036  29.8035692  49.4597113  28.1631069  29.9008162
  50.3980978  28.8671114  28.9438999  54.5438081  22.9870611  34.8027527
  53.8060838  22.4747997  35.1337770  54.7964854  22.5470993  33.9910804
  54.6449708  15.7646863  35.3969297  54.9508585  14.9044227  35.1095212
  55.3702313  16.3564483  35.1968291  40.9374064  26.1677550  33.7850895
  40.7398464  25.5746911  33.0601961  40.3820728  25.8629760  34.5026833
  48.9170788  26.0600656  35.9045488  48.9719398  25.1074493  35.8287964
  48.1061990  26.2160095  36.3886786  50.0661982  29.9880779  27.1423771
  49.6281412  29.2716638  26.6829408  50.8072423  30.2156894  26.5808862
  46.8563148  24.6777716  33.6635867  46.0431013  24.9771887  34.0701059
  47.3522142  24.2833405  34.3810349  49.0071726  34.6735473  35.5970131
  48.9647904  34.8996319  34.6678663  49.9234425  34.4398848  35.7455932
  46.3477223  22.2496072  39.2797102  46.9876602  22.1084831  38.5820065
  45.5154753  21.9630585  38.9035704  47.1237526  31.5498502  35.3932094
  47.9178125  31.0548822  35.1914669  46.4129219  31.0216365  35.0299800
  51.9432371  33.9316598  39.7444462  51.9969393  34.5007534  40.5122178
  51.0747152  34.1018483  39.3798499  43.4320290  25.6941584  31.4691847
  42.5017878  25.6326039  31.6861809  43.5277762  25.1717536  30.6728488
  43.3505839  22.2196397  34.0570088  43.6112656  23.1341730  33.9479249
  44.1723011  21.7520839  34.2066701  44.8230764  23.6334154  41.2268913
  45.4953818  23.4251516  40.5781562  43.9960551  23.4356240  40.7874145
  50.7256336  20.2596095  43.2434574  50.0784251  20.9586044  43.1499050
  51.4957352  20.6932239  43.6110822  50.9020471  28.0976860  41.3031394
  51.8312531  28.2488019  41.1300361  50.4811501  28.1860880  40.4480040
  49.7008802  32.1227524  39.0729931  49.5619888  31.7546308  39.9455869
  48.9123399  32.6375163  38.9013889  45.2258262  26.9076757  41.9871350
  45.0878060  26.1756996  42.5882889  46.1363185  26.8185657  41.7055538
  54.1873209  28.8465161  26.7355829  53.5702380  28.1211989  26.6388881
  53.7189698  29.6074521  26.3922903  47.8540562  26.6196716  41.4755030
  48.5640181  25.9789908  41.4341648  47.8109870  26.8709611  42.3981211
  46.5669496  23.6061934  43.2950669  46.0306853  23.1552672  43.9472266
  45.9786205  23.7407843  42.5521134  45.9771755  23.0650585  25.8577133
  45.1001221  22.9439386  25.4939380  46.4529508  22.2736664  25.6056022
  42.3008617  22.7417942  40.3803664  42.2166806  22.1343611  39.6454074
  41.4791324  23.2326960  40.3813160  49.3745902  36.1805106  39.5936832
  49.3016073  36.9860077  40.1056136  48.9323295  36.3797071  38.7684853
  52.4732331  21.2271505  35.7473859  52.9701031  20.4741467  35.4274929
  51.7019313  21.2635822  35.1817068  49.0567300  23.3688888  35.4745543
  48.6865088  22.8159928  36.1626449  49.5526393  22.7647022  34.9220543
  56.9434663  25.8260512  33.8562316  57.4095116  26.6588503  33.7822619
  57.3942164  25.3605493  34.5607575  46.8856499  33.8286383  42.5700561
  47.5865958  34.4622866  42.7229956  46.4151614  34.1701115  41.8096201
  54.9151326  18.1941099  37.8953218  54.0014406  18.4245325  38.0635425
  55.3444428  18.2779543  38.7467250  44.4532634  20.7792879  41.7198649
  44.5173960  21.6407710  41.3076047  44.3899754  20.1666881  40.9871008
  43.9284906  22.8516011  45.3671684  44.5556945  22.4693089  45.9809208
  43.0712825  22.6330213  45.7327376  44.2344696  22.7348437  37.2817587
  43.5131282  23.3484405  37.1425060  45.0237952  23.2706202  37.2034233
  47.0371010  20.0702864  43.5558239  47.5605411  20.3165160  44.3184548
  46.8183343  20.9022898  43.1361376  42.4338291  22.3406538  31.4229364
  42.1050997  21.4603917  31.2404470  42.7877661  22.2854207  32.3105753
  45.5480114  22.6279508  31.7904841  45.8876186  23.1565429  31.0683450
  45.9952234  22.9659914  32.5663408  48.2423555  21.0116559  41.2407909
  47.9020375  20.2124372  41.6428589  47.5362561  21.3118270  40.6684743
  48.8940026  18.0965871  39.6935232  49.7166096  17.6226349  39.5714123
  49.1378090  18.8756355  40.1933919  47.5348261  21.1254130  29.9898134
  48.2556623  21.5035382  29.4861851  46.9113565  21.8443006  30.0933112
  51.6779384  21.8299279  30.9256466  51.8942998  22.7123916  30.6245295
  51.1973451  21.4385492  30.1962108  46.4178605  24.7884992  37.5027211
  46.2723186  25.1025295  38.3951493  45.9403809  25.4069892  36.9498110
  48.2774988  21.7787540  37.5508101  48.2636557  20.8828633  37.2140399
  48.9947416  21.7858204  38.1846387  50.1301119  22.2124880  39.5961228
  49.8718897  23.1341951  39.5945558  49.5986159  21.8155315  40.2861692
  47.6811884  20.6601920  32.8195671  47.8027795  19.7318566  33.0186558
  47.3913926  20.6740606  31.9073986  50.5503074  18.3456830  35.9562391
  50.5724771  18.4096164  35.0014370  50.9671133  17.5061339  36.1502897
  41.6790289  26.4560232  43.3345029  40.9372025  26.6042868  43.9209659
  41.3583033  26.7168498  42.4711778  47.0928436  33.6952129  37.4353097
  46.4708445  33.0322834  37.1355325  47.7633303  33.7213261  36.7526745
  47.1652964  22.1733917  47.0285603  47.2141119  23.0496040  46.6463373
  47.7075478  21.6311310  46.4557247  46.6541943  32.2456053  30.9111558
  46.8030063  32.9291517  30.2578231  47.4608386  32.2261143  31.4261014
  49.3952252  22.9265290  43.7831962  48.5255561  23.2198856  43.5114551
  49.6311732  23.5105735  44.5039226  44.4094576  28.2721230  31.9172627
  44.1640618  27.3683560  32.1152837  44.5790490  28.2738381  30.9752105
  52.0991286  19.1444907  41.2997382  52.6173230  19.8805934  40.9743871
  51.7446419  19.4508900  42.1344141  43.6790223  24.0049588  29.4158788
  42.9859468  24.0793943  28.7598824  43.4341975  23.2409932  29.9380305
  52.3503880  15.5645189  36.8198279  52.6305634  14.8968378  37.4458705
  53.1354487  15.7574285  36.3072943  50.1537348  34.7404183  28.3823305
  49.5811316  35.3594370  27.9293777  50.7270142  35.2903545  28.9163227
  54.2427118  21.0718406  40.7529255  53.6477050  21.3523419  40.0575744
  53.9576814  21.5612307  41.5245996  50.5384147  26.0764996  25.7239358
  51.4843252  25.9471204  25.7927776  50.1598392  25.3379658  26.2008786
  56.5106032  17.7421002  35.6866250  56.3130853  17.4336090  36.5709582
  57.1205737  18.4682641  35.8164179  48.7227064  24.0014972  25.6594243
  47.8158520  23.7048085  25.7356957  49.0003045  23.7044790  24.7928529
  39.6405004  25.3221336  36.1093289  39.3207789  24.4686644  35.8167663
  39.0938433  25.5369914  36.8651257  43.4184912  28.0383777  39.8262796
  43.6370922  28.9700885  39.8450830  43.8310686  27.6791751  40.6117600
  50.3389130  18.5451862  31.8138484  49.5289858  18.1998947  32.1893730
  51.0273547  18.2359406  32.4026096  52.2679678  17.6229909  33.4362781
  52.8210717  18.0425362  34.0952804  52.5049764  16.6965657  33.4785737
  47.4925849  20.8601908  25.8006222  48.3545013  21.1856806  26.0602040
  47.6776193  20.0733403  25.2879288  55.6458485  19.7330434  32.9441445
  55.0657154  20.3915238  32.5619498  55.3794418  18.9107779  32.5328863
  54.0962052  19.1335492  35.1462766  54.5961830  19.2452026  34.3377084
  54.7397660  18.8296545  35.7863574  48.1544047  27.0414121  48.0330606
  47.6711129  27.8414481  48.2394496  48.2404986  27.0522066  47.0798050
  44.0817385  30.9318656  40.0699040  45.0360638  30.9002598  40.0028972
  43.8829908  30.4709280  40.8849266  44.6716767  29.5019772  42.6369838
  45.4909656  29.9963851  42.6604675  44.9453575  28.5851740  42.6087405
  54.4283363  21.8930524  31.9997793  53.5409218  22.1780175  31.7817988
  54.8437352  21.7324288  31.1525070  57.7797899  21.9177045  35.7152133
  58.5558289  22.4073498  35.9876750  57.0546034  22.3435100  36.1724002
  60.2170458  22.6304665  36.7726073  60.8114949  22.3900401  36.0619382
  60.2897042  21.9111795  37.3999610  53.5726577  31.6575199  26.0945813
  54.2762427  31.8625202  26.7103469  52.8489225  32.2251961  26.3594897
  54.4024387  27.4085060  32.2148084  54.3459588  27.8653612  31.3755716
  54.9552729  26.6475745  32.0370926  58.2129193  23.1974792  33.0398203
  57.9566127  22.7971428  33.8706411  57.5882061  23.9118586  32.9148342
  62.5241531  25.9370865  35.5469495  61.9641089  26.0064055  36.3201057
  61.9185034  25.7611850  34.8268991  55.1359166  28.5989842  29.5100613
  55.0807970  28.4334113  28.5689057  54.5105222  29.3065874  29.6662803
  39.9251681  23.8357906  43.3362035  40.5710545  23.3256860  43.8249260
  39.7168832  24.5726588  43.9105460  48.4455292  18.0997951  29.0885931
  48.4333962  19.0439790  29.2454202  49.3378714  17.9168096  28.7945392
  48.3744856  36.7766841  37.1753688  47.4240487  36.7768703  37.0618060
  48.6777342  36.0299576  36.6589722  52.2607411  14.6940727  33.3431868
  51.4939807  14.1399214  33.4888550  52.6718116  14.7662596  34.2046020
  44.2649172  20.9825523  47.4337049  45.1280634  20.6262328  47.6440374
  43.6914583  20.6439418  48.1212453  58.6195535  41.3343055  27.5077915
  58.8721056  40.8124576  26.7461378  57.6820094  41.1709200  27.6104599
  85.7858460  58.7693175  36.0897946  85.0322168  58.2000573  35.9341951
  85.9206001  58.7355840  37.0368581  84.2029040  56.5954701  35.5469495
  83.6428598  56.6647890  36.3201057  83.5972543  56.4195685  34.8268991
  85.7885058  73.2711215  38.2399450  86.4263468  73.1517962  37.5362790
  85.6705901  74.2192059  38.2987402  82.5974764  73.2238643  38.1760975
  82.2593276  73.1079708  37.2881510  83.4664533  72.8229808  38.1561981
  78.4561580  75.0774119  34.1657866  77.8926445  74.9864056  33.3974154
  78.3413975  74.2574024  34.6460358  83.0794547  74.3773495  44.1347180
  83.0683188  73.9826293  43.2627684  83.2415187  73.6439567  44.7280952
  76.0026012  76.5725311  37.0042086  76.7947304  76.2316135  36.5888386
  76.2422662  76.6820286  37.9244240  84.0361139  78.7445087  29.4772331
  83.3849119  79.3299167  29.0906345  84.8305502  79.2751282  29.5367368
  77.9616766  75.8334224  29.8759465  78.7347642  75.2863211  29.7372341
  78.3142165  76.6978473  30.0873927  79.8001809  77.1610606  43.0826364
  79.5091675  78.0656237  42.9673031  80.4358793  77.2027134  43.7970434
  80.7258015  74.5387455  39.6727724  81.3221588  74.3143477  38.9584687
  80.7832987  73.7972200  40.2753172  80.2983044  71.9926890  27.5077915
  80.5508565  71.4708411  26.7461378  79.3607603  71.8293036  27.6104599
  85.3426327  70.9962669  35.3152658  86.1289416  70.5782092  34.9643075
  85.6065031  71.9008761  35.4834307  85.5136404  76.4335519  30.0141315
  84.8782237  76.5070145  30.7262220  85.1833810  77.0229118  29.3360394
  90.7434754  70.9337902  36.2185637  91.4759926  70.3637119  36.4523466
  89.9874110  70.5459502  36.6592142  80.0179333  73.8954996  29.7102290
  79.9015591  73.2199900  30.3783374  80.1281592  73.4087370  28.8934443
  82.3610874  73.3565143  33.4148979  81.9969081  72.8295764  34.1261901
  83.2177989  72.9663612  33.2415465  88.2660174  64.6459476  40.6780245
  87.9343499  65.5154887  40.4541460  87.6705788  64.3295760  41.3574276
  84.7591694  76.8472022  40.0776158  84.4592417  77.7497061  39.9691965
  84.4142753  76.5804205  40.9297311  78.2104175  73.2985819  36.1112863
  77.2854672  73.1662033  36.3190554  78.4588588  74.0780038  36.6082805
  88.1588837  69.3654562  37.7573595  87.2505715  69.2969970  37.4632356
  88.1076433  69.8426507  38.5855421  75.5712986  72.9419092  36.9456652
  75.7005367  73.1953571  37.8596063  74.8910438  73.5346800  36.6261307
  79.7412473  83.6116342  33.0447126  79.6636503  84.5624167  33.1235606
  79.1374117  83.2662215  33.7022052  82.2329703  70.7844208  45.7008493
  81.4563037  71.3438128  45.6911357  82.8720266  71.2700991  46.2223363
  90.0250484  67.5671000  39.5351469  89.3824864  67.8603534  38.8891264
  89.5205412  67.4523921  40.3404666  87.6790648  71.3134174  30.2237329
  88.5908504  71.5461560  30.0485026  87.1700295  71.8971218  29.6612407
  80.4876076  73.5929661  45.2626460  81.2290760  74.1314705  44.9861283
  79.7813061  74.2195950  45.4198012  85.9631415  75.7358801  43.8598621
  86.3714771  75.2941212  43.1153254  85.2408677  75.1611429  44.1132814
  82.3162485  70.6731408  41.2332178  83.1623680  71.0970822  41.3766827
  82.2561123  70.0165033  41.9270741  86.2860230  76.2959992  37.6150910
  85.6569092  76.4605706  36.9126978  85.8985892  76.7101602  38.3861874
  90.1649462  77.2314430  34.9695274  89.4800500  77.6113331  34.4192307
  90.2493311  77.8409757  35.7027222  85.4661931  68.3335777  42.8913352
  85.2222862  69.0877837  42.3547627  85.7421861  68.7121124  43.7260599
  87.4200393  74.8774389  41.5690617  87.6317289  75.5206149  40.8924998
  87.3730142  74.0436706  41.1012547  85.0226622  67.4892210  38.4727190
  84.1611101  67.7873463  38.7643927  85.0489057  67.7062609  37.5408222
  81.8388192  76.0334400  34.8800995  82.3026537  76.3122103  34.0905618
  81.5744990  75.1317845  34.6974086  78.7312273  75.5805882  37.8180758
  79.3013630  76.0093150  37.1798243  79.3220385  75.2988466  38.5164944
  80.7757078  72.1557553  31.6890560  81.4781121  72.6078596  32.1564487
  80.4437706  71.5141371  32.3170453  79.2237439  70.7469309  46.0641770
  78.5936100  71.4285590  46.2977167  79.1173527  70.6352391  45.1194908
  88.5346221  77.7546344  39.7412975  89.3563665  77.3526532  39.4595656
  88.5308624  77.6514579  40.6929091  82.3002825  77.3030388  41.8973685
  82.3647257  77.7650795  42.7331857  81.5913749  76.6727753  42.0255995
  96.6252214  74.0985093  36.0897946  95.8715923  73.5292491  35.9341951
  96.7599756  74.0647757  37.0368581  82.0150842  78.9698495  31.7652666
  81.8796517  79.8150031  32.1937513  82.5560655  79.1717773  31.0018599
  78.5018182  65.0490075  48.4267021  78.1085128  64.4956274  49.1014665
  79.3184322  65.3600654  48.8173538  75.4680240  76.4873933  32.3380591
  75.9804760  77.2817183  32.4886155  76.1202953  75.7900224  32.2714192
  77.2775124  79.6039690  34.4203344  77.4541753  80.5257654  34.2324328
  78.0731958  79.2898109  34.8497724  81.4186143  66.4647954  46.0187277
  82.1595856  67.0655107  45.9391740  81.6504066  65.7225592  45.4605320
  76.5627481  71.6504321  44.2965507  76.4480996  70.7489579  44.5972606
  75.7071999  71.8968018  43.9450324  83.6419319  79.5922062  45.8953008
  83.1983173  78.8058440  45.5773912  84.3036532  79.7801212  45.2296898
  78.4006440  81.1217863  40.4213686  78.9513865  80.9934927  39.6490680
  77.5617916  81.4212752  40.0708579  85.7400557  79.8724862  43.9234409
  85.7219032  80.6933743  43.4314678  86.6620477  79.7478937  44.1484550
  82.1973611  77.3868991  44.7657917  82.7301948  76.6257279  44.5357225
  81.6687692  77.0942643  45.5082072  73.4329157  74.8162588  33.1140161
  74.2704379  75.2259596  32.8973869  73.6107424  73.8762030  33.0840355
  85.3293589  72.4837668  28.8023994  84.8140212  73.2542273  29.0412382
  85.0570897  71.8102804  29.4257056  90.3027863  75.2370023  30.7377168
  89.5257306  74.8981182  30.2932330  90.9819344  75.2422646  30.0632133
  85.1179892  70.3564760  30.6283775  84.8130027  70.6710909  31.4793918
  86.0710334  70.4346180  30.6711108  83.5626324  76.5154984  32.2776729
  83.0347685  75.7807743  31.9649967  83.0613826  77.2929660  32.0316698
  88.5419170  74.7104004  37.3943776  87.8842844  75.4003265  37.4823904
  89.3459569  75.1000436  37.7377762  87.3524629  73.0648377  35.4447717
  87.8656510  73.6978369  35.9469427  88.0025852  72.4649572  35.0791077
  81.7078924  74.3335194  25.2811702  80.8005986  74.1024447  25.4802851
  82.2049956  73.5372813  25.4685684  84.6147003  83.0432701  28.2008388
  83.9408702  83.3464398  28.8093346  85.0012825  83.8461781  27.8513846
  83.8305459  70.5397832  37.6906058  82.9128021  70.7612779  37.5327746
  84.2465603  70.6144143  36.8317765  84.6140507  71.9389248  32.8208738
  85.3612326  72.4510645  32.5115860  84.8832097  71.6173301  33.6813132
  82.8867157  74.4347789  29.8035692  81.9778377  74.1506822  29.9008162
  82.9162241  74.8546867  28.9438999  88.1186425  78.0454378  33.5726860
  87.6648752  77.2045288  33.6292050  87.4880391  78.6815777  33.9101640
  87.0619344  68.9746364  34.8027527  86.3242101  68.4623750  35.1337770
  87.3146118  68.5346746  33.9910804  86.5619364  79.8830875  34.5076678
  86.8542338  80.4435932  33.7889044  87.0717985  80.1759436  35.2629837
  87.1630972  61.7522616  35.3969297  87.4689848  60.8919980  35.1095212
  87.8883576  62.3440236  35.1968291  73.4555328  72.1553303  33.7850895
  73.2579728  71.5622664  33.0601961  72.9001992  71.8505513  34.5026833
  81.4352051  72.0476409  35.9045488  81.4900661  71.0950246  35.8287964
  80.6243253  72.2035848  36.3886786  82.5843245  75.9756532  27.1423771
  82.1462675  75.2592391  26.6829408  83.3253686  76.2032647  26.5808862
  81.5252989  80.6611226  35.5970131  81.4829168  80.8872072  34.6678663
  82.4415688  80.4274601  35.7455932  84.9718623  71.1295294  42.4950761
  85.3268011  71.3566767  43.3545226  85.6190754  71.4613670  41.8728016
  90.7016360  74.2513729  33.2000090  90.5634258  74.4415325  32.2721279
  90.3452579  75.0133112  33.6568141  90.7285740  76.3190256  38.2111361
  91.1622246  76.2265546  39.0594415  91.4417320  76.2947757  37.5731377
  79.6418790  77.5374255  35.3932094  80.4359388  77.0424575  35.1914669
  78.9310482  77.0092118  35.0299800  84.4613634  79.9192351  39.7444462
  84.5150657  80.4883287  40.5122178  83.5928416  80.0894236  39.3798499
  75.9501553  71.6817337  31.4691847  75.0199142  71.6201792  31.6861809
  76.0459025  71.1593290  30.6728488  91.5901289  76.3613957  40.7444246
  91.7837179  77.2659768  40.9903521  91.4901907  75.9021376  41.5782831
  83.2437600  66.2471848  43.2434574  82.5965515  66.9461797  43.1499050
  84.0138615  66.6807992  43.6110822  86.6516398  76.5120700  46.3185127
  86.5001904  76.2831252  45.4015211  86.6421077  77.4691301  46.3316472
  83.4201734  74.0852613  41.3031394  84.3493794  74.2363772  41.1300361
  82.9992764  74.1736633  40.4480040  82.2190066  78.1103277  39.0729931
  82.0801152  77.7422061  39.9455869  81.4304662  78.6250916  38.9013889
  82.8138218  83.2112373  30.4155468  82.9889974  82.7400417  31.2301090
  82.1271006  83.8378140  30.6436728  83.7695281  77.4884880  36.4618769
  83.4345114  77.4485650  37.3576419  83.2699227  76.8229596  35.9889179
  77.7439525  72.8952510  41.9871350  77.6059323  72.1632749  42.5882889
  78.6544449  72.8061410  41.7055538  86.7054473  74.8340914  26.7355829
  86.0883643  74.1087742  26.6388881  86.2370961  75.5950274  26.3922903
  80.3721826  72.6072469  41.4755030  81.0821444  71.9665661  41.4341648
  80.3291134  72.8585364  42.3981211  88.3608604  79.5439822  44.3961609
  88.3021151  78.8599043  43.7292192  88.7628123  80.2858812  43.9442235
  79.0850760  69.5937687  43.2950669  78.5488117  69.1428425  43.9472266
  78.4967468  69.7283596  42.5521134  77.3799303  86.3601736  37.1895328
  77.6195901  86.9920260  37.8674346  76.5368500  86.0089776  37.4760687
  88.3626012  77.5079406  42.6275589  87.4752790  77.1705328  42.7501987
  88.9324563  76.7762438  42.8644354  81.8927165  82.1680859  39.5936832
  81.8197337  82.9735830  40.1056136  81.4504558  82.3672824  38.7684853
  81.6816945  81.4052629  33.1039653  80.8984467  81.9474309  33.1977878
  82.3809690  81.9226608  33.5033895  84.9913595  67.2147258  35.7473859
  85.4882294  66.4617220  35.4274929  84.2200576  67.2511575  35.1817068
  92.8443352  72.9187624  37.3892150  92.8333228  73.8012339  37.0186083
  91.9760732  72.5659175  37.1946687  84.3525849  82.0667693  41.7494990
  85.0653821  82.7015158  41.6770892  83.8615877  82.1631559  40.9334992
  86.0743375  75.9718945  33.3212282  85.1399654  76.0920408  33.1516986
  86.2520044  75.0691412  33.0572292  89.4615927  71.8136265  33.8562316
  89.9276379  72.6464256  33.7822619  89.9123427  71.3481246  34.5607575
  79.4037762  79.8162136  42.5700561  80.1047222  80.4498619  42.7229956
  78.9332877  80.1576868  41.8096201  87.5292158  78.1580086  30.8548468
  87.8052002  78.0436681  31.7642342  86.6596657  77.7597571  30.8160641
  87.4332590  64.1816852  37.8953218  86.5195669  64.4121078  38.0635425
  87.8625691  64.2655296  38.7467250  87.2039048  72.3706744  40.3953112
  86.5510498  72.6182651  39.7405564  87.5819428  71.5570882  40.0615589
  84.1646222  82.4066437  34.4981282  84.3468616  81.5888093  34.9609034
  84.9879208  82.6234129  34.0606172  84.4988387  81.3334622  31.7596330
  85.0276154  80.8227077  31.1466493  84.7616607  81.0177152  32.6241863
  83.2526621  73.1126555  46.8819149  82.5767258  73.0120684  47.5521524
  84.0754255  72.9565768  47.3455146  75.0005480  79.3498491  39.5031664
  75.5858917  78.6042179  39.6359568  74.8030319  79.6602448  40.3868328
  77.8544135  82.3849739  34.5194106  77.1854511  82.8695866  34.0358146
  77.7157005  82.6318959  35.4337485  81.9949404  84.4193482  41.1176765
  82.5467712  84.5825104  41.8825850  82.3355597  85.0097920  40.4456790
  86.8460278  79.2454740  46.9725419  87.3900182  79.8584698  46.4780374
  86.2647123  79.8034318  47.4892432  85.1317791  82.3675458  38.1040447
  85.0068931  81.5665197  37.5951392  85.7896882  82.8621651  37.6154417
  87.1952700  80.1684478  39.7319997  86.2483035  80.0489829  39.6598324
  87.5435473  79.2806976  39.8146258  84.1999133  79.9637194  35.9324349
  84.0524095  79.0353901  36.1131919  85.0252626  79.9857285  35.4481424
  87.8033255  80.7865753  37.0189222  88.7279802  80.5808614  36.8813673
  87.6348558  80.5382154  37.9278563  84.1960647  67.8175032  30.9256466
  84.4124262  68.6999669  30.6245295  83.7154714  67.4261245  30.1962108
  82.6482382  68.2000633  39.5961228  82.3900160  69.1217704  39.5945558
  82.1167423  67.8031068  40.2861692  87.5928571  81.3051420  32.3751313
  87.7665449  80.7397843  31.6225166  88.0857462  82.1052315  32.1930803
  73.4105531  73.3166089  40.4414872  72.8658999  74.0925897  40.5735147
  74.2884881  73.6636894  40.2833994  93.4467962  74.0687843  33.9941613
  93.8899108  73.3195168  33.5960736  92.5694472  74.0597979  33.6115345
  88.5803743  80.6218185  29.4748212  89.2754648  81.2424877  29.6935526
  88.9226894  79.7713536  29.7500590  74.1971553  72.4435985  43.3345029
  73.4553289  72.5918621  43.9209659  73.8764297  72.7044251  42.4711778
  90.4795167  78.0717890  31.0035542  91.0046491  78.4105163  30.2784862
  90.3917519  77.1364905  30.8198677  82.1415215  81.9851964  43.1325419
  82.4502342  81.7401110  44.0048119  82.9390697  82.1898602  42.6444289
  82.1635827  84.1389873  35.3630796  81.7240818  83.6466252  36.0563652
  82.9143944  83.5962841  35.1222871  74.6428166  80.3301414  35.3655424
  75.4686186  80.0305186  34.9854067  74.2922218  79.5609037  35.8145212
  79.6109700  79.6827882  37.4353097  78.9889709  79.0198587  37.1355325
  80.2814566  79.7089014  36.7526745  72.8436771  78.2487741  36.3244357
  72.0068680  77.8209915  36.1428359  72.8160417  78.4420184  37.2615148
  79.6834227  68.1609670  47.0285603  79.7322382  69.0371793  46.6463373
  80.2256741  67.6187064  46.4557247  90.1689073  78.7050794  46.3086740
  89.3784616  78.6874933  45.7691240  89.9322427  79.2439087  47.0635777
  90.2886948  75.5543260  43.6219469  90.3384953  75.3893268  44.5634992
  90.1800871  74.6870519  43.2317350  79.1723206  78.2331806  30.9111558
  79.3211327  78.9167270  30.2578231  79.9789650  78.2136896  31.4261014
  87.5790710  71.5374188  44.9378776  88.4800573  71.3980653  44.6462773
  87.6538685  71.7028643  45.8776953  81.9133515  68.9141043  43.7831962
  81.0436825  69.2074609  43.5114551  82.1492996  69.4981488  44.5039226
  92.9900827  75.5393081  36.3864061  93.8247718  75.9782885  36.5501621
  93.1259956  75.0631735  35.5672306  90.0392333  73.0972816  42.3341548
  90.5146454  73.2900463  41.5260400  89.1157898  73.1532002  42.0884932
  76.9275839  74.2596983  31.9172627  76.6821881  73.3559313  32.1152837
  77.0971754  74.2614134  30.9752105  84.6172549  65.1320660  41.2997382
  85.1354493  65.8681687  40.9743871  84.2627682  65.4384653  42.1344141
  82.6718612  80.7279936  28.3823305  82.0992579  81.3470123  27.9293777
  83.2451406  81.2779298  28.9163227  88.7394002  69.9738576  40.5669854
  89.6911425  70.0736674  40.5882078  88.5697452  69.1816845  41.0767938
  86.7608381  67.0594160  40.7529255  86.1658313  67.3399172  40.0575744
  86.4758078  67.5488060  41.5245996  85.8915872  81.0117086  29.5131888
  86.8246545  80.9462648  29.7164763  85.8039085  81.8473353  29.0546420
  88.5203888  80.3282957  26.4735835  88.4417520  79.9942820  27.3671593
  89.3413555  80.8204725  26.4727307  91.2182080  73.1944696  39.6812154
  91.1858400  72.2560697  39.8671838  91.8282703  73.2728733  38.9477979
  83.0565410  72.0640749  25.7239358  84.0024515  71.9346957  25.7927776
  82.6779655  71.3255411  26.2008786  91.3676568  69.9855739  39.7270437
  90.8515617  69.2014196  39.5400366  92.2516517  69.6574456  39.8916956
  89.0287295  63.7296755  35.6866250  88.8312116  63.4211843  36.5709582
  89.6387001  64.4558394  35.8164179  97.0358629  74.2560703  38.8218191
  97.7662018  73.9945991  39.3825894  96.4265575  73.5189425  38.8620258
  95.1173927  72.3968565  39.4192642  94.3907090  72.2624530  38.8109133
  94.7021213  72.7045394  40.2249360  82.9404103  76.1158495  47.1840015
  83.8607112  76.2937094  47.3780061  82.9053686  75.1714540  47.0319714
  75.9366176  74.0259530  39.8262796  76.1552185  74.9576638  39.8450830
  76.3491949  73.6667504  40.6117600  80.8094041  69.5992736  49.2165545
  80.7090768  70.5487092  49.1477636  80.5915583  69.2710974  48.3441615
  72.0274528  74.9300000  38.0786411  71.3337999  74.5153953  37.5656365
  72.7747519  74.9720537  37.4819830  88.1639749  65.7206187  32.9441445
  87.5838418  66.3790991  32.5619498  87.8975681  64.8983532  32.5328863
  86.6143315  65.1211245  35.1462766  87.1143093  65.2327779  34.3377084
  87.2578923  64.8172298  35.7863574  80.6725311  73.0289874  48.0330606
  80.1892393  73.8290234  48.2394496  80.7586250  73.0397819  47.0798050
  73.9411270  74.8618254  35.9552426  73.9181959  74.9605941  35.0034309
  74.2511907  75.7083405  36.2769592  76.5998648  76.9194409  40.0699040
  77.5541902  76.8878351  40.0028972  76.4011172  76.4585033  40.8849266
  77.1898031  75.4895525  42.6369838  78.0090919  75.9839604  42.6604675
  77.4634838  74.5727493  42.6087405  86.9464627  67.8806277  31.9997793
  86.0590482  68.1655928  31.7817988  87.3618616  67.7200041  31.1525070
  92.7351721  68.6180418  36.7726073  93.3296212  68.3776154  36.0619382
  92.8078305  67.8987548  37.3999610  74.9548877  82.4614029  37.0869238
  74.8203345  81.7014429  36.5207236  74.5380939  83.1854928  36.6198027
  86.0907840  77.6450952  26.0945813  86.7943690  77.8500955  26.7103469
  85.3670489  78.2127714  26.3594897  86.9205650  73.3960813  32.2148084
  86.8640852  73.8529365  31.3755716  87.4733993  72.6351498  32.0370926
  90.7310456  69.1850545  33.0398203  90.4747391  68.7847181  33.8706411
  90.1063324  69.8994339  32.9148342  95.0422794  71.9246618  35.5469495
  94.4822352  71.9939808  36.3201057  94.4366298  71.7487603  34.8268991
  78.1118003  83.3583346  37.2987681  77.9950387  84.3028778  37.1966371
  77.2910449  83.0556907  37.6873480  87.9994538  78.0833481  28.1444273
  88.8340142  77.6514680  27.9621748  87.8378880  77.9115495  29.0721168
  87.6540430  74.5865595  29.5100613  87.5989234  74.4209866  28.5689057
  87.0286485  75.2941628  29.6662803  84.9686337  76.8914506  48.8354176
  85.8377497  77.0655159  48.4740810  84.4893088  77.7108923  48.7129905
  79.1372517  84.0111607  40.5143609  80.0399764  84.0435218  40.8310104
  78.9109887  83.0812058  40.5289945  80.8926119  82.7642594  37.1753688
  79.9421750  82.7644456  37.0618060  81.1958605  82.0175329  36.6589722
  93.4368519  88.5530561  38.1760975  93.0987030  88.4371625  37.2881510
  94.3058287  88.1521726  38.1561981  89.2955335  90.4066037  34.1657866
  88.7320200  90.3155974  33.3974154  89.1807730  89.5865941  34.6460358
  93.9188302  89.7065412  44.1347180  93.9076943  89.3118211  43.2627684
  94.0808941  88.9731485  44.7280952  86.8419767  91.9017229  37.0042086
  87.6341059  91.5608053  36.5888386  87.0816417  92.0112204  37.9244240
  88.8010521  91.1626142  29.8759465  89.5741397  90.6155129  29.7372341
  89.1535919  92.0270391  30.0873927  91.5651770  89.8679373  39.6727724
  92.1615342  89.6435395  38.9584687  91.6226741  89.1264118  40.2753172
  96.1820081  86.3254586  35.3152658  96.9683170  85.9074009  34.9643075
  96.4458785  87.2300678  35.4834307  90.8573087  89.2246914  29.7102290
  90.7409345  88.5491817  30.3783374  90.9675347  88.7379288  28.8934443
  93.2004628  88.6857061  33.4148979  92.8362835  88.1587682  34.1261901
  94.0571744  88.2955530  33.2415465  99.1053929  79.9751394  40.6780245
  98.7737253  80.8446805  40.4541460  98.5099542  79.6587678  41.3574276
  92.8410115  83.7146961  28.4110328  93.0084517  84.5827197  28.7780799
  92.6507284  83.8774242  27.4871617  89.0497930  88.6277736  36.1112863
  88.1248426  88.4953951  36.3190554  89.2982343  89.4071956  36.6082805
  98.9982592  84.6946480  37.7573595  98.0899469  84.6261888  37.4632356
  98.9470188  85.1718425  38.5855421  92.8199336  86.1704618  29.3956995
  92.6998961  86.6161669  30.2342475  92.1251924  86.5189936  28.8370533
  86.4106741  88.2711010  36.9456652  86.5399122  88.5245489  37.8596063
  85.7304192  88.8638718  36.6261307  93.0723458  86.1136125  45.7008493
  92.2956792  86.6730045  45.6911357  93.7114021  86.5992908  46.2223363
  91.3269830  88.9221579  45.2626460  92.0684514  89.4606623  44.9861283
  90.6206816  89.5487867  45.4198012  93.1556240  86.0023326  41.2332178
  94.0017435  86.4262739  41.3766827  93.0954877  85.3456950  41.9270741
  96.3055685  83.6627694  42.8913352  96.0616617  84.4169755  42.3547627
  96.5815616  84.0413042  43.7260599  95.8620377  82.8184127  38.4727190
  95.0004856  83.1165381  38.7643927  95.8882811  83.0354526  37.5408222
  89.5706027  90.9097799  37.8180758  90.1407384  91.3385068  37.1798243
  90.1614139  90.6280384  38.5164944  91.6150832  87.4849470  31.6890560
  92.3174876  87.9370514  32.1564487  91.2831461  86.8433289  32.3170453
  90.0631194  86.0761227  46.0641770  89.4329854  86.7577508  46.2977167
  89.9567282  85.9644308  45.1194908  85.3576166  85.7433023  36.9907694
  84.5675220  85.9990551  36.5147805  85.8487414  86.5581361  37.0959734
  87.3090912  86.1077602  33.9491171  86.5122075  86.2196296  34.4674666
  87.0816504  86.4464254  33.0832061  83.6413869  85.9963513  39.4222685
  83.8921908  86.8810523  39.6880261  84.1773418  85.8168115  38.6497777
  89.3411937  80.3781993  48.4267021  88.9478882  79.8248191  49.1014665
  90.1578077  80.6892571  48.8173538  86.3073994  91.8165851  32.3380591
  86.8198515  92.6109101  32.4886155  86.9596707  91.1192141  32.2714192
  92.2579898  81.7939872  46.0187277  92.9989611  82.3947025  45.9391740
  92.4897820  81.0517510  45.4605320  87.4021236  86.9796239  44.2965507
  87.2874751  86.0781496  44.5972606  86.5465753  87.2259936  43.9450324
  96.2037060  77.8220975  40.2951559  95.8601330  78.7122616  40.2190670
  96.5716023  77.6322632  39.4321144  84.2722911  90.1454505  33.1140161
  85.1098133  90.5551514  32.8973869  84.4501179  89.2053947  33.0840355
  93.7534454  82.6579287  33.8609233  92.8976051  82.2686137  33.6814871
  94.1661406  82.7371247  33.0009018  95.2833601  80.1925630  38.2600792
  94.7798396  80.1555765  37.4468598  95.5764208  81.1018373  38.3197449
  91.5276487  80.2764360  37.2666974  92.3929484  80.0807168  36.9072863
  91.5953996  80.0474711  38.1936331  95.9573646  85.6856678  30.6283775
  95.6523782  86.0002827  31.4793918  96.9104088  85.7638098  30.6711108
  89.1338806  82.5066568  34.6383341  89.7082558  82.2841749  33.9056534
  89.7209788  82.5755262  35.3911942  89.4608393  84.5371029  28.6579226
  88.6245705  84.8745715  28.9788501  89.3213163  84.4020008  27.7206363
  91.4361474  79.3807816  33.3658410  90.7825886  79.0656834  32.7415025
  91.3941948  78.7583557  34.0918233  94.6699214  85.8689750  37.6906058
  93.7521775  86.0904697  37.5327746  95.0859358  85.9436060  36.8317765
  95.4534262  87.2681166  32.8208738  96.2006081  87.7802563  32.5115860
  95.7225851  86.9465218  33.6813132  97.9013099  84.3038282  34.8027527
  97.1635856  83.7915668  35.1337770  98.1539872  83.8638664  33.9910804
  98.0024726  77.0814534  35.3969297  98.3083603  76.2211897  35.1095212
  98.7277331  77.6732154  35.1968291  84.2949082  87.4845221  33.7850895
  84.0973482  86.8914581  33.0601961  83.7395746  87.1797431  34.5026833
  92.2745806  87.3768327  35.9045488  92.3294416  86.4242163  35.8287964
  91.4637008  87.5327766  36.3886786  90.2138166  85.9945387  33.6635867
  89.4006031  86.2939557  34.0701059  90.7097160  85.6001076  34.3810349
  95.8112377  86.4587211  42.4950761  96.1661765  86.6858684  43.3545226
  96.4584509  86.7905588  41.8728016  89.7052241  83.5663742  39.2797102
  90.3451620  83.4252501  38.5820065  88.8729771  83.2798256  38.9035704
  86.7895308  87.0109254  31.4691847  85.8592896  86.9493710  31.6861809
  86.8852780  86.4885207  30.6728488  86.7080857  83.5364067  34.0570088
  86.9687674  84.4509400  33.9479249  87.5298029  83.0688510  34.2066701
  88.1805782  84.9501824  41.2268913  88.8528836  84.7419187  40.5781562
  87.3535569  84.7523910  40.7874145  94.0831354  81.5763765  43.2434574
  93.4359269  82.2753715  43.1499050  94.8532370  82.0099909  43.6110822
  88.5833280  88.2244427  41.9871350  88.4453077  87.4924666  42.5882889
  89.4938203  88.1353328  41.7055538  91.2115580  87.9364387  41.4755030
  91.9215199  87.2957579  41.4341648  91.1684888  88.1877282  42.3981211
  89.9244514  84.9229605  43.2950669  89.3881871  84.4720343  43.9472266
  89.3361223  85.0575513  42.5521134  89.3346773  84.3818256  25.8577133
  88.4576239  84.2607057  25.4939380  89.8104526  83.5904334  25.6056022
  80.8548913  89.1695416  35.9518640  81.5419953  88.8557146  35.3639655
  80.6997042  90.0736780  35.6785891  85.6583635  84.0585612  40.3803664
  85.5741824  83.4511282  39.6454074  84.8366342  84.5494631  40.3813160
  95.8307349  82.5439176  35.7473859  96.3276049  81.7909138  35.4274929
  95.0594331  82.5803492  35.1817068  92.4142318  84.6856559  35.4745543
  92.0440106  84.1327599  36.1626449  92.9101410  84.0814692  34.9220543
  98.2726344  79.5108769  37.8953218  97.3589424  79.7412996  38.0635425
  98.7019446  79.5947213  38.7467250  94.0920376  88.4418472  46.8819149
  93.4161013  88.3412602  47.5521524  94.9148009  88.2857686  47.3455146
  85.8399235  94.6790409  39.5031664  86.4252671  93.9334097  39.6359568
  85.6424073  94.9894366  40.3868328  80.4316889  87.2496009  38.2236107
  80.4700989  86.7159600  39.0173225  79.9257182  86.7231215  37.6047084
  87.8107652  82.0960550  41.7198649  87.8748978  82.9575381  41.3076047
  87.7474772  81.4834551  40.9871008  87.2859924  84.1683682  45.3671684
  87.9131963  83.7860759  45.9809208  86.4287843  83.9497884  45.7327376
  84.0625467  85.9760111  31.2990039  84.3578908  85.0670790  31.2457092
  83.1613503  85.9547851  30.9771041  87.5919714  84.0516108  37.2817587
  86.8706300  84.6652076  37.1425060  88.3812970  84.5873873  37.2034233
  90.3946028  81.3870534  43.5558239  90.9180429  81.6332831  44.3184548
  90.1758361  82.2190569  43.1361376  85.7913309  83.6574209  31.4229364
  85.4626015  82.7771588  31.2404470  86.1452679  83.6021878  32.3105753
  88.9055132  83.9447179  31.7904841  89.2451204  84.4733100  31.0683450
  89.3527252  84.2827585  32.5663408  91.5998573  82.3284229  41.2407909
  91.2595393  81.5292042  41.6428589  90.8937579  82.6285940  40.6684743
  92.2515044  79.4133542  39.6935232  93.0741114  78.9394020  39.5714123
  92.4953108  80.1924026  40.1933919  90.8923279  82.4421800  29.9898134
  91.6131641  82.8203053  29.4861851  90.2688583  83.1610677  30.0933112
  95.0354402  83.1466949  30.9256466  95.2518016  84.0291587  30.6245295
  94.5548469  82.7553163  30.1962108  89.7753623  86.1052663  37.5027211
  89.6298204  86.4192966  38.3951493  89.2978827  86.7237563  36.9498110
  91.6350006  83.0955210  37.5508101  91.6211575  82.1996304  37.2140399
  92.3522434  83.1025874  38.1846387  93.4876137  83.5292551  39.5961228
  93.2293915  84.4509621  39.5945558  92.9561177  83.1322985  40.2861692
  84.2499285  88.6458007  40.4414872  83.7052753  89.4217815  40.5735147
  85.1278635  88.9928811  40.2833994  91.0386902  81.9769591  32.8195671
  91.1602813  81.0486237  33.0186558  90.7488944  81.9908277  31.9073986
  93.9078092  79.6624501  35.9562391  93.9299789  79.7263834  35.0014370
  94.3246151  78.8229010  36.1502897  85.0365307  87.7727903  43.3345029
  84.2947043  87.9210539  43.9209659  84.7158051  88.0336169  42.4711778
  85.4821921  95.6593332  35.3655424  86.3079941  95.3597104  34.9854067
  85.1315973  94.8900954  35.8145212  83.6830526  93.5779658  36.3244357
  82.8462434  93.1501833  36.1428359  83.6554171  93.7712102  37.2615148
  90.5227981  83.4901588  47.0285603  90.5716137  84.3663711  46.6463373
  91.0650496  82.9478981  46.4557247  92.7527270  84.2432961  43.7831962
  91.8830579  84.5366527  43.5114551  92.9886750  84.8273406  44.5039226
  87.7669594  89.5888901  31.9172627  87.5215636  88.6851231  32.1152837
  87.9365508  89.5906052  30.9752105  95.4566304  80.4612577  41.2997382
  95.9748248  81.1973604  40.9743871  95.1021437  80.7676571  42.1344141
  87.0365241  85.3217259  29.4158788  86.3434486  85.3961614  28.7598824
  86.7916993  84.5577602  29.9380305  95.7078898  76.8812860  36.8198279
  95.9880652  76.2136049  37.4458705  96.4929505  77.0741956  36.3072943
  97.6002136  82.3886077  40.7529255  97.0052068  82.6691090  40.0575744
  97.3151832  82.8779978  41.5245996  82.9980022  86.6389006  36.1093289
  82.6782807  85.7854315  35.8167663  82.4513451  86.8537585  36.8651257
  86.7759930  89.3551447  39.8262796  86.9945940  90.2868555  39.8450830
  87.1885704  88.9959422  40.6117600  93.6964148  79.8619533  31.8138484
  92.8864876  79.5166618  32.1893730  94.3848565  79.5527076  32.4026096
  95.6254696  78.9397580  33.4362781  96.1785735  79.3593033  34.0952804
  95.8624782  78.0133328  33.4785737  91.6487795  84.9284653  49.2165545
  91.5484522  85.8779010  49.1477636  91.4309337  84.6002892  48.3441615
  90.8500867  82.1769578  25.8006222  91.7120031  82.5024477  26.0602040
  91.0351211  81.3901074  25.2879288  82.8668282  90.2591918  38.0786411
  82.1731754  89.8445871  37.5656365  83.6141273  90.3012454  37.4819830
  99.0033503  81.0498105  32.9441445  98.4232172  81.7082909  32.5619498
  98.7369436  80.2275449  32.5328863  97.4537070  80.4503162  35.1462766
  97.9536848  80.5619697  34.3377084  98.0972677  80.1464215  35.7863574
  91.5119065  88.3581792  48.0330606  91.0286147  89.1582152  48.2394496
  91.5980004  88.3689737  47.0798050  84.7805025  90.1910172  35.9552426
  84.7575713  90.2897859  35.0034309  85.0905661  91.0375323  36.2769592
  87.4392403  92.2486327  40.0699040  88.3935656  92.2170269  40.0028972
  87.2404926  91.7876950  40.8849266  88.0291785  90.8187443  42.6369838
  88.8484674  91.3131521  42.6604675  88.3028593  89.9019411  42.6087405
  97.7858381  83.2098195  31.9997793  96.8984236  83.4947846  31.7817988
  98.2012370  83.0491958  31.1525070  83.2826699  85.1525577  43.3362035
  83.9285563  84.6424531  43.8249260  83.0743850  85.8894258  43.9105460
  91.8030310  79.4165621  29.0885931  91.7908980  80.3607461  29.2454202
  92.6953732  79.2335767  28.7945392  95.6182429  76.0108398  33.3431868
  94.8514825  75.4566885  33.4888550  96.0293134  76.0830267  34.2046020
  87.6224190  82.2993194  47.4337049  88.4855652  81.9429999  47.6440374
  87.0489601  81.9607089  48.1212453  36.4426792  -7.1494942  29.8071671
  36.1516658  -6.2449311  29.6918337  37.0783776  -7.1078414  30.5215741
  40.2844302  -4.7183486  32.6198314  39.8408156  -5.5047108  32.3019219
  40.9461516  -4.5304336  31.9542205  35.0431423  -3.1887685  27.1458993
  35.5938848  -3.3170621  26.3735987  34.2042899  -2.8892796  26.7953886
  42.3825540  -4.4380686  30.6479716  42.3644015  -3.6171805  30.1559985
  43.3045460  -4.5626611  30.8729857  41.1038618  -4.3913198  26.4689768
  41.1575640  -3.8222261  27.2367484  40.2353399  -4.2211313  26.1043805
  38.5352148  -2.1424689  26.3182138  38.4622320  -1.3369718  26.8301443
  38.0929541  -1.9432724  25.4930160  40.9950832  -2.2437855  28.4740297
  41.7078804  -1.6090391  28.4016199  40.5040861  -2.1473989  27.6580299
  36.0462745  -4.4943412  29.2945868  36.7472205  -3.8606929  29.4475262
  35.5757860  -4.1528680  28.5341507  38.6374387   0.1087934  27.8422071
  39.1892695   0.2719556  28.6071157  38.9780581   0.6992372  27.1702096
  41.7742775  -1.9430090  24.8285754  41.6493914  -2.7440351  24.3196699
  42.4321866  -1.4483897  24.3399723  44.4458238  -3.5239795  23.7434529
  45.3704786  -3.7296934  23.6058980  44.2773541  -3.7723394  24.6523870
  38.7840199  -2.3253584  29.8570726  39.0927325  -2.5704438  30.7293425
  39.5815681  -2.1206946  29.3689596  35.7797500  -0.2993941  27.2388916
  36.6824747  -0.2670330  27.5555411  35.5534871  -1.2293490  27.2535252
  53.2703796   4.2897584  24.9644757  53.9082206   4.1704332  24.2608097
  53.1524639   5.2378428  25.0232709  50.0793502   4.2425012  24.9006282
  49.7412014   4.1266077  24.0126816  50.9483270   3.8416177  24.8807288
  45.9380318   6.0960489  20.8903173  45.3745183   6.0050426  20.1219460
  45.8232713   5.2760393  21.3705665  50.5613285   5.3959864  30.8592487
  50.5501926   5.0012662  29.9872991  50.7233925   4.6625937  31.4526259
  43.4844750   7.5911680  23.7287393  44.2766042   7.2502505  23.3133692
  43.7241400   7.7006655  24.6489546  51.5179877   9.7631457  16.2017637
  50.8667856  10.3485537  15.8151651  52.3124239  10.2937651  16.2612675
  45.4435504   6.8520594  16.6004772  46.2166380   6.3049581  16.4617648
  45.7960903   7.7164843  16.8119233  47.2820546   8.1796976  29.8071671
  46.9910412   9.0842607  29.6918337  47.9177531   8.2213504  30.5215741
  48.2076753   5.5573824  26.3973031  48.8040325   5.3329847  25.6829994
  48.2651725   4.8158570  26.9998479  52.8245064   2.0149038  22.0397965
  53.6108154   1.5968461  21.6888382  53.0883769   2.9195130  22.2079613
  52.9955142   7.4521888  16.7386622  52.3600975   7.5256515  17.4507526
  52.6652548   8.0415487  16.0605701  58.2253492   1.9524271  22.9430943
  58.9578664   1.3823488  23.1768773  57.4692847   1.5645872  23.3837449
  49.8429611   4.3751513  20.1394286  49.4787819   3.8482134  20.8507207
  50.6996727   3.9849982  19.9660771  52.2410431   7.8658391  26.8021465
  51.9411155   8.7683430  26.6937272  51.8961491   7.5990575  27.6542618
  45.6922913   4.3172188  22.8358169  44.7673409   4.1848402  23.0435861
  45.9407326   5.0966408  23.3328112  55.6407575   0.3840932  24.4818902
  54.7324453   0.3156340  24.1877663  55.5895171   0.8612877  25.3100728
  43.0531724   3.9605462  23.6701958  43.1824105   4.2139941  24.5841370
  42.3729175   4.5533170  23.3506613  47.2231211  14.6302712  19.7692432
  47.1455241  15.5810537  19.8480913  46.6192855  14.2848584  20.4267359
  49.7148441   1.8030577  32.4253799  48.9381775   2.3624497  32.4156664
  50.3539004   2.2887360  32.9468669  55.1609385   2.3320543  16.9482635
  56.0727241   2.5647930  16.7730333  54.6519032   2.9157587  16.3857714
  47.9694813   4.6116031  31.9871766  48.7109498   5.1501075  31.7106590
  47.2631799   5.2382319  32.1443318  53.4450153   6.7545171  30.5843928
  53.8533509   6.3127582  29.8398560  52.7227414   6.1797799  30.8378121
  49.7981223   1.6917778  27.9577485  50.6442418   2.1157191  28.1012134
  49.7379861   1.0351402  28.6516048  53.7678968   7.3146362  24.3396217
  53.1387830   7.4792076  23.6372285  53.3804630   7.7287971  25.1107181
  57.6468200   8.2500800  21.6940580  56.9619238   8.6299701  21.1437614
  57.7312049   8.8596126  22.4272528  52.9480668  -0.6477854  29.6158658
  52.7041600   0.1064207  29.0792934  53.2240599  -0.2692506  30.4505905
  54.9019131   5.8960759  28.2935924  55.1136026   6.5392518  27.6170305
  54.8548879   5.0623075  27.8257854  52.5045360  -1.4921421  25.1972496
  51.6429839  -1.1940167  25.4889234  52.5307795  -1.2751022  24.2653529
  49.3206930   7.0520770  21.6046302  49.7845275   7.3308473  20.8150924
  49.0563728   6.1504214  21.4219393  46.2131011   6.5992251  24.5426065
  46.7832368   7.0279520  23.9043550  46.8039122   6.3174836  25.2410251
  48.2575816   3.1743922  18.4135867  48.9599859   3.6264966  18.8809793
  47.9256444   2.5327741  19.0415760  46.7056177   1.7655679  32.7887076
  46.0754838   2.4471960  33.0222473  46.5992265   1.6538760  31.8440215
  42.0001150   1.4327475  23.7153001  41.2100204   1.6885003  23.2393111
  42.4912397   2.2475813  23.8205041  56.0164959   8.7732714  26.4658281
  56.8382403   8.3712901  26.1840963  56.0127362   8.6700948  27.4174397
  43.9515895   1.7972054  20.6736477  43.1547058   1.9090748  21.1919973
  43.7241487   2.1358706  19.8077368  49.7821563   8.3216757  28.6218992
  49.8465995   8.7837164  29.4577164  49.0732486   7.6914122  28.7501302
  40.2838853   1.6857965  26.1467991  40.5346891   2.5704975  26.4125567
  40.8198401   1.5062567  25.3743083  64.1070952   5.1171462  22.8143253
  63.3534661   4.5478861  22.6587257  64.2418493   5.0834127  23.7613888
  49.4969580   9.9884865  18.4897972  49.3615255  10.8336400  18.9182820
  50.0379393  10.1904142  17.7263906  42.9498978   7.5060303  19.0625897
  43.4623498   8.3003553  19.2131462  43.6021690   6.8086593  18.9959499
  44.7593862  10.6226059  21.1448650  44.9360491  11.5444024  20.9569634
  45.5550696  10.3084478  21.5743030  44.0446219   2.6690691  31.0210814
  43.9299734   1.7675948  31.3217913  43.1890737   2.9154388  30.6695630
  51.1238057  10.6108431  32.6198314  50.6801911   9.8244810  32.3019219
  51.7855270  10.7987582  31.9542205  45.8825178  12.1404233  27.1458993
  46.4332603  12.0121296  26.3735987  45.0436654  12.4399122  26.7953886
  53.2219295  10.8911231  30.6479716  53.2037770  11.7120112  30.1559985
  54.1439215  10.7665306  30.8729857  49.6792349   8.4055361  31.4903224
  50.2120686   7.6443649  31.2602532  49.1506430   8.1129012  32.2327378
  40.9147894   5.8348957  19.8385468  41.7523116   6.2445965  19.6219176
  41.0926162   4.8948399  19.8085662  52.8112326   3.5024038  15.5269301
  52.2958950   4.2728642  15.7657688  52.5389635   2.8289174  16.1502362
  50.3959438  -1.6526261  20.5854539  49.5401034  -2.0419411  20.4060178
  50.8086389  -1.5734301  19.7254325  57.7846601   6.2556392  17.4622474
  57.0076043   5.9167552  17.0177636  58.4638082   6.2609016  16.7877439
  52.5998630   1.3751130  17.3529082  52.2948765   1.6897279  18.2039225
  53.5529072   1.4532550  17.3956415  51.0445061   7.5341353  19.0022036
  50.5166423   6.7994113  18.6895273  50.5432564   8.3116029  18.7562004
  56.0237908   5.7290374  24.1189082  55.3661582   6.4189635  24.2069211
  56.8278307   6.1186806  24.4623069  54.8343366   4.0834746  22.1693024
  55.3475248   4.7164738  22.6714734  55.4844590   3.4835942  21.8036384
  52.0965741  14.0619071  14.9253695  51.4227439  14.3650767  15.5338653
  52.4831563  14.8648151  14.5759152  51.3124197   1.5584202  24.4151365
  50.3946759   1.7799149  24.2573053  51.7284341   1.6330512  23.5563072
  52.0959245   2.9575618  19.5454045  52.8431064   3.4697015  19.2361167
  52.3650834   2.6359670  20.4058438  50.3685895   5.4534158  16.5280999
  49.4597114   5.1693191  16.6253469  50.3980979   5.8733237  15.6684306
  55.6005163   9.0640748  20.2972167  55.1467490   8.2231658  20.3537357
  54.9699129   9.7002146  20.6346947  54.5438082  -0.0067266  21.5272834
  53.8060839  -0.5189880  21.8583077  54.7964856  -0.4466885  20.7156111
  54.0438102  10.9017244  21.2321985  54.3361076  11.4622302  20.5134350
  54.5536722  11.1945805  21.9875144  48.9170789   3.0662779  22.6290794
  48.9719399   2.1136615  22.5533271  48.1061991   3.2222218  23.1132093
  46.8563149   1.6839839  20.3881173  46.0431015   1.9834009  20.7946365
  47.3522143   1.2895527  21.1055656  49.0071727  11.6797596  22.3215438
  48.9647906  11.9058442  21.3923970  49.9234426  11.4460970  22.4701239
  52.4537361   2.1481663  29.2196067  52.8086748   2.3753136  30.0790533
  53.1009492   2.4800040  28.5973322  58.1835098   5.2700099  19.9245396
  58.0452996   5.4601695  18.9966585  57.8271317   6.0319482  20.3813447
  58.2104477   7.3376626  24.9356668  58.6440984   7.2451915  25.7839722
  58.9236058   7.3134126  24.2976684  47.1237528   8.5560625  22.1177401
  47.9178126   8.0610945  21.9159976  46.4129220   8.0278488  21.7545106
  51.9432372  10.9378720  26.4689768  51.9969394  11.5069656  27.2367484
  51.0747154  11.1080605  26.1043805  44.8230766   0.6396276  27.9514220
  45.4953819   0.4313638  27.3026868  43.9960552   0.4418362  27.5119452
  59.0720027   7.3800327  27.4689553  59.2655917   8.2846137  27.7148828
  58.9720645   6.9207746  28.3028138  54.1335136   7.5307069  33.0430434
  53.9820642   7.3017621  32.1260517  54.1239815   8.4877671  33.0561779
  50.9020472   5.1038982  28.0276700  51.8312532   5.2550142  27.8545667
  50.4811502   5.1923003  27.1725347  49.7008804   9.1289647  25.7975238
  49.5619889   8.7608431  26.6701176  48.9123400   9.6437286  25.6259196
  50.2956956  14.2298743  17.1400774  50.4708711  13.7586786  17.9546397
  49.6089744  14.8564509  17.3682035  51.2514019   8.5071249  23.1864076
  50.9163851   8.4672019  24.0821725  50.7517965   7.8415965  22.7134486
  45.2258263   3.9138879  28.7116657  45.0878061   3.1819118  29.3128196
  46.1363186   3.8247779  28.4300844  47.8540563   3.6258839  28.2000336
  48.5640182   2.9852031  28.1586955  47.8109872   3.8771733  29.1226517
  55.8427342  10.5626192  31.1206916  55.7839888   9.8785412  30.4537499
  56.2446861  11.3045182  30.6687542  46.5669497   0.6124056  30.0195976
  46.0306854   0.1614795  30.6717572  45.9786206   0.7469965  29.2766440
  44.8618041  17.3788106  23.9140634  45.1014639  18.0106630  24.5919653
  44.0187237  17.0276146  24.2005994  55.8444749   8.5265776  29.3520895
  54.9571528   8.1891698  29.4747294  56.4143301   7.7948807  29.5889661
  37.4973897   4.8589868  22.6763947  38.1844936   4.5451598  22.0884962
  37.3422025   5.7631232  22.4031198  42.3008619  -0.2519936  27.1048970
  42.2166807  -0.8594266  26.3699380  41.4791325   0.2389083  27.1058467
  49.3745903  13.1867228  26.3182138  49.3016074  13.9922200  26.8301443
  48.9323296  13.3859194  25.4930160  49.1635682  12.4238998  19.8284960
  48.3803204  12.9660678  19.9223185  49.8628428  12.9412978  20.2279201
  60.3262090   3.9373993  24.1137457  60.3151966   4.8198709  23.7431390
  59.4579469   3.5845544  23.9191994  51.8344586  13.0854062  28.4740297
  52.5472559  13.7201527  28.4016199  51.3434615  13.1817928  27.6580299
  53.5562113   6.9905315  20.0457589  52.6218392   7.1106777  19.8762293
  53.7338782   6.0877782  19.7817599  49.0567301   0.3751011  22.1990850
  48.6865089  -0.1777949  22.8871756  49.5526394  -0.2290856  21.6465850
  56.9434665   2.8322634  20.5807623  57.4095117   3.6650626  20.5067926
  57.3942165   2.3667616  21.2852881  46.8856500  10.8348506  29.2945868
  47.5865959  11.4684989  29.4475262  46.4151615  11.1763237  28.5341507
  55.0110896   9.1766456  17.5793775  55.2870740   9.0623050  18.4887649
  54.1415394   8.7783940  17.5405948  54.6857786   3.3893113  27.1198418
  54.0329236   3.6369021  26.4650871  55.0638166   2.5757251  26.7860896
  51.9807125  12.3520991  18.4841637  52.5094892  11.8413446  17.8711799
  52.2435345  12.0363522  19.3487170  50.7345359   4.1312924  33.6064455
  50.0585996   4.0307054  34.2766831  51.5572993   3.9752138  34.0700453
  42.4824218  10.3684861  26.2276971  43.0677655   9.6228549  26.3604875
  42.2849056  10.6788817  27.1113635  45.3362873  13.4036108  21.2439413
  44.6673248  13.8882236  20.7603453  45.1975743  13.6505329  22.1582792
  37.0741873   2.9390461  24.9481414  37.1125972   2.4054052  25.7418532
  36.5682166   2.4125666  24.3292391  49.4768142  15.4379852  27.8422071
  50.0286450  15.6011473  28.6071157  49.8174335  16.0284290  27.1702096
  44.4532635  -2.2144999  28.4443956  44.5173961  -1.3530168  28.0321354
  44.3899755  -2.8270997  27.7116315  43.9284908  -0.1421866  32.0916990
  44.5556946  -0.5244789  32.7054515  43.0712826  -0.3607664  32.4572683
  54.3279016  10.2641109  33.6970726  54.8718920  10.8771067  33.2025681
  53.7465861  10.8220688  34.2137739  52.6136529  13.3861827  24.8285754
  52.4887668  12.5851567  24.3196699  53.2715620  13.8808021  24.3399723
  54.6771437  11.1870847  26.4565304  53.7301773  11.0676198  26.3843630
  55.0254211  10.2993345  26.5391565  47.0371011  -2.9235014  30.2803546
  47.5605413  -2.6772717  31.0429855  46.8183344  -2.0914979  29.8606683
  51.6817871  10.9823564  22.6569656  51.5342833  10.0540271  22.8377226
  52.5071364  11.0043654  22.1726731  55.2851993  11.8052122  23.7434529
  56.2098540  11.5994984  23.6058980  55.1167296  11.5568523  24.6523870
  48.2423556  -1.9821319  27.9653216  47.9020376  -2.7813506  28.3673896
  47.5362562  -1.6819608  27.3930049  46.4178606   1.7947114  24.2272518
  46.2723187   2.1087417  25.1196799  45.9403810   2.4132015  23.6743416
  48.2774989  -1.2150338  24.2753407  48.2636558  -2.1109244  23.9385705
  48.9947417  -1.2079674  24.9091693  50.1301120  -0.7812997  26.3206535
  49.8718898   0.1404073  26.3190865  49.5986160  -1.1782563  27.0106999
  55.0747309  12.3237790  19.0996620  55.2484186  11.7584212  18.3470473
  55.5676200  13.1238685  18.9176110  40.8924269   4.3352459  27.1660179
  40.3477737   5.1112267  27.2980453  41.7703618   4.6823263  27.0079300
  60.9286700   5.0874213  20.7186920  61.3717846   4.3381538  20.3206043
  60.0513210   5.0784349  20.3360652  56.0622481  11.6404554  16.1993518
  56.7573386  12.2611247  16.4180833  56.4045631  10.7899905  16.4745896
  41.6790290   3.4622355  30.0590336  40.9372026   3.6104990  30.6454966
  41.3583035   3.7230621  29.1957085  57.9613904   9.0904260  17.7280849
  58.4865228   9.4291532  17.0030169  57.8736257   8.1551275  17.5443984
  49.6233953  13.0038333  29.8570726  49.9321080  12.7587480  30.7293425
  50.4209435  13.2084972  29.3689596  49.6454565  15.1576243  22.0876102
  49.2059555  14.6652622  22.7808959  50.3962682  14.6149211  21.8468178
  42.1246904  11.3487784  22.0900730  42.9504924  11.0491556  21.7099374
  41.7740956  10.5795406  22.5390519  47.0928437  10.7014252  24.1598404
  46.4708447  10.0384957  23.8600632  47.7633304  10.7275384  23.4772052
  40.3255509   9.2674110  23.0489664  39.4887417   8.8396285  22.8673665
  40.2979155   9.4606554  23.9860455  47.1652965  -0.8203960  33.7530910
  47.2141120   0.0558163  33.3708680  47.7075479  -1.3626567  33.1802553
  57.6507810   9.7237163  33.0332047  56.8603354   9.7061302  32.4936546
  57.4141165  10.2625457  33.7881084  57.7705686   6.5729630  30.3464776
  57.8203690   6.4079637  31.2880298  57.6619609   5.7056889  29.9562656
  46.6541944   9.2518175  17.6356865  46.8030065   9.9353640  16.9823537
  47.4608388   9.2323265  18.1506320  55.0609448   2.5560558  31.6624082
  55.9619311   2.4167023  31.3708080  55.1357422   2.7215013  32.6022260
  49.3952253  -0.0672588  30.5077269  48.5255563   0.2260978  30.2359857
  49.6311734   0.5167857  31.2284532  59.2723882   8.9926571  30.5906797
  58.9808691   9.3556552  31.4270258  58.6596014   8.2793579  30.4120129
  60.4719565   6.5579451  23.1109367  61.3066456   6.9969255  23.2746928
  60.6078693   6.0818104  22.2917613  57.5211071   4.1159186  29.0586855
  57.9965192   4.3086832  28.2505707  56.5976636   4.1718372  28.8130239
  44.4094577   5.2783353  18.6417933  44.1640619   4.3745683  18.8398144
  44.5790492   5.2800503  17.6997411  50.1537350  11.7466306  15.1068612
  49.5811317  12.3656493  14.6539084  50.7270143  12.2965667  15.6408534
  56.2212740   0.9924946  27.2915161  57.1730162   1.0923044  27.3127385
  56.0516190   0.2003214  27.8013245  53.3734610  12.0303456  16.2377194
  54.3065283  11.9649018  16.4410070  53.2857822  12.8659723  15.7791727
  56.0022626  11.3469326  13.1981142  55.9236258  11.0129190  14.0916900
  56.8232293  11.8391094  13.1972614  58.7000817   4.2131066  26.4057460
  58.6677137   3.2747066  26.5917144  59.3101441   4.2915102  25.6723285
  64.5177367   5.2747072  25.5463497  65.2480756   5.0132361  26.1071200
  63.9084313   4.5375794  25.5865565  62.5992664   3.4154935  26.1437948
  61.8725828   3.2810900  25.5354440  62.1839951   3.7231764  26.9494666
  50.4222841   7.1344865  33.9085321  51.3425850   7.3123464  34.1025368
  50.3872424   6.1900910  33.7565021  39.6405006   2.3283458  22.8338596
  39.3207790   1.4748767  22.5412970  39.0938434   2.5432036  23.5896563
  43.4184913   5.0445899  26.5508103  43.6370923   5.9763007  26.5696136
  43.8310687   4.6853874  27.3362906  48.2912779   0.6179105  35.9410851
  48.1909506   1.5673462  35.8722943  48.0734321   0.2897344  35.0686922
  39.5093266   5.9486370  24.8031718  38.8156737   5.5340323  24.2901672
  40.2566257   5.9906906  24.2065137  48.1544049   4.0476244  34.7575913
  47.6711130   4.8476604  34.9639802  48.2404988   4.0584189  33.8043357
  41.4230008   5.8804624  22.6797732  41.4000696   5.9792311  21.7279616
  41.7330645   6.7269774  23.0014899  44.0817386   7.9380779  26.7944347
  45.0360640   7.9064721  26.7274278  43.8829910   7.4771402  27.6094573
  44.6716768   6.5081895  29.3615145  45.4909657   7.0025973  29.3849982
  44.9453576   5.5913863  29.3332712  53.5726578   8.6637322  12.8191120
  54.2762428   8.8687324  13.4348776  52.8489227   9.2314084  13.0840204
  62.5241532   2.9432988  22.2714801  61.9641090   3.0126177  23.0446363
  61.9185035   2.7673973  21.5514297  45.5936741  14.3769715  24.0232987
  45.4769125  15.3215148  23.9211678  44.7729187  14.0743277  24.4118787
  55.4813275   9.1019851  14.8689580  56.3158879   8.6701049  14.6867055
  55.3197618   8.9301865  15.7966475  55.1359168   5.6051964  16.2345919
  55.0807971   5.4396236  15.2934364  54.5105223   6.3127997  16.3908109
  39.9251683   0.8420029  30.0607342  40.5710546   0.3318983  30.5494567
  39.7168834   1.5788710  30.6350767  52.4505075   7.9100876  35.5599482
  53.3196234   8.0841528  35.1986117  51.9711826   8.7295293  35.4375212
  46.6191255  15.0297977  27.2388916  47.5218502  15.0621587  27.5555411
  46.3928625  14.0998428  27.2535252  48.3744857  13.7828964  23.8998994
  47.4240488  13.7830825  23.7863367  48.6777343  13.0361698  23.3835029
  44.2649174  -2.0112354  34.1582356  45.1280635  -2.3675550  34.3685680
  43.6914584  -2.3498460  34.8457760  64.1097550  19.6189502  24.9644757
  64.7475960  19.4996249  24.2608097  63.9918393  20.5670346  25.0232709
  60.9187257  19.5716930  24.9006282  60.5805768  19.4557995  24.0126816
  61.7877025  19.1708095  24.8807288  56.7774072  21.4252406  20.8903173
  56.2138938  21.3342343  20.1219460  56.6626467  20.6052311  21.3705665
  61.4007040  20.7251782  30.8592487  61.3895680  20.3304580  29.9872991
  61.5627679  19.9917854  31.4526259  54.3238504  22.9203598  23.7287393
  55.1159796  22.5794423  23.3133692  54.5635155  23.0298573  24.6489546
  62.3573631  25.0923374  16.2017637  61.7061611  25.6777455  15.8151651
  63.1517994  25.6229569  16.2612675  56.2829258  22.1812511  16.6004772
  57.0560134  21.6341498  16.4617648  56.6354657  23.0456761  16.8119233
  58.1214301  23.5088894  29.8071671  57.8304167  24.4134524  29.6918337
  58.7571285  23.5505421  30.5215741  59.0470508  20.8865742  26.3973031
  59.6434080  20.6621765  25.6829994  59.1045479  20.1450488  26.9998479
  58.6195536  18.3405177  14.2323222  58.8721057  17.8186699  13.4706685
  57.6820095  18.1771323  14.3349905  63.6638819  17.3440956  22.0397965
  64.4501908  16.9260379  21.6888382  63.9277523  18.2487048  22.2079613
  63.8348896  22.7813806  16.7386622  63.1994729  22.8548433  17.4507526
  63.5046303  23.3707405  16.0605701  69.0647246  17.2816189  22.9430943
  69.7972418  16.7115406  23.1768773  68.3086602  16.8937789  23.3837449
  58.3391825  20.2433283  16.4347597  58.2228083  19.5678187  17.1028681
  58.4494085  19.7565657  15.6179750  66.5872666  10.9937763  27.4025552
  66.2555991  11.8633174  27.1786767  65.9918280  10.6774047  28.0819582
  60.3228853  14.7333330  15.1355634  60.4903255  15.6013567  15.5026105
  60.1326022  14.8960612  14.2116924  63.0804186  23.1950309  26.8021465
  62.7804909  24.0975348  26.6937272  62.7355245  22.9282492  27.6542618
  56.5316667  19.6464106  22.8358169  55.6067164  19.5140320  23.0435861
  56.7801081  20.4258325  23.3328112  66.4801330  15.7132849  24.4818902
  65.5718207  15.6448258  24.1877663  66.4288926  16.1904794  25.3100728
  60.3018074  17.1890988  16.1202301  60.1817699  17.6348038  16.9587782
  59.6070662  17.5376305  15.5615839  53.8925478  19.2897380  23.6701958
  54.0217860  19.5431858  24.5841370  53.2122930  19.8825088  23.3506613
  58.0624966  29.9594629  19.7692432  57.9848995  30.9102455  19.8480913
  57.4586609  29.6140502  20.4267359  60.5542196  17.1322495  32.4253799
  59.7775530  17.6916415  32.4156664  61.1932759  17.6179278  32.9468669
  68.3462976  13.9149288  26.2596776  67.7037356  14.2081821  25.6136571
  67.8417905  13.8002208  27.0649973  66.0003140  17.6612461  16.9482635
  66.9120996  17.8939848  16.7730333  65.4912787  18.2449505  16.3857714
  58.8088568  19.9407948  31.9871766  59.5503252  20.4792992  31.7106590
  58.1025553  20.5674237  32.1443318  64.2843907  22.0837089  30.5843928
  64.6927264  21.6419499  29.8398560  63.5621169  21.5089716  30.8378121
  60.6374978  17.0209695  27.9577485  61.4836173  17.4449109  28.1012134
  60.5773615  16.3643320  28.6516048  64.6072722  22.6438279  24.3396217
  63.9781585  22.8083993  23.6372285  64.2198384  23.0579889  25.1107181
  68.4861954  23.5792717  21.6940580  67.8012992  23.9591619  21.1437614
  68.5705803  24.1888044  22.4272528  63.7874423  14.6814064  29.6158658
  63.5435355  15.4356124  29.0792934  64.0634353  15.0599411  30.4505905
  65.7412886  21.2252676  28.2935924  65.9529781  21.8684436  27.6170305
  65.6942634  20.3914993  27.8257854  63.3439115  13.8370497  25.1972496
  62.4823594  14.1351750  25.4889234  63.3701549  14.0540896  24.2653529
  60.1600684  22.3812687  21.6046302  60.6239030  22.6600390  20.8150924
  59.8957482  21.4796132  21.4219393  57.0524765  21.9284169  24.5426065
  57.6226122  22.3571437  23.9043550  57.6432877  21.6466754  25.2410251
  59.0969570  18.5035840  18.4135867  59.7993613  18.9556883  18.8809793
  58.7650199  17.8619659  19.0415760  57.5449932  17.0947596  32.7887076
  56.9148592  17.7763877  33.0222473  57.4386019  16.9830678  31.8440215
  52.8394904  16.7619392  23.7153001  52.0493958  17.0176921  23.2393111
  53.3306151  17.5767730  23.8205041  66.8558714  24.1024632  26.4658281
  67.6776157  23.7004819  26.1840963  66.8521116  23.9992866  27.4174397
  54.7909649  17.1263972  20.6736477  53.9940813  17.2382666  21.1919973
  54.5635242  17.4650624  19.8077368  60.6215317  23.6508675  28.6218992
  60.6859750  24.1129082  29.4577164  59.9126241  23.0206040  28.7501302
  51.1232607  17.0149883  26.1467991  51.3740645  17.8996893  26.4125567
  51.6592155  16.8354484  25.3743083  74.9464707  20.4463380  22.8143253
  74.1928415  19.8770778  22.6587257  75.0812248  20.4126045  23.7613888
  60.3363335  25.3176782  18.4897972  60.2009009  26.1628318  18.9182820
  60.8773147  25.5196060  17.7263906  56.8230674  11.3968362  35.1512327
  56.4297620  10.8434561  35.8259972  57.6396815  11.7078941  35.5418845
  53.7892732  22.8352220  19.0625897  54.3017253  23.6295471  19.2131462
  54.4415445  22.1378511  18.9959499  55.5987617  25.9517977  21.1448650
  55.7754245  26.8735941  20.9569634  56.3944450  25.6376396  21.5743030
  59.7398635  12.8126241  32.7432584  60.4808349  13.4133395  32.6637046
  59.9716558  12.0703879  32.1850627  54.8839973  17.9982609  31.0210814
  54.7693488  17.0967866  31.3217913  54.0284491  18.2446305  30.6695630
  61.9631811  25.9400349  32.6198314  61.5195665  25.1536727  32.3019219
  62.6249025  26.1279499  31.9542205  56.7218932  27.4696151  27.1458993
  57.2726357  27.3413214  26.3735987  55.8830408  27.7691040  26.7953886
  64.0613049  26.2203149  30.6479716  64.0431524  27.0412030  30.1559985
  64.9832969  26.0957224  30.8729857  60.5186103  23.7347278  31.4903224
  61.0514440  22.9735567  31.2602532  59.9900184  23.4420930  32.2327378
  63.6855798   8.8407344  27.0196866  63.3420068   9.7308986  26.9435976
  64.0534761   8.6509002  26.1566451  51.7541649  21.1640875  19.8385468
  52.5916871  21.5737883  19.6219176  51.9319917  20.2240317  19.8085662
  63.6506081  18.8315955  15.5269301  63.1352704  19.6020560  15.7657688
  63.3783389  18.1581092  16.1502362  61.2353192  13.6765656  20.5854539
  60.3794788  13.2872507  20.4060178  61.6480144  13.7557617  19.7254325
  62.7652339  11.2111999  24.9846099  62.2617134  11.1742135  24.1713904
  63.0582945  12.1204742  25.0442756  59.0095225  11.2950729  23.9912281
  59.8748221  11.0993538  23.6318170  59.0772733  11.0661081  24.9181637
  68.6240355  21.5848310  17.4622474  67.8469798  21.2459470  17.0177636
  69.3031836  21.5900933  16.7877439  63.4392384  16.7043048  17.3529082
  63.1342520  17.0189197  18.2039225  64.3922826  16.7824467  17.3956415
  61.8838816  22.8633271  19.0022036  61.3560178  22.1286030  18.6895273
  61.3826319  23.6407947  18.7562004  66.8631662  21.0582291  24.1189082
  66.2055336  21.7481553  24.2069211  67.6672061  21.4478723  24.4623069
  56.6157544  13.5252937  21.3628647  57.1901295  13.3028119  20.6301840
  57.2028526  13.5941632  22.1157249  65.6737121  19.4126664  22.1693024
  66.1869003  20.0456656  22.6714734  66.3238345  18.8127860  21.8036384
  56.9427131  15.5557398  15.3824533  56.1064443  15.8932085  15.7033807
  56.8031900  15.4206378  14.4451670  58.9180211  10.3994186  20.0903717
  58.2644624  10.0843203  19.4660332  58.8760685   9.7769926  20.8163540
  60.0291416  20.6813481  12.0057009  59.1218478  20.4502735  12.2048158
  60.5262448  19.8851100  12.1930991  62.9359495  29.3910988  14.9253695
  62.2621194  29.6942685  15.5338653  63.3225317  30.1940069  14.5759152
  62.1517952  16.8876120  24.4151365  61.2340513  17.1091067  24.2573053
  62.5678095  16.9622430  23.5563072  62.9352999  18.2867535  19.5454045
  63.6824818  18.7988932  19.2361167  63.2044589  17.9651588  20.4058438
  61.2079650  20.7826076  16.5280999  60.2990869  20.4985109  16.6253469
  61.2374733  21.2025155  15.6684306  66.4398917  24.3932665  20.2972167
  65.9861244  23.5523575  20.3537357  65.8092884  25.0294064  20.6346947
  65.3831837  15.3224651  21.5272834  64.6454593  14.8102038  21.8583077
  65.6358610  14.8825033  20.7156111  64.8831856  26.2309162  21.2321985
  65.1754831  26.7914219  20.5134350  65.3930477  26.5237723  21.9875144
  65.4843464   8.1000903  22.1214603  65.7902341   7.2398267  21.8340518
  66.2096069   8.6918524  21.9213597  51.7767820  18.5031590  20.5096201
  51.5792220  17.9100951  19.7847268  51.2214484  18.1983800  21.2272140
  59.7564544  18.3954697  22.6290794  59.8113153  17.4428533  22.5533271
  58.9455746  18.5514136  23.1132093  60.9055737  22.3234820  13.8669078
  60.4675167  21.6070679  13.4074715  61.6466178  22.5510934  13.3054169
  57.6956904  17.0131756  20.3881173  56.8824769  17.3125927  20.7946365
  58.1915898  16.6187445  21.1055656  59.8465481  27.0089513  22.3215438
  59.8041660  27.2350360  21.3923970  60.7628180  26.7752888  22.4701239
  63.2931115  17.4773581  29.2196067  63.6480503  17.7045054  30.0790533
  63.9403246  17.8091958  28.5973322  69.0228852  20.5992017  19.9245396
  68.8846751  20.7893613  18.9966585  68.6665071  21.3611399  20.3813447
  57.1870978  14.5850112  26.0042408  57.8270358  14.4438871  25.3065372
  56.3548509  14.2984625  25.6281010  69.0498232  22.6668544  24.9356668
  69.4834738  22.5743833  25.7839722  69.7629812  22.6426044  24.2976684
  57.9631282  23.8852542  22.1177401  58.7571881  23.3902862  21.9159976
  57.2522975  23.3570405  21.7545106  62.7826127  26.2670638  26.4689768
  62.8363149  26.8361574  27.2367484  61.9140908  26.4372523  26.1043805
  54.2714046  18.0295624  18.1937153  53.3411634  17.9680079  18.4107115
  54.3671518  17.5071577  17.3973795  54.1899595  14.5550437  20.7815395
  54.4506412  15.4695770  20.6724555  55.0116767  14.0874879  20.9312008
  55.6624520  15.9688194  27.9514220  56.3347573  15.7605556  27.3026868
  54.8354307  15.7710280  27.5119452  69.9113781  22.7092244  27.4689553
  70.1049671  23.6138055  27.7148828  69.8114400  22.2499663  28.3028138
  61.5650092  12.5950135  29.9679880  60.9178007  13.2940085  29.8744357
  62.3351107  13.0286279  30.3356129  61.7414226  20.4330900  28.0276700
  62.6706286  20.5842059  27.8545667  61.3205256  20.5214921  27.1725347
  60.5402558  24.4581564  25.7975238  60.4013644  24.0900349  26.6701176
  59.7517154  24.9729204  25.6259196  61.1350710  29.5590661  17.1400774
  61.3102466  29.0878704  17.9546397  60.4483498  30.1856427  17.3682035
  62.0907773  23.8363167  23.1864076  61.7557606  23.7963937  24.0821725
  61.5911719  23.1707883  22.7134486  56.0652017  19.2430797  28.7116657
  55.9271815  18.5111036  29.3128196  56.9756941  19.1539697  28.4300844
  65.0266965  21.1819201  13.4601135  64.4096136  20.4566029  13.3634188
  64.5583453  21.9428562  13.1168209  58.6934318  18.9550756  28.2000336
  59.4033937  18.3143948  28.1586955  58.6503626  19.2063651  29.1226517
  66.6821097  25.8918110  31.1206916  66.6233643  25.2077330  30.4537499
  67.0840615  26.6337100  30.6687542  57.4063252  15.9415974  30.0195976
  56.8700609  15.4906713  30.6717572  56.8179960  16.0761883  29.2766440
  55.7011795  32.7080023  23.9140634  55.9408394  33.3398548  24.5919653
  54.8580992  32.3568063  24.2005994  56.8165511  15.4004626  12.5822439
  55.9394977  15.2793426  12.2184686  57.2923264  14.6090704  12.3301328
  66.6838504  23.8557694  29.3520895  65.7965283  23.5183615  29.4747294
  67.2537055  23.1240725  29.5889661  48.3367651  20.1881785  22.6763947
  49.0238691  19.8743515  22.0884962  48.1815780  21.0923150  22.4031198
  60.0029437  27.7530916  19.8284960  59.2196959  28.2952596  19.9223185
  60.7022182  28.2704896  20.2279201  63.3126087  13.5625545  22.4719165
  63.8094787  12.8095508  22.1520236  62.5413069  13.5989862  21.9062375
  71.1655844  19.2665911  24.1137457  71.1545721  20.1490626  23.7431390
  70.2973224  18.9137462  23.9191994  64.3955868  22.3197233  20.0457589
  63.4612146  22.4398695  19.8762293  64.5732536  21.4169699  19.7817599
  59.8961056  15.7042928  22.1990850  59.5258843  15.1513969  22.8871756
  60.3920148  15.1001062  21.6465850  67.7828419  18.1614552  20.5807623
  68.2488871  18.9942543  20.5067926  68.2335920  17.6959533  21.2852881
  57.7250254  26.1640423  29.2945868  58.4259714  26.7976906  29.4475262
  57.2545369  26.5055155  28.5341507  65.8504650  24.5058373  17.5793775
  66.1264494  24.3914968  18.4887649  64.9809149  24.1075858  17.5405948
  65.7545082  10.5295139  24.6198524  64.8408162  10.7599366  24.7880731
  66.1838183  10.6133583  25.4712557  65.5251540  18.7185031  27.1198418
  64.8722991  18.9660938  26.4650871  65.9031920  17.9049169  26.7860896
  62.4858714  28.7544724  21.2226589  62.6681109  27.9366380  21.6854341
  63.3091700  28.9712416  20.7851479  62.8200880  27.6812909  18.4841637
  63.3488646  27.1705364  17.8711799  63.0829099  27.3655439  19.3487170
  61.5739113  19.4604842  33.6064455  60.8979750  19.3598971  34.2766831
  62.3966747  19.3044056  34.0700453  53.3217972  25.6976778  26.2276971
  53.9071409  24.9520466  26.3604875  53.1242811  26.0080735  27.1113635
  56.1756628  28.7328026  21.2439413  55.5067003  29.2174153  20.7603453
  56.0369497  28.9797246  22.1582792  47.9135627  18.2682379  24.9481414
  47.9519727  17.7345969  25.7418532  47.4075920  17.7417584  24.3292391
  55.2926389  13.1146919  28.4443956  55.3567716  13.9761750  28.0321354
  55.2293510  12.5020921  27.7116315  54.7678662  15.1870052  32.0916990
  55.3950701  14.8047129  32.7054515  53.9106581  14.9684254  32.4572683
  65.1672771  25.5933027  33.6970726  65.7112675  26.2062985  33.2025681
  64.5859615  26.1512605  34.2137739  51.5444205  16.9946481  18.0235345
  51.8397646  16.0857159  17.9702399  50.6432241  16.9734220  17.7016348
  55.0738452  15.0702477  24.0062894  54.3525038  15.6838445  23.8670367
  55.8631708  15.6060242  23.9279540  65.5165192  26.5162765  26.4565304
  64.5695527  26.3968116  26.3843630  65.8647965  25.6285263  26.5391565
  57.8764765  12.4056904  30.2803546  58.3999167  12.6519200  31.0429855
  57.6577099  13.2376939  29.8606683  53.2732046  14.6760578  18.1474670
  52.9444753  13.7957957  17.9649776  53.6271417  14.6208247  19.0351060
  62.5211625  26.3115481  22.6569656  62.3736588  25.3832189  22.8377226
  63.3465119  26.3335572  22.1726731  56.3873870  14.9633548  18.5150148
  56.7269942  15.4919470  17.7928756  56.8345990  15.3013954  19.2908715
  66.1245747  27.1344040  23.7434529  67.0492295  26.9286901  23.6058980
  65.9561050  26.8860441  24.6523870  59.0817310  13.3470599  27.9653216
  58.7414131  12.5478412  28.3673896  58.3756317  13.6472310  27.3930049
  59.7333782  10.4319911  26.4180539  60.5559851   9.9580390  26.2959429
  59.9771846  11.2110395  26.9179225  58.3742017  13.4608170  16.7143441
  59.0950379  13.8389423  16.2107158  57.7507321  14.1797047  16.8178419
  62.5173140  14.1653319  17.6501773  62.7336754  15.0477957  17.3490601
  62.0367207  13.7739532  16.9207415  57.2572361  17.1239032  24.2272518
  57.1116942  17.4379335  25.1196799  56.7797565  17.7423932  23.6743416
  59.1168744  14.1141580  24.2753407  59.1030313  13.2182673  23.9385705
  59.8341172  14.1212244  24.9091693  60.9694875  14.5478920  26.3206535
  60.7112652  15.4695991  26.3190865  60.4379915  14.1509355  27.0106999
  65.9141063  27.6529707  19.0996620  66.0877941  27.0876130  18.3470473
  66.4069955  28.4530602  18.9176110  51.7318023  19.6644376  27.1660179
  51.1871491  20.4404184  27.2980453  52.6097373  20.0115181  27.0079300
  58.5205640  12.9955960  19.5440977  58.6421551  12.0672607  19.7431865
  58.2307682  13.0094646  18.6319293  61.3896830  10.6810871  22.6807697
  61.4118527  10.7450204  21.7259677  61.8064889   9.8415379  22.8748203
  71.7680454  20.4166130  20.7186920  72.2111600  19.6673456  20.3206043
  70.8906965  20.4076267  20.3360652  66.9016236  26.9696472  16.1993518
  67.5967140  27.5903164  16.4180833  67.2439386  26.1191823  16.4745896
  52.5184045  18.7914273  30.0590336  51.7765781  18.9396908  30.6454966
  52.1976789  19.0522538  29.1957085  68.8007659  24.4196177  17.7280849
  69.3258983  24.7583450  17.0030169  68.7130011  23.4843193  17.5443984
  60.4627708  28.3330251  29.8570726  60.7714834  28.0879398  30.7293425
  61.2603190  28.5376889  29.3689596  60.4848320  30.4868161  22.0876102
  60.0453310  29.9944539  22.7808959  61.2356437  29.9441128  21.8468178
  52.9640659  26.6779701  22.0900730  53.7898679  26.3783473  21.7099374
  52.6134711  25.9087324  22.5390519  57.9322192  26.0306170  24.1598404
  57.3102201  25.3676875  23.8600632  58.6027059  26.0567302  23.4772052
  51.1649264  24.5966028  23.0489664  50.3281172  24.1688202  22.8673665
  51.1372909  24.7898471  23.9860455  58.0046719  14.5087958  33.7530910
  58.0534875  15.3850081  33.3708680  58.5469233  13.9665351  33.1802553
  68.4901565  25.0529081  33.0332047  67.6997109  25.0353220  32.4936546
  68.2534920  25.5917375  33.7881084  68.6099440  21.9021547  30.3464776
  68.6597445  21.7371555  31.2880298  68.5013363  21.0348806  29.9562656
  57.4935699  24.5810093  17.6356865  57.6423819  25.2645557  16.9823537
  58.3002142  24.5615183  18.1506320  65.9003202  17.8852475  31.6624082
  66.8013065  17.7458940  31.3708080  65.9751177  18.0506930  32.6022260
  60.2346008  15.2619330  30.5077269  59.3649317  15.5552896  30.2359857
  60.4705488  15.8459775  31.2284532  70.1117637  24.3218489  30.5906797
  69.8202445  24.6848469  31.4270258  69.4989768  23.6085497  30.4120129
  71.3113319  21.8871369  23.1109367  72.1460211  22.3261173  23.2746928
  71.4472448  21.4110022  22.2917613  68.3604825  19.4451103  29.0586855
  68.8358947  19.6378750  28.2505707  67.4370390  19.5010289  28.8130239
  55.2488332  20.6075271  18.6417933  55.0034374  19.7037601  18.8398144
  55.4184246  20.6092421  17.6997411  62.9385042  11.4798947  28.0242689
  63.4566985  12.2159974  27.6989178  62.5840174  11.7862940  28.8589448
  54.5183979  16.3403628  16.1404095  53.8253224  16.4147983  15.4844131
  54.2735731  15.5763972  16.6625612  63.1897636   7.8999230  23.5443586
  63.4699389   7.2322419  24.1704012  63.9748243   8.0928325  23.0318249
  60.9931104  27.0758223  15.1068612  60.4205071  27.6948411  14.6539084
  61.5663898  27.6257585  15.6408534  67.0606494  16.3216864  27.2915161
  68.0123917  16.4214961  27.3127385  66.8909944  15.5295132  27.8013245
  65.0820874  13.4072447  27.4774562  64.4870806  13.6877459  26.7821050
  64.7970570  13.8966348  28.2491303  64.2128364  27.3595374  16.2377194
  65.1459037  27.2940935  16.4410070  64.1251577  28.1951640  15.7791727
  69.5394572  19.5422983  26.4057460  69.5070892  18.6038984  26.5917144
  70.1495196  19.6207020  25.6723285  61.3777903  18.4119036  12.4484664
  62.3237007  18.2825244  12.5173082  60.9992148  17.6733698  12.9254093
  69.6889060  16.3334027  26.4515744  69.1728109  15.5492483  26.2645672
  70.5729009  16.0052743  26.6162263  67.3499787  10.0775042  22.4111556
  67.1524608   9.7690130  23.2954888  67.9599493  10.8036681  22.5409486
  75.3571122  20.6038990  25.5463497  76.0874510  20.3424278  26.1071200
  74.7478067  19.8667712  25.5865565  73.4386419  18.7446853  26.1437948
  72.7119582  18.6102818  25.5354440  73.0233706  19.0523681  26.9494666
  61.2616595  22.4636782  33.9085321  62.1819605  22.6415381  34.1025368
  61.2266178  21.5192828  33.7565021  59.5620820  16.3369013  12.3839550
  58.6552275  16.0402125  12.4602263  59.8396801  16.0398831  11.5173836
  50.4798760  17.6575376  22.8338596  50.1601545  16.8040684  22.5412970
  49.9332188  17.8723954  23.5896563  54.2578668  20.3737817  26.5508103
  54.4764678  21.3054925  26.5696136  54.6704442  20.0145791  27.3362906
  61.1782886  10.8805902  18.5383791  60.3683614  10.5352987  18.9139037
  61.8667303  10.5713446  19.1271403  63.1073434   9.9583949  20.1608088
  63.6604472  10.3779403  20.8198111  63.3443520   9.0319697  20.2031044
  59.1306533  15.9471023  35.9410851  59.0303260  16.8965380  35.8722943
  58.9128075  15.6189262  35.0686922  58.3319604  13.1955948  12.5251529
  59.1938768  13.5210846  12.7847346  58.5169949  12.4087444  12.0124595
  50.3487020  21.2778287  24.8031718  49.6550492  20.8632240  24.2901672
  51.0960011  21.3198824  24.2065137  66.4852241  12.0684474  19.6686752
  65.9050910  12.7269278  19.2864804  66.2188174  11.2461819  19.2574169
  64.9355807  11.4689532  21.8708072  65.4355586  11.5806067  21.0622391
  65.5791415  11.1650585  22.5108881  58.9937803  19.3768162  34.7575913
  58.5104885  20.1768522  34.9639802  59.0798742  19.3876106  33.8043357
  52.2623763  21.2096541  22.6797732  52.2394451  21.3084229  21.7279616
  52.5724399  22.0561692  23.0014899  54.9211141  23.2672696  26.7944347
  55.8754394  23.2356639  26.7274278  54.7223664  22.8063320  27.6094573
  55.5110523  21.8373812  29.3615145  56.3303412  22.3317891  29.3849982
  55.7847330  20.9205780  29.3332712  65.2677119  14.2284565  18.7243100
  64.3802974  14.5134215  18.5063295  65.6831108  14.0678328  17.8770377
  68.6191655  14.2531086  22.4397439  69.3952045  14.7427538  22.7122056
  67.8939789  14.6789140  22.8969309  71.0564214  14.9658705  23.4971380
  71.6508705  14.7254441  22.7864688  71.1290797  14.2465835  24.1244916
  53.2761369  28.8092316  23.8114545  53.1415837  28.0492717  23.2452543
  52.8593432  29.5333216  23.3443334  64.4120332  23.9929239  12.8191120
  65.1156183  24.1979242  13.4348776  63.6882981  24.5606001  13.0840204
  65.2418143  19.7439101  18.9393390  65.1853344  20.2007652  18.1001023
  65.7946485  18.9829785  18.7616233  69.0522949  15.5328832  19.7643510
  68.7959883  15.1325468  20.5951717  68.4275817  16.2472626  19.6393649
  73.3635286  18.2724906  22.2714801  72.8034844  18.3418095  23.0446363
  72.7578790  18.0965890  21.5514297  56.4330495  29.7061633  24.0232987
  56.3162879  30.6507065  23.9211678  55.6122942  29.4035194  24.4118787
  66.3207030  24.4311769  14.8689580  67.1552634  23.9992967  14.6867055
  66.1591373  24.2593782  15.7966475  65.9752922  20.9343882  16.2345919
  65.9201726  20.7688153  15.2934364  65.3498977  21.6419915  16.3908109
  50.7645437  16.1711946  30.0607342  51.4104301  15.6610900  30.5494567
  50.5562588  16.9080628  30.6350767  63.2898829  23.2392794  35.5599482
  64.1589989  23.4133446  35.1986117  62.8105581  24.0587211  35.4375212
  59.2849048  10.4351991  15.8131238  59.2727717  11.3793831  15.9699509
  60.1772469  10.2522136  15.5190699  57.4585009  30.3589895  27.2388916
  58.3612256  30.3913505  27.5555411  57.2322380  29.4290346  27.2535252
  59.2138611  29.1120881  23.8998994  58.2634242  29.1122743  23.7863367
  59.5171098  28.3653616  23.3835029  63.1001167   7.0294767  20.0677175
  62.3333563   6.4753254  20.2133857  63.5111872   7.1016636  20.9291326
  55.1042928  13.3179563  34.1582356  55.9674390  12.9616368  34.3685680
  54.5308339  12.9793458  34.8457760  73.1967386  40.4215292  16.2017637
  72.5455365  41.0069372  15.8151651  73.9911748  40.9521487  16.2612675
  69.4589291  33.6697095  14.2323222  69.7114811  33.1478616  13.4706685
  68.5213850  33.5063241  14.3349905  74.5032573  32.6732873  22.0397965
  75.2895663  32.2552297  21.6888382  74.7671278  33.5778966  22.2079613
  74.6742651  38.1105724  16.7386622  74.0388484  38.1840350  17.4507526
  74.3440057  38.6999323  16.0605701  79.9041001  32.6108107  22.9430943
  80.6366173  32.0407324  23.1768773  79.1480356  32.2229707  23.3837449
  69.1785579  35.5725201  16.4347597  69.0621837  34.8970104  17.1028681
  69.2887839  35.0857575  15.6179750  77.4266421  26.3229681  27.4025552
  77.0949746  27.1925092  27.1786767  76.8312034  26.0065965  28.0819582
  71.1622607  30.0625248  15.1355634  71.3297010  30.9305484  15.5026105
  70.9719776  30.2252530  14.2116924  77.3195084  31.0424767  24.4818902
  76.4111962  30.9740175  24.1877663  77.2682680  31.5196712  25.3100728
  71.1411828  32.5182905  16.1202301  71.0211453  32.9639956  16.9587782
  70.4464417  32.8668223  15.5615839  79.1856731  29.2441205  26.2596776
  78.5431111  29.5373739  25.6136571  78.6811659  29.1294126  27.0649973
  76.8396894  32.9904379  16.9482635  77.7514750  33.2231765  16.7730333
  76.3306541  33.5741423  16.3857714  74.6268177  30.0105982  29.6158658
  74.3829109  30.7648042  29.0792934  74.9028108  30.3891329  30.4505905
  76.5806640  36.5544594  28.2935924  76.7923535  37.1976354  27.6170305
  76.5336388  35.7206910  27.8257854  74.1832869  29.1662415  25.1972496
  73.3217348  29.4643668  25.4889234  74.2095304  29.3832813  24.2653529
  69.9363325  33.8327757  18.4135867  70.6387368  34.2848801  18.8809793
  69.6043953  33.1911576  19.0415760  65.6303404  32.4555889  20.6736477
  64.8334567  32.5674584  21.1919973  65.4028996  32.7942542  19.8077368
  85.7858461  35.7755298  22.8143253  85.0322169  35.2062696  22.6587257
  85.9206002  35.7417962  23.7613888  67.6624429  26.7260280  35.1512327
  67.2691374  26.1726479  35.8259972  68.4790569  27.0370858  35.5418845
  70.5792390  28.1418159  32.7432584  71.3202103  28.7425312  32.6637046
  70.8110313  27.3995797  32.1850627  74.5249553  24.1699262  27.0196866
  74.1813822  25.0600904  26.9435976  74.8928515  23.9800920  26.1566451
  74.4899835  34.1607873  15.5269301  73.9746459  34.9312478  15.7657688
  74.2177144  33.4873009  16.1502362  72.0746946  29.0057574  20.5854539
  71.2188543  28.6164424  20.4060178  72.4873898  29.0849535  19.7254325
  73.6046093  26.5403917  24.9846099  73.1010889  26.5034052  24.1713904
  73.8976700  27.4496660  25.0442756  69.8488979  26.6242647  23.9912281
  70.7141976  26.4285456  23.6318170  69.9166488  26.3952999  24.9181637
  79.4634110  36.9140228  17.4622474  78.6863552  36.5751387  17.0177636
  80.1425591  36.9192851  16.7877439  74.2786139  32.0334965  17.3529082
  73.9736274  32.3481114  18.2039225  75.2316581  32.1116385  17.3956415
  77.7025416  36.3874209  24.1189082  77.0449091  37.0773470  24.2069211
  78.5065816  36.7770641  24.4623069  67.4551298  28.8544855  21.3628647
  68.0295050  28.6320036  20.6301840  68.0422281  28.9233549  22.1157249
  76.5130875  34.7418582  22.1693024  77.0262757  35.3748574  22.6714734
  77.1632099  34.1419777  21.8036384  67.7820885  30.8849316  15.3824533
  66.9458197  31.2224002  15.7033807  67.6425655  30.7498296  14.4451670
  69.7573966  25.7286104  20.0903717  69.1038378  25.4135121  19.4660332
  69.7154440  25.1061844  20.8163540  70.8685171  36.0105399  12.0057009
  69.9612232  35.7794652  12.2048158  71.3656203  35.2143018  12.1930991
  73.7753250  44.7202906  14.9253695  73.1014948  45.0234603  15.5338653
  74.1619071  45.5231986  14.5759152  72.9911706  32.2168037  24.4151365
  72.0734268  32.4382984  24.2573053  73.4071850  32.2914348  23.5563072
  73.7746754  33.6159453  19.5454045  74.5218573  34.1280850  19.2361167
  74.0438343  33.2943506  20.4058438  72.0473404  36.1117994  16.5280999
  71.1384623  35.8277026  16.6253469  72.0768488  36.5317072  15.6684306
  76.2225591  30.6516569  21.5272834  75.4848348  30.1393955  21.8583077
  76.4752365  30.2116951  20.7156111  76.3237218  23.4292821  22.1214603
  76.6296095  22.5690185  21.8340518  77.0489823  24.0210441  21.9213597
  71.7449492  37.6526737  13.8669078  71.3068922  36.9362596  13.4074715
  72.4859933  37.8802852  13.3054169  68.5350658  32.3423674  20.3881173
  67.7218524  32.6417845  20.7946365  69.0309652  31.9479363  21.1055656
  74.1324870  32.8065498  29.2196067  74.4874257  33.0336972  30.0790533
  74.7797001  33.1383875  28.5973322  79.8622607  35.9283934  19.9245396
  79.7240505  36.1185530  18.9966585  79.5058825  36.6903317  20.3813447
  68.0264733  29.9142030  26.0042408  68.6664112  29.7730789  25.3065372
  67.1942263  29.6276543  25.6281010  79.8891986  37.9960461  24.9356668
  80.3228493  37.9035750  25.7839722  80.6023567  37.9717962  24.2976684
  65.0293349  29.8842354  20.7815395  65.2900167  30.7987688  20.6724555
  65.8510522  29.4166797  20.9312008  80.7507536  38.0384162  27.4689553
  80.9443426  38.9429973  27.7148828  80.6508154  37.5791581  28.3028138
  72.4043847  27.9242053  29.9679880  71.7571762  28.6232002  29.8744357
  73.1744862  28.3578197  30.3356129  75.8122645  38.1890905  33.0430434
  75.6608151  37.9601456  32.1260517  75.8027324  39.1461506  33.0561779
  75.8660720  36.5111119  13.4601135  75.2489890  35.7857947  13.3634188
  75.3977208  37.2720479  13.1168209  68.2457006  31.2707892  30.0195976
  67.7094363  30.8198630  30.6717572  67.6573715  31.4053801  29.2766440
  67.6559265  30.7296543  12.5822439  66.7788732  30.6085344  12.2184686
  68.1317018  29.9382622  12.3301328  77.5232258  39.1849611  29.3520895
  76.6359037  38.8475533  29.4747294  78.0930809  38.4532642  29.5889661
  59.1761406  35.5173703  22.6763947  59.8632445  35.2035433  22.0884962
  59.0209534  36.4215068  22.4031198  74.1519842  28.8917463  22.4719165
  74.6488541  28.1387425  22.1520236  73.3806823  28.9281780  21.9062375
  82.0049599  34.5957829  24.1137457  81.9939475  35.4782544  23.7431390
  81.1366978  34.2429379  23.9191994  75.2349622  37.6489150  20.0457589
  74.3005901  37.7690613  19.8762293  75.4126291  36.7461617  19.7817599
  70.7354810  31.0334846  22.1990850  70.3652598  30.4805886  22.8871756
  71.2313903  30.4292980  21.6465850  78.6222174  33.4906470  20.5807623
  79.0882626  34.3234461  20.5067926  79.0729674  33.0251451  21.2852881
  76.6898405  39.8350291  17.5793775  76.9658249  39.7206885  18.4887649
  75.8202903  39.4367776  17.5405948  76.5938836  25.8587057  24.6198524
  75.6801916  26.0891283  24.7880731  77.0231938  25.9425501  25.4712557
  76.3645295  34.0476949  27.1198418  75.7116745  34.2952856  26.4650871
  76.7425675  33.2341087  26.7860896  58.7529382  33.5974296  24.9481414
  58.7913481  33.0637887  25.7418532  58.2469674  33.0709502  24.3292391
  66.1320144  28.4438837  28.4443956  66.1961470  29.3053668  28.0321354
  66.0687264  27.8312838  27.7116315  62.3837959  32.3238398  18.0235345
  62.6791400  31.4149077  17.9702399  61.4825995  32.3026138  17.7016348
  68.7158520  27.7348822  30.2803546  69.2392922  27.9811118  31.0429855
  68.4970853  28.5668856  29.8606683  64.1125801  30.0052496  18.1474670
  63.7838507  29.1249875  17.9649776  64.4665172  29.9500165  19.0351060
  67.2267624  30.2925466  18.5150148  67.5663697  30.8211387  17.7928756
  67.6739744  30.6305872  19.2908715  69.9211065  28.6762517  27.9653216
  69.5807885  27.8770330  28.3673896  69.2150071  28.9764228  27.3930049
  70.5727537  25.7611829  26.4180539  71.3953606  25.2872307  26.2959429
  70.8165600  26.5402313  26.9179225  69.2135771  28.7900088  16.7143441
  69.9344134  29.1681340  16.2107158  68.5901075  29.5088964  16.8178419
  73.3566894  29.4945237  17.6501773  73.5730508  30.3769874  17.3490601
  72.8760961  29.1031450  16.9207415  69.9562498  29.4433498  24.2753407
  69.9424067  28.5474591  23.9385705  70.6734926  29.4504161  24.9091693
  71.8088629  29.8770838  26.3206535  71.5506407  30.7987909  26.3190865
  71.2773669  29.4801272  27.0106999  69.3599394  28.3247878  19.5440977
  69.4815305  27.3964524  19.7431865  69.0701437  28.3386564  18.6319293
  72.2290585  26.0102788  22.6807697  72.2512281  26.0742122  21.7259677
  72.6458644  25.1707297  22.8748203  82.6074209  35.7458048  20.7186920
  83.0505355  34.9965373  20.3206043  81.7300719  35.7368184  20.3360652
  77.7409990  42.2988389  16.1993518  78.4360895  42.9195082  16.4180833
  78.0833140  41.4483741  16.4745896  79.6401413  39.7488095  17.7280849
  80.1652737  40.0875368  17.0030169  79.5523766  38.8135110  17.5443984
  79.3295319  40.3820999  33.0332047  78.5390863  40.3645137  32.4936546
  79.0928674  40.9209292  33.7881084  79.4493194  37.2313465  30.3464776
  79.4991199  37.0663472  31.2880298  79.3407118  36.3640724  29.9562656
  76.7396957  33.2144393  31.6624082  77.6406820  33.0750858  31.3708080
  76.8144931  33.3798848  32.6022260  71.0739762  30.5911248  30.5077269
  70.2043072  30.8844814  30.2359857  71.3099243  31.1751693  31.2284532
  82.1507074  37.2163286  23.1109367  82.9853965  37.6553090  23.2746928
  82.2866202  36.7401940  22.2917613  79.1998580  34.7743021  29.0586855
  79.6752701  34.9670667  28.2505707  78.2764145  34.8302207  28.8130239
  73.7778796  26.8090865  28.0242689  74.2960740  27.5451892  27.6989178
  73.4233929  27.1154858  28.8589448  65.3577734  31.6695546  16.1404095
  64.6646979  31.7439901  15.4844131  65.1129486  30.9055890  16.6625612
  74.0291390  23.2291147  23.5443586  74.3093144  22.5614336  24.1704012
  74.8141997  23.4220243  23.0318249  71.8324859  42.4050141  15.1068612
  71.2598826  43.0240328  14.6539084  72.4057652  42.9549503  15.6408534
  77.9000249  31.6508781  27.2915161  78.8517671  31.7506879  27.3127385
  77.7303699  30.8587050  27.8013245  75.9214628  28.7364364  27.4774562
  75.3264560  29.0169377  26.7821050  75.6364325  29.2258265  28.2491303
  75.0522118  42.6887291  16.2377194  75.9852792  42.6232853  16.4410070
  74.9645331  43.5243558  15.7791727  77.6810135  42.0053162  13.1981142
  77.6023767  41.6713025  14.0916900  78.5019802  42.4974930  13.1972614
  80.3788326  34.8714901  26.4057460  80.3464646  33.9330902  26.5917144
  80.9888950  34.9498938  25.6723285  72.2171657  33.7410954  12.4484664
  73.1630762  33.6117162  12.5173082  71.8385902  33.0025616  12.9254093
  80.5282815  31.6625944  26.4515744  80.0121863  30.8784401  26.2645672
  81.4122763  31.3344661  26.6162263  78.1893542  25.4066960  22.4111556
  77.9918363  25.0982048  23.2954888  78.7993247  26.1328599  22.5409486
  86.1964876  35.9330908  25.5463497  86.9268265  35.6716196  26.1071200
  85.5871822  35.1959630  25.5865565  84.2780173  34.0738770  26.1437948
  83.5513337  33.9394735  25.5354440  83.8627460  34.3815599  26.9494666
  70.4014574  31.6660930  12.3839550  69.4946030  31.3694043  12.4602263
  70.6790555  31.3690748  11.5173836  61.3192515  32.9867294  22.8338596
  60.9995299  32.1332602  22.5412970  60.7725943  33.2015872  23.5896563
  72.0176640  26.2097820  18.5383791  71.2077368  25.8644905  18.9139037
  72.7061057  25.9005364  19.1271403  73.9467188  25.2875867  20.1608088
  74.4998227  25.7071320  20.8198111  74.1837275  24.3611615  20.2031044
  69.1713359  28.5247865  12.5251529  70.0332523  28.8502764  12.7847346
  69.3563703  27.7379361  12.0124595  77.3245995  27.3976392  19.6686752
  76.7444665  28.0561196  19.2864804  77.0581928  26.5753737  19.2574169
  75.7749562  26.7981450  21.8708072  76.2749340  26.9097984  21.0622391
  76.4185170  26.4942503  22.5108881  76.1070873  29.5576482  18.7243100
  75.2196729  29.8426133  18.5063295  76.5224863  29.3970246  17.8770377
  79.4585410  29.5823003  22.4397439  80.2345800  30.0719456  22.7122056
  78.7333544  30.0081058  22.8969309  81.8957968  30.2950623  23.4971380
  82.4902459  30.0546358  22.7864688  81.9684552  29.5757753  24.1244916
  75.2514087  39.3221157  12.8191120  75.9549937  39.5271160  13.4348776
  74.5276736  39.8897919  13.0840204  76.0811897  35.0731018  18.9393390
  76.0247099  35.5299570  18.1001023  76.6340240  34.3121703  18.7616233
  79.8916703  30.8620750  19.7643510  79.6353637  30.4617386  20.5951717
  79.2669571  31.5764544  19.6393649  84.2029041  33.6016823  22.2714801
  83.6428599  33.6710013  23.0446363  83.5972544  33.4257808  21.5514297
  76.8146677  36.2635800  16.2345919  76.7595480  36.0980071  15.2934364
  76.1892732  36.9711832  16.3908109  70.1242802  25.7643909  15.8131238
  70.1121472  26.7085748  15.9699509  71.0166224  25.5814054  15.5190699
  73.9394921  22.3586685  20.0677175  73.1727317  21.8045172  20.2133857
  74.3505626  22.4308554  20.9291326  65.9436683  28.6471481  34.1582356
  66.8068144  28.2908286  34.3685680  65.3702093  28.3085376  34.8457760
  84.0361140  55.7507210  16.2017637  83.3849120  56.3361290  15.8151651
  84.8305503  56.2813404  16.2612675  85.5136405  53.4397641  16.7386622
  84.8782238  53.5132268  17.4507526  85.1833812  54.0291240  16.0605701
  90.7434755  47.9400024  22.9430943  91.4759927  47.3699241  23.1768773
  89.9874111  47.5521625  23.3837449  88.2660175  41.6521598  27.4025552
  87.9343500  42.5217009  27.1786767  87.6705789  41.3357882  28.0819582
  82.0016362  45.3917166  15.1355634  82.1690764  46.2597402  15.5026105
  81.8113531  45.5544447  14.2116924  84.7591695  53.8534144  26.8021465
  84.4592418  54.7559183  26.6937272  84.4142754  53.5866328  27.6542618
  88.1588839  46.3716685  24.4818902  87.2505716  46.3032093  24.1877663
  88.1076435  46.8488630  25.3100728  90.0250485  44.5733123  26.2596776
  89.3824865  44.8665656  25.6136571  89.5205414  44.4586043  27.0649973
  87.6790649  48.3196296  16.9482635  88.5908505  48.5523683  16.7730333
  87.1700296  48.9033340  16.3857714  85.9631416  52.7420924  30.5843928
  86.3714772  52.3003335  29.8398560  85.2408678  52.1673552  30.8378121
  82.3162486  47.6793531  27.9577485  83.1623682  48.1032944  28.1012134
  82.2561124  47.0227155  28.6516048  86.2860231  53.3022115  24.3396217
  85.6569094  53.4667829  23.6372285  85.8985893  53.7163724  25.1107181
  90.1649463  54.2376553  21.6940580  89.4800501  54.6175454  21.1437614
  90.2493312  54.8471879  22.4272528  85.4661932  45.3397899  29.6158658
  85.2222864  46.0939960  29.0792934  85.7421862  45.7183247  30.4505905
  87.4200395  51.8836512  28.2935924  87.6317290  52.5268271  27.6170305
  87.3730143  51.0498828  27.8257854  85.0226624  44.4954332  25.1972496
  84.1611103  44.7935586  25.4889234  85.0489058  44.7124731  24.2653529
  88.5346223  54.7608467  26.4658281  89.3563666  54.3588654  26.1840963
  88.5308625  54.6576701  27.4174397  96.6252216  51.1047215  22.8143253
  95.8715924  50.5354614  22.6587257  96.7599757  51.0709880  23.7613888
  82.0150844  55.9760618  18.4897972  81.8796518  56.8212154  18.9182820
  82.5560656  56.1779895  17.7263906  81.4186144  43.4710077  32.7432584
  82.1595858  44.0717230  32.6637046  81.6504067  42.7287715  32.1850627
  85.7400558  56.8786984  30.6479716  85.7219033  57.6995865  30.1559985
  86.6620478  56.7541059  30.8729857  85.3643307  39.4991180  27.0196866
  85.0207577  40.3892821  26.9435976  85.7322270  39.3092837  26.1566451
  85.3293590  49.4899791  15.5269301  84.8140213  50.2604395  15.7657688
  85.0570898  48.8164927  16.1502362  84.4439848  41.8695835  24.9846099
  83.9404643  41.8325970  24.1713904  84.7370454  42.7788578  25.0442756
  90.3027864  52.2432145  17.4622474  89.5257307  51.9043305  17.0177636
  90.9819345  52.2484769  16.7877439  85.1179893  47.3626883  17.3529082
  84.8130029  47.6773032  18.2039225  86.0710335  47.4408303  17.3956415
  83.5626325  53.5217106  19.0022036  83.0347687  52.7869866  18.6895273
  83.0613828  54.2991783  18.7562004  88.5419171  51.7166127  24.1189082
  87.8842845  52.4065388  24.2069211  89.3459570  52.1062559  24.4623069
  87.3524630  50.0710499  22.1693024  87.8656512  50.7040491  22.6714734
  88.0025854  49.4711695  21.8036384  81.7078925  51.3397316  12.0057009
  80.8005987  51.1086570  12.2048158  82.2049957  50.5434936  12.1930991
  84.6147004  60.0494824  14.9253695  83.9408703  60.3526520  15.5338653
  85.0012826  60.8523904  14.5759152  88.1186426  55.0516501  20.2972167
  87.6648753  54.2107411  20.3537357  87.4880393  55.6877899  20.6346947
  87.0619346  45.9808487  21.5272834  86.3242102  45.4685873  21.8583077
  87.3146119  45.5408868  20.7156111  86.5619365  56.8892998  21.2321985
  86.8542340  57.4498055  20.5134350  87.0717986  57.1821558  21.9875144
  87.1630973  38.7584739  22.1214603  87.4689850  37.8982102  21.8340518
  87.8883578  39.3502359  21.9213597  82.5843246  52.9818655  13.8669078
  82.1462676  52.2654514  13.4074715  83.3253687  53.2094770  13.3054169
  84.9718624  48.1357416  29.2196067  85.3268012  48.3628889  30.0790533
  85.6190755  48.4675793  28.5973322  90.7016361  51.2575852  19.9245396
  90.5634260  51.4477448  18.9966585  90.3452580  52.0195235  20.3813447
  90.7285741  53.3252379  24.9356668  91.1622247  53.2327668  25.7839722
  91.4417321  53.3009879  24.2976684  84.4613636  56.9254473  26.4689768
  84.5150658  57.4945409  27.2367484  83.5928417  57.0956358  26.1043805
  91.5901290  53.3676080  27.4689553  91.7837180  54.2721890  27.7148828
  91.4901908  52.9083499  28.3028138  86.6516399  53.5182822  33.0430434
  86.5001905  53.2893374  32.1260517  86.6421078  54.4753424  33.0561779
  82.8138219  60.2174496  17.1400774  82.9889975  59.7462539  17.9546397
  82.1271007  60.8440262  17.3682035  86.7054474  51.8403037  13.4601135
  86.0883645  51.1149865  13.3634188  86.2370962  52.6012397  13.1168209
  88.3608606  56.5501945  31.1206916  88.3021152  55.8661165  30.4537499
  88.7628124  57.2920935  30.6687542  78.4953020  46.0588461  12.5822439
  77.6182486  45.9377262  12.2184686  78.9710773  45.2674539  12.3301328
  88.3626013  54.5141529  29.3520895  87.4752792  54.1767451  29.4747294
  88.9324564  53.7824560  29.5889661  81.6816946  58.4114751  19.8284960
  80.8984468  58.9536431  19.9223185  82.3809691  58.9288731  20.2279201
  84.9913596  44.2209381  22.4719165  85.4882296  43.4679343  22.1520236
  84.2200578  44.2573697  21.9062375  92.8443353  49.9249746  24.1137457
  92.8333230  50.8074462  23.7431390  91.9760733  49.5721297  23.9191994
  86.0743377  52.9781068  20.0457589  85.1399655  53.0982530  19.8762293
  86.2520045  52.0753535  19.7817599  89.4615928  48.8198387  20.5807623
  89.9276380  49.6526379  20.5067926  89.9123429  48.3543369  21.2852881
  87.5292159  55.1642209  17.5793775  87.8052003  55.0498803  18.4887649
  86.6596658  54.7659693  17.5405948  87.4332591  41.1878974  24.6198524
  86.5195671  41.4183201  24.7880731  87.8625692  41.2717418  25.4712557
  87.2039049  49.3768866  27.1198418  86.5510500  49.6244774  26.4650871
  87.5819429  48.5633004  26.7860896  84.1646223  59.4128559  21.2226589
  84.3468618  58.5950215  21.6854341  84.9879209  59.6296252  20.7851479
  84.4988389  58.3396745  18.4841637  85.0276155  57.8289199  17.8711799
  84.7616608  58.0239275  19.3487170  86.8460280  56.2516862  33.6970726
  87.3900184  56.8646821  33.2025681  86.2647124  56.8096441  34.2137739
  85.1317793  59.3737580  24.8285754  85.0068932  58.5727320  24.3196699
  85.7896884  59.8683774  24.3399723  87.1952701  57.1746600  26.4565304
  86.2483036  57.0551952  26.3843630  87.5435474  56.2869098  26.5391565
  84.1999134  56.9699317  22.6569656  84.0524097  56.0416024  22.8377226
  85.0252628  56.9919407  22.1726731  87.8033256  57.7927875  23.7434529
  88.7279804  57.5870737  23.6058980  87.6348559  57.5444276  24.6523870
  84.1960649  44.8237154  17.6501773  84.4124263  45.7061792  17.3490601
  83.7154716  44.4323368  16.9207415  87.5928572  58.3113543  19.0996620
  87.7665450  57.7459965  18.3470473  88.0857463  59.1114438  18.9176110
  83.0684339  41.3394706  22.6807697  83.0906036  41.4034039  21.7259677
  83.4852398  40.4999215  22.8748203  93.4467963  51.0749966  20.7186920
  93.8899109  50.3257291  20.3206043  92.5694474  51.0660102  20.3360652
  88.5803745  57.6280307  16.1993518  89.2754649  58.2487000  16.4180833
  88.9226895  56.7775658  16.4745896  90.4795168  55.0780013  17.7280849
  91.0046492  55.4167285  17.0030169  90.3917520  54.1427028  17.5443984
  90.1689074  55.7112916  33.0332047  89.3784618  55.6937055  32.4936546
  89.9322428  56.2501210  33.7881084  90.2886949  52.5605383  30.3464776
  90.3384954  52.3955390  31.2880298  90.1800872  51.6932642  29.9562656
  87.5790711  48.5436311  31.6624082  88.4800574  48.4042776  31.3708080
  87.6538686  48.7090766  32.6022260  91.7905146  54.9802324  30.5906797
  91.4989954  55.3432305  31.4270258  91.1777277  54.2669332  30.4120129
  92.9900828  52.5455204  23.1109367  93.8247720  52.9845008  23.2746928
  93.1259957  52.0693857  22.2917613  90.0392334  50.1034939  29.0586855
  90.5146456  50.2962585  28.2505707  89.1157899  50.1594125  28.8130239
  84.8685145  38.5583065  23.5443586  85.1486898  37.8906254  24.1704012
  85.6535752  38.7512161  23.0318249  82.6718613  57.7342059  15.1068612
  82.0992580  58.3532246  14.6539084  83.2451407  58.2841421  15.6408534
  88.7394003  46.9800699  27.2915161  89.6911426  47.0798797  27.3127385
  88.5697453  46.1878967  27.8013245  86.7608383  44.0656282  27.4774562
  86.1658315  44.3461295  26.7821050  86.4758079  44.5550183  28.2491303
  85.8915873  58.0179209  16.2377194  86.8246546  57.9524771  16.4410070
  85.8039086  58.8535476  15.7791727  88.5203890  57.3345079  13.1981142
  88.4417521  57.0004943  14.0916900  89.3413556  57.8266847  13.1972614
  91.2182081  50.2006819  26.4057460  91.1858401  49.2622819  26.5917144
  91.8282704  50.2790855  25.6723285  83.0565412  49.0702872  12.4484664
  84.0024516  48.9409080  12.5173082  82.6779657  48.3317533  12.9254093
  91.3676569  46.9917862  26.4515744  90.8515618  46.2076319  26.2645672
  92.2516518  46.6636579  26.6162263  89.0287296  40.7358878  22.4111556
  88.8312117  40.4273966  23.2954888  89.6387002  41.4620517  22.5409486
  97.0358631  51.2622825  25.5463497  97.7662019  51.0008114  26.1071200
  96.4265576  50.5251547  25.5865565  95.1173928  49.4030688  26.1437948
  94.3907091  49.2686653  25.5354440  94.7021215  49.7107517  26.9494666
  81.2408329  46.9952848  12.3839550  80.3339784  46.6985961  12.4602263
  81.5184310  46.6982666  11.5173836  82.8570395  41.5389738  18.5383791
  82.0471123  41.1936823  18.9139037  83.5454812  41.2297281  19.1271403
  84.7860943  40.6167784  20.1608088  85.3391981  41.0363238  20.8198111
  85.0231029  39.6903533  20.2031044  80.0107113  43.8539783  12.5251529
  80.8726277  44.1794681  12.7847346  80.1957458  43.0671279  12.0124595
  88.1639750  42.7268310  19.6686752  87.5838419  43.3853114  19.2864804
  87.8975683  41.9045654  19.2574169  86.6143316  42.1273367  21.8708072
  87.1143095  42.2389902  21.0622391  87.2578924  41.8234420  22.5108881
  86.9464628  44.8868400  18.7243100  86.0590483  45.1718051  18.5063295
  87.3618617  44.7262163  17.8770377  90.2979164  44.9114921  22.4397439
  91.0739554  45.4011373  22.7122056  89.5727298  45.3372975  22.8969309
  92.7351723  45.6242540  23.4971380  93.3296214  45.3838276  22.7864688
  92.8078306  44.9049671  24.1244916  86.0907841  54.6513075  12.8191120
  86.7943692  54.8563077  13.4348776  85.3670490  55.2189837  13.0840204
  86.9205652  50.4022936  18.9393390  86.8640853  50.8591487  18.1001023
  87.4733994  49.6413621  18.7616233  90.7310458  46.1912668  19.7643510
  90.4747392  45.7909303  20.5951717  90.1063326  46.9056462  19.6393649
  95.0422795  48.9308741  22.2714801  94.4822353  49.0001930  23.0446363
  94.4366299  48.7549726  21.5514297  87.9994539  55.0895604  14.8689580
  88.8340143  54.6576802  14.6867055  87.8378882  54.9177618  15.7966475
  87.6540431  51.5927717  16.2345919  87.5989235  51.4271989  15.2934364
  87.0286486  52.3003750  16.3908109  84.9686338  53.8976629  35.5599482
  85.8377498  54.0717281  35.1986117  84.4893090  54.7171046  35.4375212
  80.9636556  41.0935826  15.8131238  80.9515226  42.0377666  15.9699509
  81.8559978  40.9105972  15.5190699  84.7788676  37.6878603  20.0677175
  84.0121072  37.1337090  20.2133857  85.1899381  37.7600472  20.9291326
  96.6278814  65.6065255  24.9644757  97.2657224  65.4872002  24.2608097
  96.5099657  66.5546099  25.0232709  93.4368520  65.5592683  24.9006282
  93.0987032  65.4433748  24.0126816  94.3058288  65.1583848  24.8807288
  89.2955336  67.4128160  20.8903173  88.7320201  67.3218096  20.1219460
  89.1807731  66.5928064  21.3705665  93.9188303  66.7127535  30.8592487
  93.9076944  66.3180333  29.9872991  94.0808943  65.9793607  31.4526259
  86.8419768  68.9079351  23.7287393  87.6341060  68.5670176  23.3133692
  87.0816418  69.0174326  24.6489546  88.8010522  68.1688264  16.6004772
  89.5741398  67.6217251  16.4617648  89.1535921  69.0332514  16.8119233
  90.6395564  69.4964647  29.8071671  90.3485430  70.4010277  29.6918337
  91.2752549  69.5381174  30.5215741  91.5651771  66.8741495  26.3973031
  92.1615343  66.6497518  25.6829994  91.6226743  66.1326241  26.9998479
  96.1820082  63.3316709  22.0397965  96.9683172  62.9136132  21.6888382
  96.4458787  64.2362801  22.2079613  90.8573088  66.2309036  16.4347597
  90.7409346  65.5553940  17.1028681  90.9675348  65.7441410  15.6179750
  93.2004629  65.6919184  20.1394286  92.8362836  65.1649805  20.8507207
  94.0571745  65.3017653  19.9660771  99.1053930  56.9813516  27.4025552
  98.7737255  57.8508927  27.1786767  98.5099543  56.6649800  28.0819582
  92.8410116  60.7209083  15.1355634  93.0084519  61.5889320  15.5026105
  92.6507285  60.8836365  14.2116924  95.5985449  69.1826062  26.8021465
  95.2986173  70.0851101  26.6937272  95.2536509  68.9158245  27.6542618
  89.0497931  65.6339859  22.8358169  88.1248427  65.5016073  23.0435861
  89.2982344  66.4134078  23.3328112  98.9982593  61.7008602  24.4818902
  98.0899471  61.6324011  24.1877663  98.9470189  62.1780547  25.3100728
  92.8199337  63.1766741  16.1202301  92.6998962  63.6223792  16.9587782
  92.1251925  63.5252058  15.5615839  86.4106742  65.2773133  23.6701958
  86.5399123  65.5307611  24.5841370  85.7304193  65.8700841  23.3506613
  93.0723459  63.1198248  32.4253799  92.2956793  63.6792168  32.4156664
  93.7114022  63.6055031  32.9468669  91.3269831  65.9283701  31.9871766
  92.0684516  66.4668745  31.7106590  90.6206817  66.5549990  32.1443318
  96.8025171  68.0712842  30.5843928  97.2108527  67.6295252  29.8398560
  96.0802432  67.4965469  30.8378121  93.1556241  63.0085449  27.9577485
  94.0017436  63.4324862  28.1012134  93.0954879  62.3519073  28.6516048
  97.1253986  68.6314032  24.3396217  96.4962848  68.7959747  23.6372285
  96.7379648  69.0455642  25.1107181  96.3055686  60.6689817  29.6158658
  96.0616618  61.4231877  29.0792934  96.5815617  61.0475164  30.4505905
  98.2594149  67.2128429  28.2935924  98.4711044  67.8560189  27.6170305
  98.2123897  66.3790746  27.8257854  95.8620378  59.8246250  25.1972496
  95.0004857  60.1227503  25.4889234  95.8882813  60.0416649  24.2653529
  92.6781947  68.3688440  21.6046302  93.1420293  68.6476143  20.8150924
  92.4138746  67.4671885  21.4219393  89.5706029  67.9159922  24.5426065
  90.1407386  68.3447190  23.9043550  90.1614140  67.6342507  25.2410251
  91.6150834  64.4911593  18.4135867  92.3174877  64.9432636  18.8809793
  91.2831462  63.8495412  19.0415760  90.0631195  63.0823349  32.7887076
  89.4329856  63.7639630  33.0222473  89.9567283  62.9706431  31.8440215
  85.3576167  62.7495145  23.7153001  84.5675221  63.0052674  23.2393111
  85.8487415  63.5643483  23.8205041  87.3090913  63.1139725  20.6736477
  86.5122076  63.2258419  21.1919973  87.0816505  63.4526377  19.8077368
  93.1396580  69.6384428  28.6218992  93.2041013  70.1004835  29.4577164
  92.4307504  69.0081793  28.7501302  83.6413870  63.0025636  26.1467991
  83.8921909  63.8872646  26.4125567  84.1773419  62.8230237  25.3743083
  89.3411938  57.3844115  35.1512327  88.9478883  56.8310314  35.8259972
  90.1578078  57.6954694  35.5418845  86.3073996  68.8227973  19.0625897
  86.8198516  69.6171224  19.2131462  86.9596708  68.1254264  18.9959499
  88.1168880  71.9393730  21.1448650  88.2935509  72.8611694  20.9569634
  88.9125714  71.6252149  21.5743030  92.2579899  58.8001994  32.7432584
  92.9989612  59.4009148  32.6637046  92.4897822  58.0579632  32.1850627
  87.4021237  63.9858362  31.0210814  87.2874752  63.0843619  31.3217913
  86.5465755  64.2322058  30.6695630  94.4813075  71.9276102  32.6198314
  94.0376929  71.1412481  32.3019219  95.1430288  72.1155252  31.9542205
  89.2400196  73.4571904  27.1458993  89.7907621  73.3288967  26.3735987
  88.4011672  73.7566793  26.7953886  96.5794313  72.2078902  30.6479716
  96.5612788  73.0287783  30.1559985  97.5014233  72.0832977  30.8729857
  93.0367367  69.7223031  31.4903224  93.5695704  68.9611320  31.2602532
  92.5081448  69.4296683  32.2327378  96.2037062  54.8283097  27.0196866
  95.8601331  55.7184739  26.9435976  96.5716024  54.6384755  26.1566451
  84.2722912  67.1516628  19.8385468  85.1098134  67.5613636  19.6219176
  84.4501180  66.2116070  19.8085662  93.7534455  59.6641409  20.5854539
  92.8976052  59.2748260  20.4060178  94.1661407  59.7433370  19.7254325
  95.2833602  57.1987752  24.9846099  94.7798398  57.1617888  24.1713904
  95.5764209  58.1080495  25.0442756  91.5276488  57.2826482  23.9912281
  92.3929485  57.0869291  23.6318170  91.5953997  57.0536834  24.9181637
  95.9573648  62.6918801  17.3529082  95.6523783  63.0064950  18.2039225
  96.9104090  62.7700220  17.3956415  94.4020079  68.8509024  19.0022036
  93.8741441  68.1161783  18.6895273  93.9007582  69.6283700  18.7562004
  89.1338807  59.5128690  21.3628647  89.7082559  59.2903872  20.6301840
  89.7209789  59.5817385  22.1157249  98.1918384  65.4002417  22.1693024
  98.7050266  66.0332409  22.6714734  98.8419608  64.8003613  21.8036384
  89.4608394  61.5433151  15.3824533  88.6245706  61.8807838  15.7033807
  89.3213164  61.4082131  14.4451670  91.4361475  56.3869939  20.0903717
  90.7825887  56.0718956  19.4660332  91.3941949  55.7645680  20.8163540
  94.6699215  62.8751873  24.4151365  93.7521777  63.0966820  24.2573053
  95.0859359  62.9498183  23.5563072  95.4534263  64.2743288  19.5454045
  96.2006082  64.7864685  19.2361167  95.7225852  63.9527341  20.4058438
  97.9013100  61.3100405  21.5272834  97.1635857  60.7977791  21.8583077
  98.1539874  60.8700786  20.7156111  98.0024727  54.0876657  22.1214603
  98.3083604  53.2274020  21.8340518  98.7277332  54.6794277  21.9213597
  84.2949083  64.4907343  20.5096201  84.0973483  63.8976704  19.7847268
  83.7395747  64.1859553  21.2272140  92.2745807  64.3830450  22.6290794
  92.3294417  63.4304286  22.5533271  91.4637009  64.5389889  23.1132093
  90.2138167  63.0007509  20.3881173  89.4006033  63.3001680  20.7946365
  90.7097161  62.6063198  21.1055656  92.3646745  72.9965266  22.3215438
  92.3222924  73.2226113  21.3923970  93.2809444  72.7628641  22.4701239
  95.8112379  63.4649334  29.2196067  96.1661766  63.6920807  30.0790533
  96.4584510  63.7967711  28.5973322  89.7052242  60.5725865  26.0042408
  90.3451621  60.4314624  25.3065372  88.8729772  60.2860378  25.6281010
  90.4812546  69.8728295  22.1177401  91.2753144  69.3778615  21.9159976
  89.7704238  69.3446158  21.7545106  95.3007390  72.2546391  26.4689768
  95.3544412  72.8237327  27.2367484  94.4322172  72.4248276  26.1043805
  86.7895309  64.0171377  18.1937153  85.8592897  63.9555833  18.4107115
  86.8852781  63.4947330  17.3973795  86.7080858  60.5426190  20.7815395
  86.9687676  61.4571523  20.6724555  87.5298031  60.0750632  20.9312008
  88.1805784  61.9563947  27.9514220  88.8528837  61.7481309  27.3026868
  87.3535570  61.7586033  27.5119452  94.0831356  58.5825888  29.9679880
  93.4359271  59.2815838  29.8744357  94.8532371  59.0162032  30.3356129
  97.4910153  68.8474740  33.0430434  97.3395660  68.6185292  32.1260517
  97.4814833  69.8045342  33.0561779  94.2595490  66.4206653  28.0276700
  95.1887550  66.5717812  27.8545667  93.8386520  66.5090674  27.1725347
  93.0583822  70.4457317  25.7975238  92.9194907  70.0776102  26.6701176
  92.2698418  70.9604957  25.6259196  94.6089037  69.8238920  23.1864076
  94.2738869  69.7839690  24.0821725  94.1092983  69.1583636  22.7134486
  88.5833281  65.2306550  28.7116657  88.4453079  64.4986789  29.3128196
  89.4938204  65.1415450  28.4300844  91.2115581  64.9426509  28.2000336
  91.9215200  64.3019702  28.1586955  91.1684890  65.1939404  29.1226517
  99.2002360  71.8793863  31.1206916  99.1414906  71.1953083  30.4537499
  99.6021879  72.6212853  30.6687542  89.9244515  61.9291727  30.0195976
  89.3881872  61.4782466  30.6717572  89.3361224  62.0637636  29.2766440
  88.2193059  78.6955777  23.9140634  88.4589657  79.3274301  24.5919653
  87.3762255  78.3443817  24.2005994  89.3346774  61.3880379  12.5822439
  88.4576241  61.2669179  12.2184686  89.8104527  60.5966457  12.3301328
  99.2019767  69.8433447  29.3520895  98.3146546  69.5059368  29.4747294
  99.7718318  69.1116478  29.5889661  80.8548915  66.1757538  22.6763947
  81.5419954  65.8619268  22.0884962  80.6997043  67.0798903  22.4031198
  85.6583637  61.0647735  27.1048970  85.5741825  60.4573404  26.3699380
  84.8366343  61.5556753  27.1058467  92.7320921  74.5034899  26.3182138
  92.6591092  75.3089870  26.8301443  92.2898314  74.7026865  25.4930160
  95.8307351  59.5501298  22.4719165  96.3276050  58.7971261  22.1520236
  95.0594332  59.5865615  21.9062375  96.9137131  68.3072986  20.0457589
  95.9793410  68.4274448  19.8762293  97.0913800  67.4045452  19.7817599
  92.4142319  61.6918681  22.1990850  92.0440107  61.1389722  22.8871756
  92.9101412  61.0876815  21.6465850  90.2431518  72.1516176  29.2945868
  90.9440977  72.7852659  29.4475262  89.7726633  72.4930908  28.5341507
  98.2726345  56.5170892  24.6198524  97.3589425  56.7475119  24.7880731
  98.7019447  56.6009336  25.4712557  98.0432804  64.7060784  27.1198418
  97.3904254  64.9536691  26.4650871  98.4213184  63.8924922  26.7860896
  94.0920377  65.4480595  33.6064455  93.4161014  65.3474724  34.2766831
  94.9148011  65.2919809  34.0700453  85.8399236  71.6852531  26.2276971
  86.4252673  70.9396219  26.3604875  85.6424074  71.9956488  27.1113635
  88.6937891  74.7203779  21.2439413  88.0248266  75.2049907  20.7603453
  88.5550761  74.9672999  22.1582792  92.8343160  76.7547522  27.8422071
  93.3861468  76.9179144  28.6071157  93.1749353  77.3451960  27.1702096
  87.8107653  59.1022672  28.4443956  87.8748979  59.9637503  28.0321354
  87.7474773  58.4896674  27.7116315  87.2859925  61.1745805  32.0916990
  87.9131964  60.7922882  32.7054515  86.4287844  60.9560007  32.4572683
  97.6854034  71.5808780  33.6970726  98.2293938  72.1938738  33.2025681
  97.1040879  72.1388358  34.2137739  84.0625468  62.9822234  18.0235345
  84.3578909  62.0732912  17.9702399  83.1613504  62.9609973  17.7016348
  95.9711547  74.7029498  24.8285754  95.8462686  73.9019238  24.3196699
  96.6290638  75.1975691  24.3399723  87.5919715  61.0578230  24.0062894
  86.8706301  61.6714198  23.8670367  88.3812971  61.5935995  23.9279540
  98.0346455  72.5038518  26.4565304  97.0876791  72.3843869  26.3843630
  98.3829229  71.6161016  26.5391565  90.3946029  58.3932657  30.2803546
  90.9180431  58.6394953  31.0429855  90.1758362  59.2252692  29.8606683
  85.7913310  60.6636332  18.1474670  85.4626016  59.7833710  17.9649776
  86.1452681  60.6084000  19.0351060  95.0392889  72.2991234  22.6569656
  94.8917851  71.3707942  22.8377226  95.8646382  72.3211325  22.1726731
  88.9055133  60.9509301  18.5150148  89.2451205  61.4795223  17.7928756
  89.3527253  61.2889707  19.2908715  98.6427011  73.1219793  23.7434529
  99.5673558  72.9162654  23.6058980  98.4742314  72.8736194  24.6523870
  91.5998574  59.3346352  27.9653216  91.2595394  58.5354165  28.3673896
  90.8937580  59.6348063  27.3930049  92.2515046  56.4195664  26.4180539
  93.0741115  55.9456143  26.2959429  92.4953109  57.1986148  26.9179225
  90.8923280  59.4483923  16.7143441  91.6131643  59.8265176  16.2107158
  90.2688584  60.1672800  16.8178419  95.0354403  60.1529072  17.6501773
  95.2518017  61.0353710  17.3490601  94.5548470  59.7615285  16.9207415
  89.7753624  63.1114785  24.2272518  89.6298205  63.4255088  25.1196799
  89.2978828  63.7299685  23.6743416  91.6350007  60.1017333  24.2753407
  91.6211576  59.2058426  23.9385705  92.3522435  60.1087997  24.9091693
  93.4876138  60.5354673  26.3206535  93.2293916  61.4571744  26.3190865
  92.9561178  60.1385108  27.0106999  84.2499287  65.6520129  27.1660179
  83.7052755  66.4279937  27.2980453  85.1278636  65.9990934  27.0079300
  91.0386903  58.9831713  19.5440977  91.1602814  58.0548360  19.7431865
  90.7488946  58.9970399  18.6319293  93.9078094  56.6686624  22.6807697
  93.9299790  56.7325957  21.7259677  94.3246153  55.8291132  22.8748203
  85.0365308  64.7790026  30.0590336  84.2947044  64.9272661  30.6454966
  84.7158053  65.0398291  29.1957085  92.9808971  74.3206004  29.8570726
  93.2896097  74.0755151  30.7293425  93.7784453  74.5252642  29.3689596
  93.0029583  76.4743914  22.0876102  92.5634573  75.9820292  22.7808959
  93.7537700  75.9316881  21.8468178  85.4821922  72.6655454  22.0900730
  86.3079942  72.3659226  21.7099374  85.1315974  71.8963077  22.5390519
  90.4503455  72.0181923  24.1598404  89.8283465  71.3552628  23.8600632
  91.1208322  72.0443055  23.4772052  83.6830527  70.5841781  23.0489664
  82.8462435  70.1563955  22.8673665  83.6554173  70.7774224  23.9860455
  90.5227983  60.4963711  33.7530910  90.5716138  61.3725834  33.3708680
  91.0650497  59.9541104  33.1802553  98.4184466  63.8728228  31.6624082
  99.3194329  63.7334693  31.3708080  98.4932440  64.0382683  32.6022260
  92.7527271  61.2495083  30.5077269  91.8830581  61.5428649  30.2359857
  92.9886752  61.8335528  31.2284532  87.7669595  66.5951024  18.6417933
  87.5215637  65.6913354  18.8398144  87.9365510  66.5968174  17.6997411
  95.4566305  57.4674700  28.0242689  95.9748249  58.2035727  27.6989178
  95.1021438  57.7738693  28.8589448  87.0365243  62.3279381  16.1404095
  86.3434488  62.4023736  15.4844131  86.7916995  61.5639725  16.6625612
  95.7078899  53.8874983  23.5443586  95.9880653  53.2198172  24.1704012
  96.4929506  54.0804078  23.0318249  97.6002137  59.3948200  27.4774562
  97.0052069  59.6753213  26.7821050  97.3151834  59.8842101  28.2491303
  93.7797859  68.4512535  33.9085321  94.7000868  68.6291134  34.1025368
  93.7447442  67.5068581  33.7565021  82.9980024  63.6451129  22.8338596
  82.6782808  62.7916437  22.5412970  82.4513452  63.8599707  23.5896563
  86.7759931  66.3613570  26.5508103  86.9945941  67.2930678  26.5696136
  87.1885705  66.0021544  27.3362906  93.6964149  56.8681655  18.5383791
  92.8864877  56.5228740  18.9139037  94.3848566  56.5589199  19.1271403
  95.6254697  55.9459702  20.1608088  96.1785736  56.3655156  20.8198111
  95.8624784  55.0195450  20.2031044  91.6487797  61.9346776  35.9410851
  91.5484523  62.8841133  35.8722943  91.4309339  61.6065015  35.0686922
  90.8500868  59.1831701  12.5251529  91.7120032  59.5086599  12.7847346
  91.0351212  58.3963197  12.0124595  82.8668284  67.2654041  24.8031718
  82.1731755  66.8507993  24.2901672  83.6141275  67.3074577  24.2065137
  99.0033504  58.0560227  19.6686752  98.4232173  58.7145031  19.2864804
  98.7369437  57.2337572  19.2574169  97.4537071  57.4565285  21.8708072
  97.9536849  57.5681820  21.0622391  98.0972679  57.1526338  22.5108881
  91.5119067  65.3643915  34.7575913  91.0286148  66.1644275  34.9639802
  91.5980006  65.3751860  33.8043357  84.7805026  67.1972294  22.6797732
  84.7575714  67.2959982  21.7279616  85.0905663  68.0437445  23.0014899
  87.4392404  69.2548449  26.7944347  88.3935658  69.2232392  26.7274278
  87.2404928  68.7939073  27.6094573  88.0291786  67.8249565  29.3615145
  88.8484675  68.3193644  29.3849982  88.3028594  66.9081534  29.3332712
  97.7858382  60.2160318  18.7243100  96.8984237  60.5009968  18.5063295
  98.2012372  60.0554081  17.8770377  85.7942633  74.7968069  23.8114545
  85.6597101  74.0368470  23.2452543  85.3774695  75.5208969  23.3443334
  97.7599406  65.7314854  18.9393390  97.7034608  66.1883405  18.1001023
  98.3127749  64.9705538  18.7616233  88.9511759  75.6937386  24.0232987
  88.8344143  76.6382818  23.9211678  88.1304205  75.3910947  24.4118787
  95.8080093  69.2268547  35.5599482  96.6771252  69.4009199  35.1986117
  95.3286844  70.0462964  35.4375212  91.8030311  56.4227744  15.8131238
  91.7908981  57.3669584  15.9699509  92.6953733  56.2397889  15.5190699
  89.9766273  76.3465648  27.2388916  90.8793520  76.3789258  27.5555411
  89.7503643  75.4166099  27.2535252  91.7319875  75.0996634  23.8998994
  90.7815506  75.0998496  23.7863367  92.0352361  74.3529369  23.3835029
  95.6182430  53.0170521  20.0677175  94.8514826  52.4629007  20.2133857
  96.0293135  53.0892389  20.9291326  87.6224191  59.3055316  34.1582356
  88.4855653  58.9492121  34.3685680  87.0489602  58.9669211  34.8457760
  94.4807625  78.3317554  26.1467991  94.7315663  79.2164564  26.4125567
  95.0167173  78.1522155  25.3743083  98.2414991  79.3150279  31.0210814
  98.1268506  78.4135537  31.3217913  97.3859509  79.5613976  30.6695630
  99.0199538  77.2855865  27.9514220  99.6922591  77.0773227  27.3026868
  98.1929325  77.0877951  27.5119452  96.4977391  76.3939653  27.1048970
  96.4135580  75.7865322  26.3699380  95.6760098  76.8848671  27.1058467
  91.2710645  79.5850049  24.9481414  91.3094745  79.0513640  25.7418532
  90.7650938  79.0585255  24.3292391  98.6501407  74.4314590  28.4443956
  98.7142734  75.2929421  28.0321354  98.5868528  73.8188592  27.7116315
  98.1253680  76.5037722  32.0916990  98.7525719  76.1214800  32.7054515
  97.2681599  76.2851924  32.4572683  95.0893041  80.9812047  27.1660179
  94.5446509  81.7571855  27.2980453  95.9672391  81.3282852  27.0079300
  95.8759063  80.1081943  30.0590336  95.1340799  80.2564579  30.6454966
  95.5551807  80.3690209  29.1957085  98.8685541  83.1541483  29.3615145
  99.6878430  83.6485562  29.3849982  99.1422348  82.2373451  29.3332712
  94.1220455  77.4879617  30.0607342  94.7679319  76.9778571  30.5494567
  93.9137606  78.2248299  30.6350767  98.4617946  74.6347234  34.1582356
  99.3249408  74.2784039  34.3685680  97.8883357  74.2961129  34.8457760
  58.1214302   0.5151016  16.5316978  57.8304168   1.4196647  16.4163644
  58.7571286   0.5567544  17.2461047  61.9631812   2.9462472  19.3443621
  61.5195666   2.1598850  19.0264525  62.6249026   3.1341622  18.6787512
  56.7218933   4.4758273  13.8704299  57.2726359   4.3475336  13.0981293
  55.8830409   4.7753162  13.5199192  64.0613050   3.2265271  17.3725022
  64.0431526   4.0474153  16.8805291  64.9832970   3.1019347  17.5975163
  62.7826128   3.2732760  13.1935075  62.8363150   3.8423697  13.9612791
  61.9140909   3.4434645  12.8289112  60.2139659   5.5221269  13.0427445
  60.1409830   6.3276240  13.5546750  59.7717052   5.7213234  12.2175466
  62.6738342   5.4208103  15.1985604  63.3866314   6.0555567  15.1261505
  62.1828371   5.5171969  14.3825606  57.7250256   3.1702546  16.0191175
  58.4259715   3.8039029  16.1720569  57.2545371   3.5117278  15.2586814
  60.3161898   7.7733892  14.5667378  60.8680206   7.9365513  15.3316463
  60.6568091   8.3638330  13.8947403  63.4530285   5.7215867  11.5531060
  63.3281424   4.9205607  11.0442006  64.1109376   6.2162061  11.0645030
  66.1245748   4.1406163  10.4679835  67.0492296   3.9349024  10.3304286
  65.9561052   3.8922564  11.3769177  60.4627709   5.3392374  16.5816032
  60.7714835   5.0941520  17.4538732  61.2603191   5.5439012  16.0934903
  57.4585011   7.3652017  13.9634222  58.3612257   7.3975628  14.2800717
  57.2322381   6.4352468  13.9780558  67.6167828  13.7606447   7.6148479
  67.0532693  13.6696384   6.8464767  67.5020223  12.9406351   8.0950972
  72.2400795  13.0605822  17.5837794  72.2289436  12.6658620  16.7118297
  72.4021435  12.3271895  18.1771565  65.1632260  15.2557638  10.4532700
  65.9553552  14.9148463  10.0378999  65.4028910  15.3652613  11.3734853
  68.9608057  15.8442934  16.5316978  68.6697923  16.7488565  16.4163644
  69.5965041  15.8859461  17.2461047  69.8864263  13.2219782  13.1218337
  70.4827836  12.9975805  12.4075300  69.9439235  12.4804528  13.7243785
  73.9197942  15.5304349  13.5266771  73.6198665  16.4329388  13.4182579
  73.5749001  15.2636533  14.3787924  67.3710423  11.9818146   9.5603476
  66.4460920  11.8494360   9.7681168  67.6194836  12.7612365  10.0573418
  64.7319234  11.6251420  10.3947265  64.8611615  11.8785899  11.3086677
  64.0516686  12.2179128  10.0751920  68.9018722  22.2948670   6.4937739
  68.8242751  23.2456495   6.5726220  68.2980365  21.9494542   7.1512665
  71.3935951   9.4676535  19.1499106  70.6169285  10.0270455  19.1401971
  72.0326514   9.9533318  19.6713976  69.6482324  12.2761989  18.7117073
  70.3897008  12.8147032  18.4351897  68.9419309  12.9028277  18.8688625
  75.1237663  14.4191129  17.3089234  75.5321019  13.9773540  16.5643867
  74.4014925  13.8443757  17.5623427  71.4768733   9.3563736  14.6822791
  72.3229928   9.7803149  14.8257440  71.4167371   8.6997360  15.3761355
  75.4466478  14.9792320  11.0641523  74.8175340  15.1438034  10.3617591
  75.0592140  15.3933929  11.8352487  74.6268179   7.0168104  16.3403965
  74.3829110   7.7710165  15.8038241  74.9028109   7.3953452  17.1751212
  76.5806641  13.5606716  15.0181231  76.7923537  14.2038476  14.3415612
  76.5336390  12.7269033  14.5503161  70.9994440  14.7166728   8.3291608
  71.4632785  14.9954431   7.5396231  70.7351238  13.8150172   8.1464699
  67.8918521  14.2638209  11.2671372  68.4619878  14.6925478  10.6288856
  68.4826633  13.9820794  11.9655557  68.3843687   9.4301637  19.5132383
  67.7542348  10.1117918  19.7467780  68.2779775   9.3184718  18.5685521
  63.6788660   9.0973433  10.4398307  62.8887714   9.3530961   9.9638418
  64.1699907   9.9121771  10.5450348  77.6952469  16.4378672  13.1903588
  78.5169913  16.0358859  12.9086270  77.6914872  16.3346906  14.1419704
  65.6303405   9.4618012   7.3981784  64.8334568   9.5736706   7.9165280
  65.4028997   9.8004664   6.5322674  71.4609073  15.9862715  15.3464299
  71.5253505  16.4483122  16.1822470  70.7519997  15.3560080  15.4746608
  61.9626363   9.3503923  12.8713298  62.2134401  10.2350933  13.1370874
  62.4985911   9.1708525  12.0988390  64.6286488  15.1706261   5.7871204
  65.1411008  15.9649511   5.9376769  65.2809201  14.4732551   5.7204805
  66.4381373  18.2872017   7.8693957  66.6148001  19.2089982   7.6814941
  67.2338206  17.9730436   8.2988337  65.7233729  10.3336649  17.7456120
  65.6087244   9.4321906  18.0463219  64.8678247  10.5800346  17.3940937
  72.8025567  18.2754389  19.3443621  72.3589421  17.4890768  19.0264525
  73.4642780  18.4633540  18.6787512  67.5612688  19.8050191  13.8704299
  68.1120113  19.6767254  13.0981293  66.7224164  20.1045080  13.5199192
  74.9006805  18.5557189  17.3725022  74.8825280  19.3766070  16.8805291
  75.8226725  18.4311264  17.5975163  71.3579859  16.0701319  18.2148531
  71.8908196  15.3089607  17.9847839  70.8293940  15.7774970  18.9572685
  62.5935405  13.4994915   6.5630774  63.4310627  13.9091923   6.3464482
  62.7713672  12.5594357   6.5330968  70.5958299  10.7308737   9.3536101
  70.6506909   9.7782573   9.2778578  69.7849501  10.8868176   9.8377399
  70.6859237  19.3443554   9.0460745  70.6435416  19.5704400   8.1169277
  71.6021936  19.1106928   9.1946546  74.1324871   9.8127621  15.9441374
  74.4874259  10.0399094  16.8035840  74.7797002  10.1445998  15.3218629
  68.0264734   6.9204152  12.7287715  68.6664113   6.7792911  12.0310678
  67.1942265   6.6338665  12.3526317  68.8025038  16.2206583   8.8422707
  69.5965636  15.7256903   8.6405282  68.0916730  15.6924446   8.4790413
  73.6219882  18.6024678  13.1935075  73.6756905  19.1715614  13.9612791
  72.7534664  18.7726563  12.8289112  66.5018276   8.3042234  14.6759526
  67.1741329   8.0959596  14.0272175  65.6748062   8.1064320  14.2364758
  80.7507537  15.0446285  14.1934860  80.9443427  15.9492095  14.4394135
  80.6508155  14.5853704  15.0273445  75.8122646  15.1953027  19.7675740
  75.6608152  14.9663579  18.8505824  75.8027325  16.1523629  19.7807085
  72.5807982  12.7684940  14.7522007  73.5100042  12.9196100  14.5790974
  72.1599012  12.8568961  13.8970653  71.3796314  16.7935605  12.5220544
  71.2407400  16.4254389  13.3946483  70.5910910  17.3083244  12.3504502
  71.9744466  21.8944701   3.8646081  72.1496222  21.4232744   4.6791704
  71.2877254  22.5210467   4.0927342  72.9301529  16.1717207   9.9109382
  72.5951362  16.1317977  10.8067032  72.4305475  15.5061923   9.4379792
  66.9045773  11.5784837  15.4361963  66.7665571  10.8465076  16.0373502
  67.8150697  11.4893737  15.1546151  69.5328074  11.2904797  14.9245643
  70.2427692  10.6497989  14.8832261  69.4897382  11.5417691  15.8471824
  77.5214852  18.2272150  17.8452222  77.4627399  17.5431370  17.1782805
  77.9234371  18.9691140  17.3932848  68.2457008   8.2770014  16.7441282
  67.7094365   7.8260753  17.3962879  67.6573716   8.4115923  16.0011747
  66.5405551  25.0434064  10.6385941  66.7802149  25.6752588  11.3164960
  65.6974748  24.6922104  10.9251300  77.5232260  16.1911734  16.0766202
  76.6359038  15.8537656  16.1992601  78.0930811  15.4594765  16.3134967
  59.1761407  12.5235826   9.4009253  59.8632447  12.2097556   8.8130269
  59.0209535  13.4277190   9.1276505  71.0533413  20.8513186  13.0427445
  70.9803585  21.6568158  13.5546750  70.6110806  21.0505152  12.2175466
  70.8423193  20.0884956   6.5530267  70.0590715  20.6306636   6.6468491
  71.5415938  20.6058936   6.9524508  73.5132097  20.7500020  15.1985604
  74.2260069  21.3847485  15.1261505  73.0222125  20.8463886  14.3825606
  68.5644010  18.4994464  16.0191175  69.2653470  19.1330947  16.1720569
  68.0939125  18.8409195  15.2586814  73.3252470  21.0898764   7.9471895
  73.5074865  20.2720420   8.4099648  74.1485456  21.3066457   7.5096785
  72.4132869  11.7958882  20.3309762  71.7373506  11.6953012  21.0012137
  73.2360503  11.6398096  20.7945759  64.1611728  18.0330819  12.9522277
  64.7465165  17.2874507  13.0850181  63.9636567  18.3434775  13.8358941
  67.0150383  21.0682066   7.9684720  66.3460759  21.5528194   7.4848760
  66.8763253  21.3151287   8.8828098  58.7529383  10.6036419  11.6726720
  58.7913482  10.0700010  12.4663839  58.2469676  10.0771624  11.0537698
  71.1555652  23.1025810  14.5667378  71.7073960  23.2657431  15.3316463
  71.4961845  23.6930247  13.8947403  66.1320145   5.4500959  15.1689263
  66.1961472   6.3115790  14.7566660  66.0687265   4.8374961  14.4361621
  65.6072418   7.5224092  18.8162297  66.2344457   7.1401169  19.4299821
  64.7500337   7.3038294  19.1817989  76.0066526  17.9287067  20.4216032
  76.5506430  18.5417025  19.9270987  75.4253371  18.4866646  20.9383045
  74.2924039  21.0507785  11.5531060  74.1675179  20.2497525  11.0442006
  74.9503130  21.5453979  11.0645030  65.9132208   7.4056518  10.7308200
  65.1918793   8.0192485  10.5915674  66.7025463   7.9414282  10.6524846
  76.3558948  18.8516805  13.1810610  75.4089283  18.7322156  13.1088937
  76.7041721  17.9639303  13.2636872  68.7158521   4.7410944  17.0048852
  69.2392923   4.9873241  17.7675161  68.4970854   5.5730979  16.5851989
  73.3605381  18.6469521   9.3814962  73.2130343  17.7186229   9.5622533
  74.1858874  18.6689612   8.8972038  76.9639503  19.4698080  10.4679835
  77.8886050  19.2640942  10.3304286  76.7954806  19.2214481  11.3769177
  69.9211066   5.6824639  14.6898523  69.5807886   4.8832452  15.0919203
  69.2150072   5.9826350  14.1175356  68.0966117   9.4593072  10.9517824
  67.9510697   9.7733375  11.8442106  67.6191320  10.0777973  10.3988723
  71.8088630   6.8832961  13.0451841  71.5506408   7.8050031  13.0436172
  71.2773671   6.4863395  13.7352305  62.5711779  11.9998417  13.8905485
  62.0265247  12.7758225  14.0225760  63.4491129  12.3469221  13.7324607
  63.3577801  11.1268313  16.7835642  62.6159537  11.2750948  17.3700273
  63.0370545  11.3876579  15.9202392  71.3021463  20.6684291  16.5816032
  71.6108590  20.4233438  17.4538732  72.0996945  20.8730930  16.0934903
  71.3242075  22.8222201   8.8121409  70.8847066  22.3298580   9.5054266
  72.0750192  22.2795169   8.5713484  63.8034414  19.0133742   8.8146037
  64.6292434  18.7137514   8.4344681  63.4528466  18.2441364   9.2635826
  68.7715948  18.3660210  10.8843711  68.1495957  17.7030915  10.5845938
  69.4420814  18.3921342  10.2017358  62.0043019  16.9320068   9.7734971
  61.1674928  16.5042243   9.5918972  61.9766665  17.1252512  10.7105762
  68.8440475   6.8441998  20.4776217  68.8928630   7.7204121  20.0953986
  69.3862989   6.3019391  19.9047860  79.3295321  17.3883121  19.7577354
  78.5390864  17.3707260  19.2181853  79.0928675  17.9271415  20.5126390
  79.4493196  14.2375588  17.0710082  79.4991201  14.0725595  18.0125605
  79.3407119  13.3702847  16.6807963  68.3329454  16.9164133   4.3602171
  68.4817575  17.5999598   3.7068844  69.1395898  16.8969223   4.8751627
  76.7396958  10.2206516  18.3869389  77.6406821  10.0812980  18.0953387
  76.8144933  10.3860970  19.3267566  71.0739763   7.5973370  17.2322575
  70.2043073   7.8906936  16.9605164  71.3099244   8.1813815  17.9529839
  80.9511393  16.6572529  17.3152104  80.6596201  17.0202510  18.1515565
  80.3383524  15.9439537  17.1365436  79.1998581  11.7805144  15.7832162
  79.6752702  11.9732790  14.9751013  78.2764146  11.8364330  15.5375545
  66.0882087  12.9429311   5.3663240  65.8428129  12.0391641   5.5643450
  66.2578002  12.9446461   4.4242718  72.1010351  14.7990823  20.6330628
  73.0213360  14.9769422  20.8270675  72.0659934  13.8546868  20.4810327
  61.3192516   9.9929416   9.5583903  60.9995300   9.1394724   9.2658277
  60.7725944  10.2077994  10.3141870  65.0972424  12.7091857  13.2753409
  65.3158433  13.6408965  13.2941443  65.5098197  12.3499832  14.0608213
  69.9700289   8.2825063  22.6656158  69.8697016   9.2319420  22.5968249
  69.7521831   7.9543302  21.7932228  61.1880776  13.6132328  11.5277024
  60.4944247  13.1986281  11.0146979  61.9353767  13.6552864  10.9310443
  69.8331559  11.7122202  21.4821220  69.3498641  12.5122562  21.6885109
  69.9192498  11.7230147  20.5288664  63.1017519  13.5450582   9.4043039
  63.0788207  13.6438269   8.4524922  63.4118155  14.3915732   9.7260205
  65.7604896  15.6026737  13.5189654  66.7148150  15.5710679  13.4519585
  65.5617420  15.1417360  14.3339879  66.3504279  14.1727853  16.0860451
  67.1697168  14.6671931  16.1095289  66.6241086  13.2559821  16.0578019
  64.1155125  21.1446356  10.5359851  63.9809593  20.3846757   9.9697849
  63.6987187  21.8687256  10.0688640  67.2724251  22.0415673  10.7478294
  67.1556635  22.9861106  10.6456984  66.4516697  21.7389235  11.1364093
  61.6039193   8.5065986  16.7852648  62.2498056   7.9964940  17.2739873
  61.3956344   9.2434668  17.3596074  74.1292585  15.5746834  22.2844789
  74.9983745  15.7487486  21.9231424  73.6499336  16.3941251  22.1620518
  68.2978765  22.6943935  13.9634222  69.2006012  22.7267545  14.2800717
  68.0716135  21.7644386  13.9780558  70.0532367  21.4474922  10.6244301
  69.1027998  21.4476783  10.5108673  70.3564853  20.7007656  10.1080336
  65.9436684   5.6533604  20.8827663  66.8068145   5.2970408  21.0930987
  65.3702094   5.3147498  21.5703067  82.5974767  27.2362888  11.6251588
  82.2593279  27.1203953  10.7372123  83.4664535  26.8354053  11.6052594
  78.4561583  29.0898364   7.6148479  77.8926448  28.9988301   6.8464767
  78.3413978  28.2698269   8.0950972  83.0794550  28.3897740  17.5837794
  83.0683191  27.9950538  16.7118297  83.2415189  27.6563812  18.1771565
  76.0026015  30.5849556  10.4532700  76.7947307  30.2440381  10.0378999
  76.2422665  30.6944531  11.3734853  80.7258018  28.5511700  13.1218337
  81.3221590  28.3267722  12.4075300  80.7832989  27.8096446  13.7243785
  84.7591696  30.8596267  13.5266771  84.4592419  31.7621306  13.4182579
  84.4142756  30.5928450  14.3787924  78.2104178  27.3110064   9.5603476
  77.2854674  27.1786278   9.7681168  78.4588591  28.0904283  10.0573418
  75.5712989  26.9543337  10.3947265  75.7005370  27.2077816  11.3086677
  74.8910440  27.5471045  10.0751920  79.7412476  37.6240587   6.4937739
  79.6636506  38.5748413   6.5726220  79.1374120  37.2786460   7.1512665
  82.2329706  24.7968453  19.1499106  81.4563040  25.3562373  19.1401971
  82.8720269  25.2825236  19.6713976  80.4876078  27.6053906  18.7117073
  81.2290762  28.1438950  18.4351897  79.7813064  28.2320195  18.8688625
  82.3162488  24.6855653  14.6822791  83.1623683  25.1095067  14.8257440
  82.2561125  24.0289278  15.3761355  86.2860232  30.3084237  11.0641523
  85.6569095  30.4729951  10.3617591  85.8985894  30.7225847  11.8352487
  85.4661933  22.3460022  16.3403965  85.2222865  23.1002082  15.8038241
  85.7421864  22.7245369  17.1751212  87.4200396  28.8898634  15.0181231
  87.6317291  29.5330394  14.3415612  87.3730144  28.0560951  14.5503161
  81.8388194  30.0458645   8.3291608  82.3026540  30.3246348   7.5396231
  81.5744992  29.1442090   8.1464699  78.7312275  29.5930127  11.2671372
  79.3013632  30.0217395  10.6288856  79.3220387  29.3112712  11.9655557
  79.2237442  24.7593554  19.5132383  78.5936102  25.4409835  19.7467780
  79.1173530  24.6476636  18.5685521  74.5182414  24.4265350  10.4398307
  73.7281468  24.6822879   9.9638418  75.0093662  25.2413688  10.5450348
  88.5346224  31.7670590  13.1903588  89.3563668  31.3650777  12.9086270
  88.5308627  31.6638824  14.1419704  76.4697160  24.7909930   7.3981784
  75.6728323  24.9028624   7.9165280  76.2422752  25.1296582   6.5322674
  82.3002827  31.3154633  15.3464299  82.3647260  31.7775040  16.1822470
  81.5913751  30.6851998  15.4746608  72.8020117  24.6795841  12.8713298
  73.0528156  25.5642851  13.1370874  73.3379666  24.5000442  12.0988390
  78.5018185  19.0614320  21.8757634  78.1085130  18.5080519  22.5505278
  79.3184325  19.3724899  22.2664152  75.4680242  30.4998178   5.7871204
  75.9804763  31.2941429   5.9376769  76.1202955  29.8024469   5.7204805
  77.2775127  33.6163935   7.8693957  77.4541755  34.5381899   7.6814941
  78.0731961  33.3022354   8.2988337  81.4186146  20.4772199  19.4677891
  82.1595859  21.0779352  19.3882353  81.6504068  19.7349837  18.9095933
  76.5627484  25.6628567  17.7456120  76.4480999  24.7613824  18.0463219
  75.7072001  25.9092263  17.3940937  83.6419321  33.6046307  19.3443621
  83.1983175  32.8182685  19.0264525  84.3036535  33.7925457  18.6787512
  78.4006442  35.1342108  13.8704299  78.9513868  35.0059172  13.0981293
  77.5617918  35.4336997  13.5199192  85.7400559  33.8849107  17.3725022
  85.7219035  34.7057988  16.8805291  86.6620479  33.7603182  17.5975163
  82.1973614  31.3993236  18.2148531  82.7301950  30.6381524  17.9847839
  81.6687695  31.1066888  18.9572685  73.4329159  28.8286833   6.5630774
  74.2704381  29.2383841   6.3464482  73.6107427  27.8886275   6.5330968
  73.4555330  26.1677548   7.2341508  73.2579730  25.5746909   6.5092574
  72.9001994  25.8629758   7.9517447  81.4352054  26.0600655   9.3536101
  81.4900664  25.1074491   9.2778578  80.6243256  26.2160094   9.8377399
  81.5252992  34.6735471   9.0460745  81.4829170  34.8996317   8.1169277
  82.4415691  34.4398846   9.1946546  84.9718625  25.1419539  15.9441374
  85.3268013  25.3691012  16.8035840  85.6190757  25.4737916  15.3218629
  78.8658489  22.2496070  12.7287715  79.5057868  22.1084829  12.0310678
  78.0336019  21.9630583  12.3526317  79.6418792  31.5498500   8.8422707
  80.4359391  31.0548820   8.6405282  78.9310485  31.0216363   8.4790413
  84.4613637  33.9316596  13.1935075  84.5150659  34.5007532  13.9612791
  83.5928418  34.1018481  12.8289112  75.8687105  22.2196395   7.5060702
  76.1293922  23.1341728   7.3969862  76.6904277  21.7520837   7.6557314
  77.3412030  23.6334152  14.6759526  78.0135084  23.4251514  14.0272175
  76.5141817  23.4356238  14.2364758  91.5901292  30.3738202  14.1934860
  91.7837182  31.2784013  14.4394135  91.4901910  29.9145621  15.0273445
  83.2437602  20.2596093  16.6925187  82.5965517  20.9586043  16.5989663
  84.0138618  20.6932237  17.0601435  86.6516400  30.5244945  19.7675740
  86.5001907  30.2955497  18.8505824  86.6421080  31.4815546  19.7807085
  83.4201737  28.0976858  14.7522007  84.3493797  28.2488017  14.5790974
  82.9992767  28.1860879  13.8970653  82.2190068  32.1227522  12.5220544
  82.0801154  31.7546307  13.3946483  81.4304665  32.6375162  12.3504502
  82.8138220  37.2236619   3.8646081  82.9889976  36.7524662   4.6791704
  82.1271008  37.8502385   4.0927342  83.7695284  31.5009125   9.9109382
  83.4345116  31.4609895  10.8067032  83.2699229  30.8353841   9.4379792
  77.7439528  26.9076755  15.4361963  77.6059326  26.1756994  16.0373502
  78.6544451  26.8185655  15.1546151  80.3721828  26.6196714  14.9245643
  81.0821447  25.9789906  14.8832261  80.3291136  26.8709609  15.8471824
  88.3608607  33.5564068  17.8452222  88.3021153  32.8723288  17.1782805
  88.7628125  34.2983058  17.3932848  79.0850762  23.6061932  16.7441282
  78.5488119  23.1552671  17.3962879  78.4967471  23.7407841  16.0011747
  77.3799306  40.3725981  10.6385941  77.6195904  41.0044506  11.3164960
  76.5368502  40.0214021  10.9251300  88.3626014  31.5203652  16.0766202
  87.4752793  31.1829573  16.1992601  88.9324565  30.7886683  16.3134967
  70.0155161  27.8527743   9.4009253  70.7026201  27.5389473   8.8130269
  69.8603290  28.7569108   9.1276505  74.8189883  22.7417940  13.8294277
  74.7348072  22.1343609  13.0944687  73.9972590  23.2326958  13.8303773
  81.8927168  36.1805104  13.0427445  81.8197339  36.9860075  13.5546750
  81.4504561  36.3797070  12.2175466  81.6816947  35.4176874   6.5530267
  80.8984469  35.9598554   6.6468491  82.3809692  35.9350854   6.9524508
  84.3525851  36.0791938  15.1985604  85.0653823  36.7139403  15.1261505
  83.8615880  36.1755804  14.3825606  79.4037765  33.8286381  16.0191175
  80.1047224  34.4622864  16.1720569  78.9332880  34.1701113  15.2586814
  84.1646224  36.4190682   7.9471895  84.3468619  35.6012338   8.4099648
  84.9879210  36.6358374   7.5096785  83.2526624  27.1250800  20.3309762
  82.5767261  27.0244929  21.0012137  84.0754258  26.9690014  20.7945759
  75.0005483  33.3622736  12.9522277  75.5858920  32.6166424  13.0850181
  74.8030321  33.6726693  13.8358941  77.8544138  36.3973984   7.9684720
  77.1854513  36.8820111   7.4848760  77.7157008  36.6443204   8.8828098
  69.5923137  25.9328337  11.6726720  69.6307237  25.3991927  12.4663839
  69.0863430  25.4063542  11.0537698  81.9949407  38.4317727  14.5667378
  82.5467715  38.5949349  15.3316463  82.3355600  39.0222165  13.8947403
  76.9713900  20.7792877  15.1689263  77.0355226  21.6407708  14.7566660
  76.9081020  20.1666879  14.4361621  76.4466172  22.8516010  18.8162297
  77.0738211  22.4693087  19.4299821  75.5894091  22.6330212  19.1817989
  86.8460281  33.2578985  20.4216032  87.3900185  33.8708943  19.9270987
  86.2647126  33.8158563  20.9383045  73.2231715  24.6592439   4.7480652
  73.5185156  23.7503117   4.6947705  72.3219751  24.6380178   4.4261654
  85.1317794  36.3799703  11.5531060  85.0068933  35.5789443  11.0442006
  85.7896885  36.8745896  11.0645030  76.7525962  22.7348435  10.7308200
  76.0312548  23.3484403  10.5915674  77.5419218  23.2706200  10.6524846
  87.1952702  34.1808723  13.1810610  86.2483038  34.0614074  13.1088937
  87.5435475  33.2931221  13.2636872  79.5552276  20.0702862  17.0048852
  80.0786677  20.3165158  17.7675161  79.3364609  20.9022897  16.5851989
  84.1999135  33.9761439   9.3814962  84.0524098  33.0478147   9.5622533
  85.0252629  33.9981530   8.8972038  87.8033257  34.7989998  10.4679835
  88.7279805  34.5932859  10.3304286  87.6348561  34.5506399  11.3769177
  80.7604821  21.0116557  14.6898523  80.4201641  20.2124370  15.0919203
  80.0543827  21.3118268  14.1175356  78.9359871  24.7884990  10.9517824
  78.7904452  25.1025293  11.8442106  78.4585075  25.4069890  10.3988723
  82.6482385  22.2124878  13.0451841  82.3900163  23.1341949  13.0436172
  82.1167425  21.8155313  13.7352305  73.4105533  27.3290334  13.8905485
  72.8659001  28.1050142  14.0225760  74.2884883  27.6761139  13.7324607
  74.1971555  26.4560231  16.7835642  73.4553291  26.6042866  17.3700273
  73.8764299  26.7168496  15.9202392  82.1415218  35.9976209  16.5816032
  82.4502344  35.7525356  17.4538732  82.9390700  36.2022847  16.0934903
  82.1635830  38.1514119   8.8121409  81.7240820  37.6590497   9.5054266
  82.9143947  37.6087086   8.5713484  74.6428169  34.3425659   8.8146037
  75.4686189  34.0429431   8.4344681  74.2922221  33.5733282   9.2635826
  79.6109702  33.6952128  10.8843711  78.9889711  33.0322833  10.5845938
  80.2814569  33.7213260  10.2017358  72.8436774  32.2611986   9.7734971
  72.0068682  31.8334160   9.5918972  72.8160419  32.4544429  10.7105762
  79.6834230  22.1733916  20.4776217  79.7322385  23.0496038  20.0953986
  80.2256744  21.6311309  19.9047860  90.1689075  32.7175039  19.7577354
  89.3784619  32.6999178  19.2181853  89.9322430  33.2563333  20.5126390
  90.2886950  29.5667505  17.0710082  90.3384955  29.4017513  18.0125605
  90.1800874  28.6994764  16.6807963  79.1723209  32.2456051   4.3602171
  79.3211329  32.9291515   3.7068844  79.9789652  32.2261141   4.8751627
  87.5790713  25.5498433  18.3869389  88.4800575  25.4104898  18.0953387
  87.6538687  25.7152888  19.3267566  81.9133518  22.9265288  17.2322575
  81.0436827  23.2198854  16.9605164  82.1492998  23.5105733  17.9529839
  90.0392335  27.1097061  15.7832162  90.5146457  27.3024708  14.9751013
  89.1157901  27.1656247  15.5375545  76.9275842  28.2721229   5.3663240
  76.6821884  27.3683559   5.5643450  77.0971756  28.2738379   4.4242718
  82.9404105  30.1282740  20.6330628  83.8607115  30.3061339  20.8270675
  82.9053689  29.1838786  20.4810327  72.1586270  25.3221334   9.5583903
  71.8389055  24.4686642   9.2658277  71.6119699  25.5369912  10.3141870
  75.9366178  28.0383775  13.2753409  76.1552188  28.9700883  13.2941443
  76.3491952  27.6791749  14.0608213  80.8094043  23.6116981  22.6656158
  80.7090770  24.5611338  22.5968249  80.5915585  23.2835220  21.7932228
  72.0274530  28.9424245  11.5277024  71.3338002  28.5278198  11.0146979
  72.7747521  28.9844782  10.9310443  80.6725313  27.0414120  21.4821220
  80.1892395  27.8414480  21.6885109  80.7586252  27.0522064  20.5288664
  73.9411273  28.8742499   9.4043039  73.9181961  28.9730187   8.4524922
  74.2511910  29.7207650   9.7260205  76.5998651  30.9318654  13.5189654
  77.5541904  30.9002597  13.4519585  76.4011174  30.4709278  14.3339879
  77.1898033  29.5019770  16.0860451  78.0090922  29.9963849  16.1095289
  77.4634841  28.5851738  16.0578019  74.9548880  36.4738274  10.5359851
  74.8203348  35.7138675   9.9697849  74.5380942  37.1979174  10.0688640
  78.1118006  37.3707591  10.7478294  77.9950390  38.3153023  10.6456984
  77.2910452  37.0681152  11.1364093  72.4432947  23.8357904  16.7852648
  73.0891811  23.3256858  17.2739873  72.2350098  24.5726586  17.3596074
  84.9686339  30.9038752  22.2844789  85.8377499  31.0779404  21.9231424
  84.4893091  31.7233168  22.1620518  79.1372520  38.0235853  13.9634222
  80.0399766  38.0559463  14.2800717  78.9109890  37.0936304  13.9780558
  80.8926122  36.7766839  10.6244301  79.9421753  36.7768701  10.5108673
  81.1958608  36.0299574  10.1080336  76.7830438  20.9825521  20.8827663
  77.6461900  20.6262326  21.0930987  76.2095849  20.6439416  21.5703067
  93.4368521  42.5654806  11.6251588  93.0987033  42.4495870  10.7372123
  94.3058290  42.1645971  11.6052594  89.2955337  44.4190282   7.6148479
  88.7320202  44.3280219   6.8464767  89.1807732  43.5990187   8.0950972
  93.9188304  43.7189657  17.5837794  93.9076945  43.3242456  16.7118297
  94.0808944  42.9855730  18.1771565  86.8419769  45.9141474  10.4532700
  87.6341061  45.5732298  10.0378999  87.0816419  46.0236449  11.3734853
  90.6395566  46.5026769  16.5316978  90.3485432  47.4072400  16.4163644
  91.2752550  46.5443297  17.2461047  91.5651772  43.8803618  13.1218337
  92.1615345  43.6559640  12.4075300  91.6226744  43.1388363  13.7243785
  95.5985451  46.1888185  13.5266771  95.2986174  47.0913224  13.4182579
  95.2536510  45.9220368  14.3787924  89.0497932  42.6401982   9.5603476
  88.1248429  42.5078196   9.7681168  89.2982345  43.4196201  10.0573418
  86.4106743  42.2835255  10.3947265  86.5399124  42.5369734  11.3086677
  85.7304195  42.8762963  10.0751920  93.0723460  40.1260371  19.1499106
  92.2956794  40.6854291  19.1401971  93.7114023  40.6117153  19.6713976
  91.3269833  42.9345824  18.7117073  92.0684517  43.4730868  18.4351897
  90.6206818  43.5612113  18.8688625  96.8025172  45.0774964  17.3089234
  97.2108528  44.6357375  16.5643867  96.0802434  44.5027592  17.5623427
  93.1556242  40.0147571  14.6822791  94.0017437  40.4386985  14.8257440
  93.0954880  39.3581195  15.3761355  97.1253987  45.6376155  11.0641523
  96.4962849  45.8021869  10.3617591  96.7379649  46.0517765  11.8352487
  96.3055688  37.6751939  16.3403965  96.0616619  38.4294000  15.8038241
  96.5815618  38.0537287  17.1751212  98.2594150  44.2190552  15.0181231
  98.4711046  44.8622312  14.3415612  98.2123899  43.3852868  14.5503161
  92.6781949  45.3750563   8.3291608  93.1420294  45.6538266   7.5396231
  92.4138747  44.4734008   8.1464699  89.5706030  44.9222045  11.2671372
  90.1407387  45.3509313  10.6288856  90.1614142  44.6404629  11.9655557
  90.0631196  40.0885472  19.5132383  89.4329857  40.7701753  19.7467780
  89.9567284  39.9768554  18.5685521  85.3576169  39.7557268  10.4398307
  84.5675223  40.0114797   9.9638418  85.8487416  40.5705606  10.5450348
  87.3090914  40.1201847   7.3981784  86.5122077  40.2320542   7.9165280
  87.0816506  40.4588500   6.5322674  93.1396582  46.6446551  15.3464299
  93.2041014  47.1066958  16.1822470  92.4307506  46.0143915  15.4746608
  83.6413872  40.0087759  12.8713298  83.8921910  40.8934768  13.1370874
  84.1773420  39.8292360  12.0988390  89.3411939  34.3906238  21.8757634
  88.9478885  33.8372436  22.5505278  90.1578079  34.7016816  22.2664152
  86.3073997  45.8290096   5.7871204  86.8198517  46.6233346   5.9376769
  86.9596710  45.1316387   5.7204805  88.1168881  48.9455852   7.8693957
  88.2935510  49.8673817   7.6814941  88.9125715  48.6314272   8.2988337
  92.2579900  35.8064117  19.4677891  92.9989613  36.4071270  19.3882353
  92.4897823  35.0641755  18.9095933  87.4021238  40.9920484  17.7456120
  87.2874753  40.0905741  18.0463219  86.5465756  41.2384181  17.3940937
  94.4813076  48.9338225  19.3443621  94.0376930  48.1474603  19.0264525
  95.1430289  49.1217375  18.6787512  89.2400197  50.4634026  13.8704299
  89.7907622  50.3351090  13.0981293  88.4011673  50.7628915  13.5199192
  96.5794314  49.2141024  17.3725022  96.5612789  50.0349906  16.8805291
  97.5014234  49.0895100  17.5975163  93.0367368  46.7285154  18.2148531
  93.5695705  45.9673442  17.9847839  92.5081449  46.4358806  18.9572685
  84.2722914  44.1578750   6.5630774  85.1098136  44.5675759   6.3464482
  84.4501181  43.2178193   6.5330968  84.2949085  41.4969466   7.2341508
  84.0973485  40.9038826   6.5092574  83.7395749  41.1921676   7.9517447
  92.2745808  41.3892572   9.3536101  92.3294418  40.4366409   9.2778578
  91.4637010  41.5452011   9.8377399  92.3646746  50.0027389   9.0460745
  92.3222925  50.2288235   8.1169277  93.2809445  49.7690763   9.1946546
  95.8112380  40.4711456  15.9441374  96.1661768  40.6982930  16.8035840
  96.4584511  40.8029833  15.3218629  89.7052243  37.5787987  12.7287715
  90.3451622  37.4376747  12.0310678  88.8729774  37.2922501  12.3526317
  90.4812547  46.8790418   8.8422707  91.2753145  46.3840738   8.6405282
  89.7704239  46.3508281   8.4790413  95.3007391  49.2608513  13.1935075
  95.3544414  49.8299450  13.9612791  94.4322173  49.4310398  12.8289112
  86.7080859  37.5488312   7.5060702  86.9687677  38.4633646   7.3969862
  87.5298032  37.0812755   7.6557314  88.1805785  38.9626070  14.6759526
  88.8528838  38.7543432  14.0272175  87.3535571  38.7648156  14.2364758
  94.0831357  35.5888011  16.6925187  93.4359272  36.2877960  16.5989663
  94.8532372  36.0224154  17.0601435  97.4910155  45.8536863  19.7675740
  97.3395661  45.6247414  18.8505824  97.4814834  46.8107464  19.7807085
  94.2595491  43.4268775  14.7522007  95.1887551  43.5779935  14.5790974
  93.8386521  43.5152796  13.8970653  93.0583823  47.4519440  12.5220544
  92.9194909  47.0838224  13.3946483  92.2698419  47.9667079  12.3504502
  94.6089038  46.8301043   9.9109382  94.2738871  46.7901813  10.8067032
  94.1092984  46.1645758   9.4379792  88.5833282  42.2368673  15.4361963
  88.4453080  41.5048911  16.0373502  89.4938206  42.1477573  15.1546151
  91.2115583  41.9488632  14.9245643  91.9215201  41.3081824  14.8832261
  91.1684891  42.2001527  15.8471824  99.2002361  48.8855985  17.8452222
  99.1414908  48.2015205  17.1782805  99.6021880  49.6274975  17.3932848
  89.9244517  38.9353850  16.7441282  89.3881874  38.4844588  17.3962879
  89.3361225  39.0699759  16.0011747  88.2193060  55.7017899  10.6385941
  88.4589658  56.3336423  11.3164960  87.3762257  55.3505939  10.9251300
  99.2019769  46.8495569  16.0766202  98.3146547  46.5121491  16.1992601
  99.7718320  46.1178600  16.3134967  80.8548916  43.1819661   9.4009253
  81.5419956  42.8681391   8.8130269  80.6997044  44.0861026   9.1276505
  85.6583638  38.0709857  13.8294277  85.5741827  37.4635527  13.0944687
  84.8366344  38.5618876  13.8303773  92.7320922  51.5097022  13.0427445
  92.6591094  52.3151993  13.5546750  92.2898315  51.7088987  12.2175466
  95.1919606  51.4083856  15.1985604  95.9047578  52.0431320  15.1261505
  94.7009634  51.5047722  14.3825606  90.2431519  49.1578299  16.0191175
  90.9440979  49.7914782  16.1720569  89.7726634  49.4993031  15.2586814
  94.0920378  42.4542718  20.3309762  93.4161015  42.3536847  21.0012137
  94.9148012  42.2981931  20.7945759  85.8399237  48.6914654  12.9522277
  86.4252674  47.9458342  13.0850181  85.6424076  49.0018611  13.8358941
  88.6937892  51.7265901   7.9684720  88.0248268  52.2112029   7.4848760
  88.5550762  51.9735122   8.8828098  80.4316892  41.2620254  11.6726720
  80.4700991  40.7283845  12.4663839  79.9257185  40.7355460  11.0537698
  92.8343161  53.7609645  14.5667378  93.3861469  53.9241266  15.3316463
  93.1749354  54.3514083  13.8947403  87.8107654  36.1084795  15.1689263
  87.8748981  36.9699626  14.7566660  87.7474774  35.4958796  14.4361621
  87.2859927  38.1807927  18.8162297  87.9131966  37.7985005  19.4299821
  86.4287846  37.9622129  19.1817989  97.6854035  48.5870902  20.4216032
  98.2293939  49.2000861  19.9270987  97.1040880  49.1450481  20.9383045
  95.9711548  51.7091621  11.5531060  95.8462688  50.9081360  11.0442006
  96.6290639  52.2037814  11.0645030  87.5919716  38.0640353  10.7308200
  86.8706302  38.6776321  10.5915674  88.3812972  38.5998118  10.6524846
  98.0346457  49.5100641  13.1810610  97.0876792  49.3905992  13.1088937
  98.3829230  48.6223139  13.2636872  90.3946030  35.3994780  17.0048852
  90.9180432  35.6457076  17.7675161  90.1758363  36.2314814  16.5851989
  95.0392890  49.3053357   9.3814962  94.8917852  48.3770064   9.5622533
  95.8646383  49.3273448   8.8972038  98.6427012  50.1281916  10.4679835
  99.5673559  49.9224777  10.3304286  98.4742315  49.8798317  11.3769177
  91.5998575  36.3408475  14.6898523  91.2595395  35.5416288  15.0919203
  90.8937581  36.6410185  14.1175356  89.7753626  40.1176908  10.9517824
  89.6298206  40.4317211  11.8442106  89.2978829  40.7361808  10.3988723
  93.4876139  37.5416796  13.0451841  93.2293917  38.4633867  13.0436172
  92.9561180  37.1447230  13.7352305  84.2499288  42.6582252  13.8905485
  83.7052756  43.4342060  14.0225760  85.1278638  43.0053057  13.7324607
  85.0365310  41.7852148  16.7835642  84.2947046  41.9334784  17.3700273
  84.7158054  42.0460414  15.9202392  92.9808972  51.3268127  16.5816032
  93.2896099  51.0817273  17.4538732  93.7784454  51.5314765  16.0934903
  93.0029584  53.4806036   8.8121409  92.5634575  52.9882415   9.5054266
  93.7537701  52.9379004   8.5713484  85.4821923  49.6717577   8.8146037
  86.3079943  49.3721349   8.4344681  85.1315975  48.9025200   9.2635826
  90.4503457  49.0244045  10.8843711  89.8283466  48.3614750  10.5845938
  91.1208323  49.0505177  10.2017358  83.6830528  47.5903904   9.7734971
  82.8462437  47.1626078   9.5918972  83.6554174  47.7836347  10.7105762
  90.5227984  37.5025833  20.4776217  90.5716139  38.3787956  20.0953986
  91.0650498  36.9603226  19.9047860  98.4184467  40.8790351  18.3869389
  99.3194330  40.7396816  18.0953387  98.4932442  41.0444806  19.3267566
  92.7527272  38.2557206  17.2322575  91.8830582  38.5490772  16.9605164
  92.9886753  38.8397651  17.9529839  87.7669596  43.6013146   5.3663240
  87.5215638  42.6975476   5.5643450  87.9365511  43.6030297   4.4242718
  93.7797860  45.4574658  20.6330628  94.7000869  45.6353257  20.8270675
  93.7447443  44.5130703  20.4810327  82.9980025  40.6513252   9.5583903
  82.6782809  39.7978560   9.2658277  82.4513453  40.8661830  10.3141870
  86.7759933  43.3675693  13.2753409  86.9945942  44.2992800  13.2941443
  87.1885706  43.0083667  14.0608213  91.6487798  38.9408898  22.6656158
  91.5484525  39.8903255  22.5968249  91.4309340  38.6127137  21.7932228
  82.8668285  44.2716163  11.5277024  82.1731756  43.8570116  11.0146979
  83.6141276  44.3136700  10.9310443  91.5119068  42.3706037  21.4821220
  91.0286150  43.1706397  21.6885109  91.5980007  42.3813982  20.5288664
  84.7805028  44.2034417   9.4043039  84.7575716  44.3022104   8.4524922
  85.0905664  45.0499568   9.7260205  87.4392405  46.2610572  13.5189654
  88.3935659  46.2294514  13.4519585  87.2404929  45.8001196  14.3339879
  88.0291788  44.8311688  16.0860451  88.8484677  45.3255767  16.1095289
  88.3028595  43.9143656  16.0578019  85.7942634  51.8030191  10.5359851
  85.6597102  51.0430592   9.9697849  85.3774696  52.5271091  10.0688640
  88.9511760  52.6999508  10.7478294  88.8344144  53.6444941  10.6456984
  88.1304206  52.3973070  11.1364093  83.2826702  39.1649822  16.7852648
  83.9285565  38.6548776  17.2739873  83.0743853  39.9018503  17.3596074
  95.8080094  46.2330669  22.2844789  96.6771254  46.4071322  21.9231424
  95.3286845  47.0525086  22.1620518  89.9766274  53.3527770  13.9634222
  90.8793521  53.3851381  14.2800717  89.7503644  52.4228221  13.9780558
  91.7319876  52.1058757  10.6244301  90.7815507  52.1060618  10.5108673
  92.0352362  51.3591491  10.1080336  87.6224193  36.3117439  20.8827663
  88.4855654  35.9554244  21.0930987  87.0489603  35.9731334  21.5703067
  94.4807626  55.3379676  12.8713298  94.7315665  56.2226686  13.1370874
  95.0167175  55.1584278  12.0988390  98.2414993  56.3212402  17.7456120
  98.1268508  55.4197659  18.0463219  97.3859510  56.5676099  17.3940937
  99.0199539  54.2917987  14.6759526  99.6922593  54.0835349  14.0272175
  98.1929326  54.0940073  14.2364758  96.4977392  53.4001775  13.8294277
  96.4135581  52.7927445  13.0944687  95.6760099  53.8910793  13.8303773
  91.2710646  56.5912172  11.6726720  91.3094746  56.0575763  12.4663839
  90.7650939  56.0647377  11.0537698  98.6501409  51.4376712  15.1689263
  98.7142735  52.2991543  14.7566660  98.5868529  50.8250714  14.4361621
  98.1253681  53.5099845  18.8162297  98.7525720  53.1276922  19.4299821
  97.2681600  53.2914047  19.1817989  95.0893042  57.9874170  13.8905485
  94.5446510  58.7633978  14.0225760  95.9672392  58.3344974  13.7324607
  95.8759064  57.1144066  16.7835642  95.1340800  57.2626701  17.3700273
  95.5551808  57.3752332  15.9202392  94.1220456  54.4941740  16.7852648
  94.7679320  53.9840694  17.2739873  93.9137607  55.2310421  17.3596074
  98.4617947  51.6409357  20.8827663  99.3249409  51.2846161  21.0930987
  97.8883358  51.3023251  21.5703067   4.0284714  63.2691946  76.0449714
   4.7609886  62.6991162  76.2787543   3.2724070  62.8813546  76.4856219
   1.5510134  56.9813520  80.5044322   1.2193459  57.8508931  80.2805537
   0.9555748  56.6649804  81.1838353   1.4438798  61.7008606  77.5837672
   0.5355675  61.6324014  77.2896433   1.3926394  62.1780551  78.4119498
   3.3100444  59.9025044  79.3615546   2.6674824  60.1957577  78.7155341
   2.8055373  59.7877965  80.1668743   3.4499422  69.5668474  74.7959351
   2.7650460  69.9467375  74.2456384   3.5343271  70.1763800  75.5291299
   1.8196182  70.0900388  79.5677052   2.6413625  69.6880576  79.2859733
   1.8158584  69.9868622  80.5193168   9.9102175  66.4339137  75.9162023
   9.1565883  65.8646535  75.7606028  10.0449716  66.4001801  76.8632658
   3.5877823  67.5724067  70.5641245   2.8107266  67.2335226  70.1196407
   4.2669304  67.5776690  69.8896210   1.8269130  67.0458048  77.2207853
   1.1692804  67.7357309  77.3087981   2.6309529  67.4354480  77.5641839
   0.6374589  65.4002421  75.2711794   1.1506471  66.0332412  75.7733504
   1.2875813  64.8003616  74.9055154   1.4036385  70.3808422  73.3990937
   0.9498712  69.5399332  73.4556127   0.7730352  71.0169820  73.7365717
   3.9866320  66.5867773  73.0264167   3.8484219  66.7769369  72.0985356
   3.6302539  67.3487156  73.4832218   4.0135700  68.6544300  78.0375438
   4.4472206  68.5619589  78.8858492   4.7267281  68.6301801  77.3995454
   4.8751249  68.6968001  80.5708323   5.0687139  69.6013811  80.8167598
   4.7751868  68.2375420  81.4046908   6.1293313  65.2541668  77.2156227
   6.1183189  66.1366383  76.8450160   5.2610692  64.9013218  77.0210764
   2.7465887  64.1490308  73.6826393   3.2126339  64.9818300  73.6086696
   3.1973388  63.6835290  74.3871652   1.0883215  73.1219796  76.8453299
   2.0129763  72.9162658  76.7077750   0.9198518  72.8736198  77.7542640
   0.8778531  73.6405464  72.2015390   1.0515409  73.0751886  71.4489243
   1.3707423  74.4406359  72.0194880   6.7317922  66.4041887  73.8205690
   7.1749069  65.6549212  73.4224813   5.8544433  66.3952023  73.4379422
   1.8653704  72.9572228  69.3012289   2.5604608  73.5778921  69.5199603
   2.2076854  72.1067580  69.5764667   3.7645127  70.4071934  70.8299619
   4.2896451  70.7459207  70.1048939   3.6767479  69.4718949  70.6462754
   6.2750787  67.8747125  76.2128138   7.1097679  68.3136929  76.3765698
   6.4109916  67.3985778  75.3936383   3.3242293  65.4326860  82.1605625
   3.7996415  65.6254506  81.3524477   2.4007858  65.4886046  81.9149009
   2.0243962  62.3092620  80.3933931   2.9761385  62.4090718  80.4146155
   1.8547413  61.5170889  80.9032015   1.8053849  72.6637001  66.2999912
   1.7267480  72.3296864  67.1935670   2.6263515  73.1558768  66.2991384
   4.5032040  65.5298740  79.5076231   4.4708360  64.5914741  79.6935915
   5.1132664  65.6082777  78.7742056   4.6526528  62.3209783  79.5534514
   4.1365577  61.5368240  79.3664443   5.5366477  61.9928500  79.7181033
   2.3137255  56.0650799  75.5130327   2.1162076  55.7565887  76.3973659
   2.9236961  56.7912438  75.6428256  10.3208590  66.5914747  78.6482268
  11.0511978  66.3300035  79.2089971   9.7115535  65.8543469  78.6884336
   8.4023887  64.7322609  79.2456719   7.6757050  64.5978574  78.6373210
   7.9871174  65.0399438  80.0513437   1.4489709  58.0560231  72.7705522
   0.8688378  58.7145035  72.3883575   1.1825642  57.2337575  72.3592940
   3.5829123  60.2406842  75.5416210   4.3589513  60.7303295  75.8140827
   2.8577257  60.6664896  75.9988079   6.0201682  60.9534461  76.5990150
   6.6146173  60.7130197  75.8883459   6.0928265  60.2341592  77.2263687
   4.0160417  61.5204589  72.8662280   3.7597351  61.1201225  73.6970488
   3.3913285  62.2348383  72.7412419   8.3272755  64.2600662  75.3733572
   7.7672313  64.3293852  76.1465134   7.7216258  64.0841647  74.6533068
   1.2844498  70.4187525  67.9708350   2.1190102  69.9868724  67.7885825
   1.1228841  70.2469539  68.8985245   9.9128773  80.9357176  78.0663527
  10.5507183  80.8163924  77.3626867   9.7949616  81.8838020  78.1251479
   6.7218479  80.8884604  78.0025052   6.3836991  80.7725669  77.1145587
   7.5908247  80.4875769  77.9826058   8.1604854  86.4091048  69.3036408
   7.5092833  86.9945129  68.9170422   8.9549216  86.9397243  69.3631445
   2.0860481  83.4980186  69.7023542   2.8591357  82.9509173  69.5636418
   2.4385880  84.3624435  69.9138004   4.4226759  79.6572852  67.3341992
   4.6752279  79.1354373  66.5725455   3.4851318  79.4938997  67.4368676
   9.4670041  78.6608630  75.1416735  10.2533131  78.2428053  74.7907152
   9.7308746  79.5654722  75.3098384   9.6380119  84.0981480  69.8405392
   9.0025952  84.1716107  70.5526297   9.3077525  84.6875079  69.1624471
  14.8678469  78.5983863  76.0449714  15.6003641  78.0283080  76.2787543
  14.1117824  78.2105464  76.4856219   4.1423047  81.5600958  69.5366367
   4.0259305  80.8845861  70.2047451   4.2525307  81.0733332  68.7198520
   6.4854588  81.0211105  73.2413056   6.1212796  80.4941726  73.9525978
   7.3421704  80.6309574  73.0679542  12.3903889  72.3105437  80.5044322
  12.0587214  73.1800848  80.2805537  11.7949502  71.9941721  81.1838353
   6.1260075  76.0501004  68.2374405   6.2934478  76.9181241  68.6044876
   5.9357244  76.2128286  67.3135694  12.2832552  77.0300524  77.5837672
  11.3749430  76.9615932  77.2896433  12.2320148  77.5072468  78.4119498
   6.1049296  78.5058662  69.2221072   5.9848921  78.9515713  70.0606552
   5.4101885  78.8543980  68.6634610  14.1494199  75.2316962  79.3615546
  13.5068579  75.5249495  78.7155341  13.6449127  75.1169882  80.1668743
  11.8034362  78.9780135  70.0501406  12.7152218  79.2107522  69.8749103
  11.2944009  79.5617179  69.4876484  10.4103945  83.9605954  77.4414987
   9.7812807  84.1251668  76.7391055  10.0229607  84.3747563  78.2125951
  14.2893177  84.8960391  74.7959351  13.6044215  85.2759293  74.2456384
  14.3737026  85.5055718  75.5291299   9.1470337  75.1538171  78.2991267
   8.2854816  75.4519425  78.5908004   9.1732772  75.3708570  77.3672299
   5.9631907  83.6980362  74.7065072   6.4270252  83.9768065  73.9169695
   5.6988705  82.7963806  74.5238163   4.9000793  79.8203514  71.5154637
   5.6024836  80.2724558  71.9828564   4.5681421  79.1787333  72.1434530
  12.6589936  85.4192306  79.5677052  13.4807380  85.0172493  79.2859733
  12.6552339  85.3160540  80.5193168  20.7495929  81.7631054  75.9162023
  19.9959638  81.1938452  75.7606028  20.8843470  81.7293719  76.8632658
   6.1394557  86.6344457  71.5916743   6.0040232  87.4795992  72.0201590
   6.6804370  86.8363734  70.8282676   9.4887021  70.1575019  80.1215636
   9.1451290  71.0476660  80.0454747   9.8565983  69.9676676  79.2585221
   9.4537303  80.1483630  68.6288071   8.9383927  80.9188234  68.8676459
   9.1814612  79.4748766  69.2521133   7.0384415  74.9933330  73.6873310
   6.1826011  74.6040181  73.5078948   7.4511366  75.0725291  72.8273095
   8.5683561  72.5279674  78.0864869   8.0648357  72.4909809  77.2732675
   8.8614168  73.4372416  78.1461526   4.8126447  72.6118403  77.0931051
   5.6779444  72.4161212  76.7336940   4.8803956  72.3828755  78.0200408
  14.4271578  82.9015984  70.5641245  13.6501020  82.5627144  70.1196407
  15.1063059  82.9068607  69.8896210   9.2423607  78.0210722  70.4547852
   8.9373742  78.3356871  71.3057996  10.1954049  78.0992142  70.4975185
   7.6870038  84.1800945  72.1040806   7.1591400  83.4453705  71.7914044
   7.1857541  84.9575621  71.8580775  12.6662885  82.3749966  77.2207853
  12.0086559  83.0649227  77.3087981  13.4703284  82.7646398  77.5641839
   2.4188766  74.8420611  74.4647418   2.9932518  74.6195793  73.7320611
   3.0059749  74.9109306  75.2176019  11.4768343  80.7294338  75.2711794
  11.9900225  81.3624330  75.7733504  12.1269567  80.1295534  74.9055154
   2.7458353  76.8725072  68.4843303   1.9095665  77.2099759  68.8052578
   2.6063123  76.7374052  67.5470440   4.7211434  71.7161860  73.1922487
   4.0675846  71.4010877  72.5679102   4.6791908  71.0937601  73.9182310
   5.8322639  81.9981155  65.1075779   4.9249700  81.7670409  65.3066928
   6.3293671  81.2018775  65.2949761   7.9549174  78.2043794  77.5170135
   7.0371736  78.4258741  77.3591823   8.3709318  78.2790104  76.6581842
   8.7384222  79.6035209  72.6472815   9.4856041  80.1156607  72.3379937
   9.0075811  79.2819262  73.5077209   7.0110872  82.0993750  69.6299769
   6.1022091  81.8152783  69.7272239   7.0405956  82.5192829  68.7703076
  12.2430140  85.7100340  73.3990937  11.7892467  84.8691250  73.4556127
  11.6124106  86.3461738  73.7365717  11.1863059  76.6392326  74.6291604
  10.4485816  76.1269712  74.9601847  11.4389833  76.1992707  73.8174881
  10.6863079  87.5476836  74.3340755  10.9786053  88.1081894  73.6153121
  11.1961699  87.8405397  75.0893914  11.2874686  69.4168578  75.2233374
  11.5933563  68.5565941  74.9359289  12.0127291  70.0086198  75.0232368
   5.5595766  79.7122371  75.7309565   5.6144376  78.7596207  75.6552041
   4.7486968  79.8681810  76.2150863   6.7086960  83.6402494  66.9687848
   6.2706390  82.9238353  66.5093485   7.4497401  83.8678609  66.4072939
   3.4988126  78.3299431  73.4899944   2.6855992  78.6293601  73.8965136
   3.9947120  77.9355119  74.2074426  14.8260075  81.9159691  73.0264167
  14.6877973  82.1061287  72.0985356  14.4696294  82.6779074  73.4832218
  14.8529454  83.9836218  78.0375438  15.2865961  83.8911507  78.8858492
  15.5661035  83.9593718  77.3995454  15.7145004  84.0259919  80.5708323
  15.9080894  84.9305729  80.8167598  15.6145622  83.5667338  81.4046908
  10.8298188  82.4986876  66.5619906  10.2127358  81.7733704  66.4652958
  10.3614676  83.2596236  66.2186980   2.6196733  76.7172300  65.6841210
   1.7426200  76.5961101  65.3203457   3.0954487  75.9258378  65.4320099
   9.1157310  74.8793220  75.5737936   9.6126009  74.1263182  75.2539006
   8.3444291  74.9157536  75.0081145  16.9687067  80.5833585  77.2156227
  16.9576943  81.4658301  76.8450160  16.1004446  80.2305136  77.0210764
  10.1987090  83.6364907  73.1476359   9.2643369  83.7566369  72.9781063
  10.3763759  82.7337374  72.8836369   5.6992278  77.0210603  75.3009620
   5.3290066  76.4681643  75.9890526   6.1951371  76.4168736  74.7484620
  13.5859642  79.4782226  73.6826393  14.0520094  80.3110218  73.6086696
  14.0367142  79.0127208  74.3871652  11.6535873  85.8226047  70.6812545
  11.9295717  85.7082642  71.5906419  10.7840371  85.4243532  70.6424718
  11.5576304  71.8462813  77.7217295  10.6439384  72.0767040  77.8899502
  11.9869406  71.9301257  78.5731327  11.3282763  80.0352705  80.2217189
  10.6754213  80.2828613  79.5669641  11.7063143  79.2216843  79.8879666
   8.3242848  87.6283155  75.7588426   8.1767810  86.6999863  75.9395996
   9.1496341  87.6503246  75.2745501   2.1905092  76.2801223  71.6168918
   2.5301165  76.8087144  70.8947527   2.6377212  76.6181629  72.3927485
  11.9276970  88.4511714  76.8453299  12.8523517  88.2454576  76.7077750
  11.7592273  88.2028115  77.7542640   5.5365005  71.7487586  79.5199309
   6.3591074  71.2748064  79.3978200   5.7803068  72.5278069  80.0197996
   4.1773239  74.7775844  69.8162211   4.8981602  75.1557097  69.3125928
   3.5538543  75.4964721  69.9197189   8.3204362  75.4820993  70.7520543
   8.5367976  76.3645631  70.4509372   7.8398429  75.0907207  70.0226185
   4.9199966  75.4309254  77.3772178   4.9061535  74.5350348  77.0404476
   5.6372394  75.4379918  78.0110464   6.7726097  75.8646595  79.4225305
   6.5143875  76.7863665  79.4209635   6.2411137  75.4677029  80.1125769
  11.7172286  88.9697382  72.2015390  11.8909163  88.4043804  71.4489243
  12.2101177  89.7698277  72.0194880   4.3236862  74.3123635  72.6459748
   4.4452773  73.3840281  72.8450635   4.0338905  74.3262321  71.7338063
   7.1928053  71.9978545  75.7826468   7.2149749  72.0617878  74.8278447
   7.6096112  71.1583054  75.9766974  17.5711677  81.7333805  73.8205690
  18.0142823  80.9841130  73.4224813  16.6938187  81.7243941  73.4379422
  12.7047458  88.2864146  69.3012289  13.3998363  88.9070839  69.5199603
  13.0470608  87.4359497  69.5764667  14.6038881  85.7363852  70.8299619
  15.1290205  86.0751124  70.1048939  14.5161234  84.8010867  70.6462754
   3.2966921  85.8977767  70.7375635   3.4455042  86.5813232  70.0842308
   4.1033365  85.8782857  71.2525091  17.1144542  83.2039043  76.2128138
  17.9491433  83.6428847  76.3765698  17.2503670  82.7277696  75.3936383
  14.1636048  80.7618778  82.1605625  14.6390169  80.9546424  81.3524477
  13.2401613  80.8177964  81.9149009   1.0519554  81.9242945  71.7436704
   0.8065596  81.0205275  71.9416914   1.2215469  81.9260095  70.8016182
   8.7416264  72.7966621  81.1261459   9.2598208  73.5327648  80.8007948
   8.3871397  73.1030615  81.9608218   8.9928858  69.2166904  76.6462356
   9.2730612  68.5490093  77.2722783   9.7779465  69.4095999  76.1337020
  12.8637717  77.6384538  80.3933931  13.8155139  77.7382635  80.4146155
  12.6941167  76.8462806  80.9032015  10.8852096  74.7240121  80.5793332
  10.2902028  75.0045134  79.8839821  10.6001793  75.2134022  81.3510073
  12.6447603  87.9928918  66.2999912  12.5661235  87.6588782  67.1935670
  13.4657270  88.4850686  66.2991384  15.3425794  80.8590658  79.5076231
  15.3102114  79.9206658  79.6935915  15.9526418  80.9374694  78.7742056
  15.4920283  77.6501701  79.5534514  14.9759332  76.8660158  79.3664443
  16.3760231  77.3220418  79.7181033  13.1531010  71.3942717  75.5130327
  12.9555831  71.0857805  76.3973659  13.7630715  72.1204355  75.6428256
  21.1602344  81.9206664  78.6482268  21.8905733  81.6591952  79.2089971
  20.5509290  81.1835386  78.6884336  19.2417641  80.0614527  79.2456719
  18.5150805  79.9270492  78.6373210  18.8264928  80.3691356  80.0513437
   5.3652042  77.6536687  65.4858320   4.4583498  77.3569800  65.5621034
   5.6428023  77.3566505  64.6192606   6.9814108  72.1973577  71.6402561
   6.1714836  71.8520662  72.0157807   7.6698525  71.8881120  72.2290173
   8.9104656  71.2751623  73.2626858   9.4635695  71.6947077  73.9216881
   9.1474743  70.3487371  73.3049814   4.1350827  74.5123622  65.6270299
   4.9969991  74.8378520  65.8866117   4.3201171  73.7255118  65.1143365
  12.2883463  73.3852149  72.7705522  11.7082133  74.0436953  72.3883575
  12.0219396  72.5629493  72.3592940  10.7387030  72.7857206  74.9726843
  11.2386808  72.8973741  74.1641161  11.3822638  72.4818259  75.6127651
  11.0708342  75.5452239  71.8261870  10.1834197  75.8301890  71.6082065
  11.4862331  75.3846002  70.9789147  14.4222878  75.5698760  75.5416210
  15.1983268  76.0595212  75.8140827  13.6971012  75.9956814  75.9988079
  16.8595436  76.2826379  76.5990150  17.4539927  76.0422115  75.8883459
  16.9322020  75.5633510  77.2263687  10.2151555  85.3096914  65.9209890
  10.9187405  85.5146916  66.5367546   9.4914204  85.8773675  66.1858974
  11.0449365  81.0606775  72.0412161  10.9884567  81.5175326  71.2019793
  11.5977708  80.2997459  71.8635003  14.8554171  76.8496507  72.8662280
  14.5991105  76.4493142  73.6970488  14.2307039  77.5640301  72.7412419
  19.1666509  79.5892580  75.3733572  18.6066067  79.6585769  76.1465134
  18.5610012  79.4133565  74.6533068  12.1238252  85.7479443  67.9708350
  12.9583856  85.3160641  67.7885825  11.9622595  85.5761456  68.8985245
  11.7784145  82.2511556  69.3364690  11.7232948  82.0855828  68.3953134
  11.1530200  82.9587589  69.4926880   5.0880270  71.7519665  68.9150008
   5.0758940  72.6961505  69.0718279   5.9803692  71.5689811  68.6209469
   8.9032389  68.3462442  73.1695945   8.1364785  67.7920928  73.3152627
   9.3143094  68.4184311  74.0310097  25.7072223  93.9275781  76.0449714
  26.4397395  93.3574998  76.2787543  24.9511579  93.5397381  76.4856219
  23.2297643  87.6397355  80.5044322  22.8980968  88.5092766  80.2805537
  22.6343257  87.3233639  81.1838353  23.1226307  92.3592441  77.5837672
  22.2143184  92.2907850  77.2896433  23.0713903  92.8364386  78.4119498
  24.9887953  90.5608880  79.3615546  24.3462333  90.8541413  78.7155341
  24.4842882  90.4461800  80.1668743  19.9864092  90.4830089  78.2991267
  19.1248571  90.7811342  78.5908004  20.0126526  90.7000488  77.3672299
  20.3280775  85.4866936  80.1215636  19.9845045  86.3768578  80.0454747
  20.6959738  85.2968594  79.2585221  17.8778169  90.3225248  73.6873310
  17.0219765  89.9332099  73.5078948  18.2905121  90.4017209  72.8273095
  19.4077316  87.8571591  78.0864869  18.9042111  87.8201727  77.2732675
  19.7007923  88.7664334  78.1461526  15.6520202  87.9410321  77.0931051
  16.5173198  87.7453130  76.7336940  15.7197710  87.7120673  78.0200408
  13.2582521  90.1712529  74.4647418  13.8326273  89.9487711  73.7320611
  13.8453503  90.2401224  75.2176019  15.5605188  87.0453778  73.1922487
  14.9069601  86.7302795  72.5679102  15.5185662  86.4229518  73.9182310
  22.0256814  91.9684243  74.6291604  21.2879570  91.4561630  74.9601847
  22.2783587  91.5284625  73.8174881  22.1268441  84.7460495  75.2233374
  22.4327318  83.8857859  74.9359289  22.8521046  85.3378116  75.0232368
  19.9551064  90.2085137  75.5737936  20.4519764  89.4555100  75.2539006
  19.1838046  90.2449454  75.0081145  22.3970059  87.1754731  77.7217295
  21.4833139  87.4058958  77.8899502  22.8263160  87.2593175  78.5731327
  16.3758759  87.0779503  79.5199309  17.1984828  86.6039982  79.3978200
  16.6196823  87.8569987  80.0197996  19.1598117  90.8112911  70.7520543
  19.3761731  91.6937549  70.4509372  18.6792184  90.4199124  70.0226185
  15.7593721  90.7601172  77.3772178  15.7455290  89.8642265  77.0404476
  16.4766149  90.7671836  78.0110464  15.1630617  89.6415552  72.6459748
  15.2846528  88.7132198  72.8450635  14.8732659  89.6554238  71.7338063
  18.0321807  87.3270463  75.7826468  18.0543504  87.3909796  74.8278447
  18.4489866  86.4874971  75.9766974  19.5810019  88.1258539  81.1261459
  20.0991962  88.8619566  80.8007948  19.2265151  88.4322532  81.9608218
  19.8322613  84.5458822  76.6462356  20.1124366  83.8782011  77.2722783
  20.6173220  84.7387917  76.1337020  23.7031471  92.9676455  80.3933931
  24.6548894  93.0674553  80.4146155  23.5334921  92.1754724  80.9032015
  21.7245851  90.0532039  80.5793332  21.1295783  90.3337051  79.8839821
  21.4395547  90.5425940  81.3510073  26.3314037  92.9793619  79.5534514
  25.8153086  92.1952075  79.3664443  27.2153986  92.6512335  79.7181033
  23.9924764  86.7234634  75.5130327  23.7949585  86.4149722  76.3973659
  24.6024470  87.4496273  75.6428256  30.0811396  95.3906445  79.2456719
  29.3544559  95.2562410  78.6373210  29.6658683  95.6983273  80.0513437
  17.8207863  87.5265494  71.6402561  17.0108591  87.1812579  72.0157807
  18.5092280  87.2173038  72.2290173  19.7498411  86.6043541  73.2626858
  20.3029449  87.0238994  73.9216881  19.9868497  85.6779289  73.3049814
  14.9744582  89.8415540  65.6270299  15.8363745  90.1670438  65.8866117
  15.1594926  89.0547036  65.1143365  23.1277218  88.7144066  72.7705522
  22.5475887  89.3728870  72.3883575  22.8613151  87.8921411  72.3592940
  21.5780784  88.1149124  74.9726843  22.0780563  88.2265658  74.1641161
  22.2216392  87.8110177  75.6127651  21.9102096  90.8744157  71.8261870
  21.0227951  91.1593807  71.6082065  22.3256085  90.7137920  70.9789147
  25.2616632  90.8990678  75.5416210  26.0377022  91.3887130  75.8140827
  24.5364766  91.3248732  75.9988079  27.6989191  91.6118297  76.5990150
  28.2933682  91.3714033  75.8883459  27.7715774  90.8925427  77.2263687
  25.6947926  92.1788424  72.8662280  25.4384860  91.7785060  73.6970488
  25.0700794  92.8932218  72.7412419  30.0060264  94.9184498  75.3733572
  29.4459821  94.9877687  76.1465134  29.4003767  94.7425482  74.6533068
  15.9274025  87.0811583  68.9150008  15.9152694  88.0253423  69.0718279
  16.8197446  86.8981728  68.6209469  19.7426144  83.6754359  73.1695945
  18.9758540  83.1212846  73.3152627  20.1536849  83.7476228  74.0310097
   4.0284715  40.2754068  62.7695020   4.7609887  39.7053285  63.0032850
   3.2724071  39.8875669  63.2101526   1.5510136  33.9875642  67.2289629
   1.2193460  34.8571053  67.0050844   0.9555749  33.6711926  67.9083659
   1.4438799  38.7070728  64.3082979   0.5355676  38.6386137  64.0141740
   1.3926395  39.1842673  65.1364805   3.3100445  36.9087167  66.0860853
   2.6674826  37.2019700  65.4400648   2.8055374  36.7940087  66.8914050
   3.4499423  46.5730596  61.5204658   2.7650461  46.9529498  60.9701691
   3.5343273  47.1825923  62.2536605   0.7050355  44.2190555  68.1200001
   0.9167250  44.8622315  67.4434382   0.6580103  43.3852872  67.6521931
   1.8196183  47.0962511  66.2922358   2.6413627  46.6942698  66.0105040
   1.8158586  46.9930745  67.2438474   9.9102176  43.4401259  62.6407330
   9.1565884  42.8708657  62.4851334  10.0449717  43.4063924  63.5877965
   3.5877824  44.5786189  57.2886551   2.8107267  44.2397349  56.8441713
   4.2669305  44.5838812  56.6141516   1.8269131  44.0520171  63.9453159
   1.1692806  44.7419432  64.0333288   2.6309530  44.4416602  64.2887146
   0.6374590  42.4064543  61.9957101   1.1506472  43.0394535  62.4978811
   1.2875814  41.8065739  61.6300461   1.4036386  47.3870545  60.1236244
   0.9498713  46.5461455  60.1801434   0.7730353  48.0231943  60.4611024
   3.9866321  43.5929896  59.7509473   3.8484220  43.7831492  58.8230662
   3.6302540  44.3549279  60.2077524   4.0135701  45.6606423  64.7620745
   4.4472208  45.5681712  65.6103799   4.7267282  45.6363923  64.1240761
   4.8751251  45.7030124  67.2953630   5.0687141  46.6075934  67.5412905
   4.7751869  45.2437543  68.1292215   1.6458566  48.8855989  70.9470993
   1.5871112  48.2015209  70.2801576   2.0478084  49.6274979  70.4951619
   1.6475973  46.8495573  69.1784972   0.7602752  46.5121495  69.3011371
   2.2174524  46.1178604  69.4153738   6.1293314  42.2603790  63.9401534
   6.1183190  43.1428506  63.5695467   5.2610693  41.9075341  63.7456071
   2.7465888  41.1552431  60.4071700   3.2126341  41.9880423  60.3332003
   3.1973389  40.6897413  61.1116958   1.0883216  50.1281919  63.5698606
   2.0129764  49.9224780  63.4323057   0.9198520  49.8798320  64.4787947
   0.8778533  50.6467587  58.9260697   1.0515410  50.0814009  58.1734550
   1.3707424  51.4468481  58.7440187   6.7317924  43.4104010  60.5450997
   7.1749070  42.6611335  60.1470120   5.8544434  43.4014146  60.1624729
   1.8653705  49.9634351  56.0257595   2.5604610  50.5841044  56.2444910
   2.2076855  49.1129702  56.3009973   3.7645128  47.4134056  57.5544926
   4.2896452  47.7521329  56.8294246   3.6767481  46.4781072  57.3708061
   3.4539034  48.0466960  72.8596124   2.6634578  48.0291099  72.3200623
   3.2172389  48.5855254  73.6145161   3.5736909  44.8959427  70.1728853
   3.6234914  44.7309434  71.1144375   3.4650833  44.0286686  69.7826733
   0.8640672  40.8790355  71.4888159   1.7650534  40.7396819  71.1972157
   0.9388646  41.0444809  72.4286337   5.0755106  47.3156368  70.4170874
   4.7839914  47.6786349  71.2534335   4.4627237  46.6023376  70.2384206
   6.2750788  44.8809248  62.9373444   7.1097680  45.3199052  63.1011005
   6.4109917  44.4047901  62.1181690   3.3242294  42.4388983  68.8850932
   3.7996416  42.6316629  68.0769784   2.4007860  42.4948168  68.6394316
   2.0243963  39.3154743  67.1179238   2.9761386  39.4152840  67.1391462
   1.8547414  38.5233011  67.6277322   1.8053850  49.6699123  53.0245219
   1.7267481  49.3358987  53.9180977   2.6263517  50.1620891  53.0236691
   4.5032041  42.5360862  66.2321537   4.4708361  41.5976863  66.4181221
   5.1132665  42.6144899  65.4987362   4.6526530  39.3271906  66.2779821
   4.1365578  38.5430362  66.0909749   5.5366478  38.9990622  66.4426340
   2.3137257  33.0712921  62.2375633   2.1162078  32.7628010  63.1218965
   2.9236962  33.7974560  62.3673563  10.3208591  43.5976869  65.3727574
  11.0511979  43.3362157  65.9335278   9.7115536  42.8605591  65.4129642
   8.4023888  41.7384732  65.9702025   7.6757052  41.6040697  65.3618517
   7.9871175  42.0461560  66.7758743   1.4489710  35.0622353  59.4950829
   0.8688379  35.7207157  59.1128881   1.1825643  34.2399698  59.0838246
   3.5829124  37.2468965  62.2661516   4.3589515  37.7365417  62.5386133
   2.8577259  37.6727019  62.7233386   6.0201683  37.9596584  63.3235457
   6.6146174  37.7192320  62.6128765   6.0928267  37.2403715  63.9508993
   4.0160418  38.5266712  59.5907587   3.7597352  38.1263347  60.4215794
   3.3913286  39.2410506  59.4657726   8.3272756  41.2662785  62.0978878
   7.7672314  41.3355974  62.8710440   7.7216259  41.0903770  61.3778374
   1.2844499  47.4249648  54.6953657   2.1190103  46.9930846  54.5131132
   1.1228842  47.2531661  55.6230552   9.9128774  57.9419299  64.7908834
  10.5507184  57.8226046  64.0872174   9.7949617  58.8900143  64.8496786
   6.7218481  57.8946727  64.7270359   6.3836992  57.7787792  63.8390893
   7.5908249  57.4937892  64.7071365   2.5805296  59.7482203  60.7167250
   2.0170161  59.6572140  59.9483537   2.4657691  58.9282108  61.1969742
   7.2038264  59.0481579  70.6856564   7.1926904  58.6534377  69.8137068
   7.3658903  58.3147651  71.2790336   8.1604855  63.4153171  56.0281714
   7.5092835  64.0007251  55.6415728   8.9549218  63.9459366  56.0876752
   2.0860482  60.5042308  56.4268849   2.8591358  59.9571295  56.2881725
   2.4385881  61.3686558  56.6383310   3.9245525  61.8318690  69.6335748
   3.6335391  62.7364321  69.5182414   4.5602509  61.8735218  70.3479818
   4.8501732  59.2095539  66.2237108   5.4465304  58.9851561  65.5094071
   4.9076703  58.4680284  66.8262556   4.4226760  56.6634974  54.0587299
   4.6752281  56.1416496  53.2970762   3.4851319  56.5001120  54.1613982
   9.4670043  55.6670753  61.8662042  10.2533132  55.2490176  61.5152459
   9.7308747  56.5716845  62.0343690   9.6380120  61.1043603  56.5650699
   9.0025953  61.1778230  57.2771603   9.3077526  61.6937202  55.8869778
  14.8678470  55.6045986  62.7695020  15.6003642  55.0345203  63.0032850
  14.1117826  55.2167586  63.2101526   4.1423049  58.5663080  56.2611674
   4.0259307  57.8907984  56.9292758   4.2525309  58.0795454  55.4443827
   6.4854590  58.0273227  59.9658363   6.1212797  57.5003848  60.6771284
   7.3421705  57.6371696  59.7924848  12.3903890  49.3167560  67.2289629
  12.0587215  50.1862971  67.0050844  11.7949504  49.0003844  67.9083659
   6.1260077  53.0563127  54.9619711   6.2934479  53.9243363  55.3290182
   5.9357246  53.2190409  54.0381001   8.8835410  61.5180106  66.6285542
   8.5836133  62.4205145  66.5201349   8.5386469  61.2512289  67.4806695
   2.3347891  57.9693903  62.6622246   1.4098388  57.8370117  62.8699938
   2.5832304  58.7488122  63.1592189  12.2832554  54.0362646  64.3082979
  11.3749431  53.9678055  64.0141740  12.2320149  54.5134591  65.1364805
   6.1049297  55.5120785  55.9466378   5.9848923  55.9577835  56.7851859
   5.4101886  55.8606102  55.3879916   3.8656190  68.2824426  59.5956509
   3.7880219  69.2332251  59.6744990   3.2617833  67.9370299  60.2531436
   6.3573419  55.4552292  72.2517876   5.5806753  56.0146212  72.2420741
   6.9963982  55.9409075  72.7732746  14.1494200  52.2379085  66.0860853
  13.5068580  52.5311618  65.4400648  13.6449128  52.1232005  66.8914050
  11.8034364  55.9842258  56.7746712  12.7152220  56.2169645  56.5994410
  11.2944011  56.5679302  56.2121791   4.6119792  58.2637745  71.8135843
   5.3534476  58.8022789  71.5370667   3.9056777  58.8904034  71.9707395
  10.0875131  60.4066886  70.4108005  10.4958487  59.9649296  69.6662637
   9.3652393  59.8319513  70.6642198   6.4406201  55.3439492  67.7841562
   7.2867396  55.7678906  67.9276211   6.3804839  54.6873117  68.4780125
  10.4103946  60.9668076  64.1660294   9.7812808  61.1313790  63.4636362
  10.0229608  61.3809686  64.9371258  14.2893178  61.9022514  61.5204658
  13.6044216  62.2821415  60.9701691  14.3737027  62.5117841  62.2536605
   9.5905647  53.0043861  69.4422735   9.3466579  53.7585921  68.9057011
   9.8665577  53.3829208  70.2769983  11.5444109  59.5482473  68.1200001
  11.7561005  60.1914233  67.4434382  11.4973858  58.7144790  67.6521931
   9.1470338  52.1600294  65.0236573   8.2854817  52.4581547  65.3153311
   9.1732773  52.3770693  64.0917606   5.9631908  60.7042484  61.4310379
   6.4270253  60.9830187  60.6415001   5.6988706  59.8025929  61.2483470
   2.8555989  60.2513966  64.3690142   3.4257346  60.6801234  63.7307627
   3.4464101  59.9696551  65.0674328   4.9000794  56.8265637  58.2399944
   5.6024837  57.2786680  58.7073870   4.5681422  56.1849456  58.8679837
   3.3481155  55.4177393  72.6151153   2.7179816  56.0993674  72.8486550
   3.2417243  55.3060475  71.6704292  12.6589937  62.4254429  66.2922358
  13.4807381  62.0234616  66.0105040  12.6552340  62.3222663  67.2438474
   6.4246541  61.9738472  68.4483069   6.4890973  62.4358879  69.2841241
   5.7157465  61.3435837  68.5765379  20.7495930  58.7693177  62.6407330
  19.9959639  58.2000575  62.4851334  20.8843472  58.7355841  63.5877965
   6.1394558  63.6406579  58.3162049   6.0040233  64.4858115  58.7446897
   6.6804371  63.8425857  57.5527983   2.6261898  49.7198159  74.9776404
   2.2328844  49.1664358  75.6524049   3.4428038  50.0308738  75.3682922
   1.4018841  64.2747774  60.9712727   1.5785469  65.1965738  60.7833711
   2.1975674  63.9606193  61.4007107   5.5429859  51.1356038  72.5696661
   6.2839572  51.7363191  72.4901123   5.7747782  50.3933676  72.0114704
   7.7663035  64.2630146  72.4462391   7.3226889  63.4766524  72.1283296
   8.4280248  64.4509296  71.7806282   2.5250156  65.7925947  66.9723070
   3.0757581  65.6643011  66.2000064   1.6861632  66.0920836  66.6217963
   9.8644273  64.5432946  70.4743793   9.8462748  65.3641827  69.9824062
  10.7864193  64.4187021  70.6993934   6.3217327  62.0577075  71.3167301
   6.8545664  61.2965363  71.0866609   5.7931408  61.7650727  72.0591455
   9.4887022  47.1637141  66.8460943   9.1451291  48.0538783  66.7700053
   9.8565985  46.9738799  65.9830528   9.4537305  57.1545752  55.3533378
   8.9383928  57.9250357  55.5921765   9.1814613  56.4810888  55.9766439
   7.0384416  51.9995453  60.4118616   6.1826012  51.6102303  60.2324255
   7.4511368  52.0787414  59.5518402   8.5683562  49.5341796  64.8110176
   8.0648358  49.4971931  63.9977981   8.8614169  50.4434539  64.8706833
   4.8126448  49.6180526  63.8176358   5.6779445  49.4223335  63.4582247
   4.8803957  49.3890878  64.7445714  14.4271579  59.9078107  57.2886551
  13.6501022  59.5689266  56.8441713  15.1063060  59.9130730  56.6141516
   9.2423608  55.0272844  57.1793159   8.9373743  55.3418994  58.0303302
  10.1954050  55.1054264  57.2220492   7.6870040  61.1863068  58.8286113
   7.1591401  60.4515827  58.5159350   7.1857542  61.9637744  58.5826081
  12.6662886  59.3812088  63.9453159  12.0086560  60.0711350  64.0333288
  13.4703285  59.7708520  64.2887146   2.4188767  51.8482734  61.1892724
   2.9932519  51.6257915  60.4565917   3.0059750  51.9171428  61.9421326
  11.4768345  57.7356461  61.9957101  11.9900226  58.3686453  62.4978811
  12.1269568  57.1357656  61.6300461   2.7458354  53.8787195  55.2088610
   1.9095667  54.2161882  55.5297884   2.6063124  53.7436175  54.2715747
   4.7211435  48.7223983  59.9167794   4.0675847  48.4073000  59.2924409
   4.6791909  48.0999723  60.6427617   5.8322640  59.0043278  51.8321086
   4.9249702  58.7732531  52.0312235   6.3293672  58.2080897  52.0195068
   8.7390719  67.7140785  54.7517772   8.0652418  68.0172482  55.3602730
   9.1256541  68.5169865  54.4023229   7.9549175  55.2105916  64.2415442
   7.0371737  55.4320863  64.0837130   8.3709319  55.2852227  63.3827149
   8.7384223  56.6097332  59.3718122   9.4856042  57.1218729  59.0625244
   9.0075813  56.2881385  60.2322515   7.0110873  59.1055873  56.3545076
   6.1022093  58.8214906  56.4517546   7.0405957  59.5254951  55.4948383
  12.2430141  62.7162462  60.1236244  11.7892468  61.8753372  60.1801434
  11.6124107  63.3523861  60.4611024  11.1863060  53.6454448  61.3536911
  10.4485817  53.1331835  61.6847154  11.4389834  53.2054830  60.5420188
  10.6863080  64.5538959  61.0586062  10.9786054  65.1144016  60.3398427
  11.1961701  64.8467520  61.8139221  11.2874688  46.4230700  61.9478680
  11.5933564  45.5628064  61.6604595  12.0127292  47.0148321  61.7477674
   6.7086961  60.6464616  53.6933155   6.2706391  59.9300475  53.2338792
   7.4497402  60.8740731  53.1318246   3.4988127  55.3361553  60.2145250
   2.6855993  55.6355724  60.6210442   3.9947122  54.9417242  60.9319733
   5.6496705  65.3319310  62.1479515   5.6072884  65.5580156  61.2188047
   6.5659404  65.0982685  62.2965316   9.0962339  55.8003378  69.0460144
   9.4511727  56.0274851  69.9054610   9.7434470  56.1321754  68.4237399
  14.8260076  58.9221814  59.7509473  14.6877975  59.1123409  58.8230662
  14.4696295  59.6841196  60.2077524   2.9902202  52.9079909  65.8306485
   3.6301581  52.7668668  65.1329449   2.1579733  52.6214422  65.4545087
  14.8529456  60.9898341  64.7620745  15.2865962  60.8973630  65.6103799
  15.5661036  60.9655841  64.1240761   3.7662506  62.2082339  61.9441478
   4.5603104  61.7132659  61.7424053   3.0554198  61.6800202  61.5809183
   8.5857350  64.5900435  66.2953845   8.6394373  65.1591371  67.0631561
   7.7172132  64.7602320  65.9307882   1.4655744  54.2917991  67.7778297
   2.1378797  54.0835353  67.1290945   0.6385530  54.0940077  67.3383529
  15.7145005  61.0322041  67.2953630  15.9080895  61.9367852  67.5412905
  15.6145623  60.5729460  68.1292215   7.3681316  50.9179932  69.7943957
   6.7209231  51.6169881  69.7008434   8.1382331  51.3516076  70.1620206
  10.7760114  61.1828784  72.8694511  10.6245620  60.9539336  71.9524594
  10.7664793  62.1399385  72.8825856   7.5445450  58.7560697  67.8540777
   8.4737510  58.9071856  67.6809744   7.1236480  58.8444717  66.9989424
   6.3433782  62.7811361  65.6239315   6.2044868  62.4130145  66.4965253
   5.5548378  63.2959001  65.4523273   6.9381934  67.8820458  56.9664851
   7.1133690  67.4108501  57.7810474   6.2514722  68.5086224  57.1946112
   7.8938997  62.1592964  63.0128153   7.5588830  62.1193734  63.9085802
   7.3942943  61.4937680  62.5398563   1.8683241  57.5660594  68.5380734
   1.7303039  56.8340833  69.1392273   2.7788165  57.4769494  68.2564921
  10.8298189  59.5048998  53.2865212  10.2127359  58.7795826  53.1898265
  10.3614677  60.2658358  52.9432286   4.4965542  57.2780553  68.0264413
   5.2065160  56.6373745  67.9851032   4.4534850  57.5293448  68.9490594
  12.4852320  64.2147906  70.9470993  12.4264867  63.5307127  70.2801576
  12.8871839  64.9566896  70.4951619   3.2094476  54.2645771  69.8460053
   2.6731833  53.8136509  70.4981649   2.6211184  54.3991680  69.1030517
   1.5043019  71.0309820  63.7404711   1.7439617  71.6628344  64.4183730
   0.6612216  70.6797860  64.0270071   2.6196735  53.7234422  52.4086516
   1.7426201  53.6023223  52.0448763   3.0954488  52.9320501  52.1565405
  12.4869728  62.1787490  69.1784972  11.5996506  61.8413412  69.3011371
  13.0568279  61.4470522  69.4153738   6.0170881  66.8388943  66.1446215
   5.9441053  67.6443914  66.6565520   5.5748274  67.0380909  65.3194237
   5.8060661  66.0760713  59.6549037   5.0228183  66.6182393  59.7487262
   6.5053406  66.5934692  60.0543278   9.1157311  51.8855342  62.2983242
   9.6126010  51.1325305  61.9784313   8.3444292  51.9219659  61.7326452
  16.9687068  57.5895708  63.9401534  16.9576944  58.4720423  63.5695467
  16.1004448  57.2367259  63.7456071   8.4769565  66.7375777  68.3004374
   9.1897537  67.3723242  68.2280276   7.9859593  66.8339643  67.4844376
  10.1987092  60.6427029  59.8721666   9.2643370  60.7628492  59.7026370
  10.3763760  59.7399496  59.6081676   5.6992280  54.0272725  62.0254927
   5.3290067  53.4743766  62.7135833   6.1951372  53.4230859  61.4729927
  13.5859643  56.4844349  60.4071700  14.0520095  57.3172340  60.3332003
  14.0367143  56.0189330  61.1116958   3.5281478  64.4870220  69.1209945
   4.2290938  65.1206703  69.2739339   3.0576593  64.8284952  68.3605584
  11.6535874  62.8288170  57.4057852  11.9295718  62.7144765  58.3151726
  10.7840373  62.4305655  57.3670025  11.5576306  48.8524936  64.4462601
  10.6439385  49.0829163  64.6144808  11.9869407  48.9363380  65.2976634
  11.3282764  57.0414828  66.9462495  10.6754214  57.2890735  66.2914948
  11.7063144  56.2278966  66.6124973   8.2889938  67.0774521  61.0490666
   8.4712333  66.2596177  61.5118418   9.1122924  67.2942213  60.6115556
   8.6232104  66.0042706  58.3105714   9.1519870  65.4935161  57.6975876
   8.8860323  65.6885236  59.1751247   7.3770337  57.7834639  73.4328532
   6.7010974  57.6828768  74.1030908   8.1997971  57.6273853  73.8964530
   1.9787851  67.0557823  61.0703490   1.3098227  67.5403950  60.5867530
   1.8400721  67.3027043  61.9846869   6.1193120  69.0901566  67.6686148
   6.6711428  69.2533188  68.4335234   6.4599313  69.6806004  66.9966173
   1.0957613  51.4376716  68.2708033   1.1598940  52.2991547  67.8585431
   1.0324734  50.8250718  67.5380392  10.9703994  63.9162824  73.5234803
  11.5143898  64.5292782  73.0289758  10.3890839  64.4742402  74.0401816
   9.2561507  67.0383542  64.6549831   9.1312647  66.2373282  64.1460776
   9.9140598  67.5329735  64.1663801  11.3196416  64.8392562  66.2829381
  10.3726751  64.7197913  66.2107707  11.6679189  63.9515060  66.3655642
   3.6795989  50.7286701  70.1067623   4.2030391  50.9748997  70.8693932
   3.4608322  51.5606736  69.6870760   8.3242849  64.6345278  62.4833733
   8.1767811  63.7061985  62.6641303   9.1496343  64.6565369  61.9990808
   2.1905093  53.2863345  58.3414225   2.5301166  53.8149266  57.6192833
   2.6377214  53.6243751  59.1172792  11.9276971  65.4573837  63.5698606
  12.8523518  65.2516698  63.4323057  11.7592274  65.2090238  64.4787947
   4.8848534  51.6700396  67.7917293   4.5445354  50.8708209  68.1937973
   4.1787540  51.9702107  67.2194126   5.5365006  48.7549708  66.2444616
   6.3591075  48.2810186  66.1223506   5.7803069  49.5340192  66.7443302
   4.1773240  51.7837967  56.5407518   4.8981603  52.1619220  56.0371235
   3.5538545  52.5026844  56.6442496   8.3204363  52.4883116  57.4765850
   8.5367978  53.3707754  57.1754678   7.8398430  52.0969329  56.7471492
   3.0603585  55.4468829  64.0536595   2.9148165  55.7609132  64.9460876
   2.5828788  56.0653729  63.5007493   4.9199968  52.4371377  64.1017484
   4.9061536  51.5412470  63.7649782   5.6372396  52.4442041  64.7355770
   6.7726098  52.8708717  66.1470612   6.5143876  53.7925788  66.1454942
   6.2411139  52.4739152  66.8371076  11.7172287  65.9759504  58.9260697
  11.8909165  65.4105927  58.1734550  12.2101178  66.7760399  58.7440187
   4.3236864  51.3185757  59.3705054   4.4452775  50.3902403  59.5695942
   4.0338906  51.3324443  58.4583370   7.1928054  49.0040668  62.5071774
   7.2149751  49.0680001  61.5523754   7.6096113  48.1645176  62.7012280
  17.5711678  58.7395927  60.5450997  18.0142824  57.9903252  60.1470120
  16.6938189  58.7306064  60.1624729  12.7047460  65.2926269  56.0257595
  13.3998364  65.9132961  56.2444910  13.0470610  64.4421620  56.3009973
  14.6038883  62.7425974  57.5544926  15.1290207  63.0813247  56.8294246
  14.5161235  61.8072989  57.3708061   6.2658931  66.6560048  69.6834803
   6.5746058  66.4109195  70.5557502   7.0634413  66.8606686  69.1953673
   6.2879543  68.8097957  61.9140179   5.8484534  68.3174336  62.6073036
   7.0387660  68.2670925  61.6732255   3.7353416  64.3535967  63.9862481
   3.1133425  63.6906672  63.6864709   4.4058282  64.3797098  63.3036129
   3.8077943  52.8317755  73.5794987   3.8566099  53.7079877  73.1972757
   4.3500457  52.2895148  73.0066630  14.2932789  63.3758878  72.8596124
  13.5028332  63.3583017  72.3200623  14.0566143  63.9147171  73.6145161
  14.4130664  60.2251344  70.1728853  14.4628669  60.0601352  71.1144375
  14.3044587  59.3578603  69.7826733   3.2966922  62.9039890  57.4620942
   3.4455043  63.5875354  56.8087614   4.1033366  62.8844980  57.9770397
  11.7034426  56.2082272  71.4888159  12.6044289  56.0688737  71.1972157
  11.7782401  56.3736727  72.4286337   6.0377231  53.5849127  70.3341346
   5.1680541  53.8782693  70.0623934   6.2736712  54.1689572  71.0548609
  15.9148861  62.6448286  70.4170874  15.6233669  63.0078266  71.2534335
  15.3020992  61.9315294  70.2384206  17.1144543  60.2101165  62.9373444
  17.9491434  60.6490970  63.1011005  17.2503672  59.7339819  62.1181690
  14.1636049  57.7680900  68.8850932  14.6390170  57.9608547  68.0769784
  13.2401614  57.8240086  68.6394316   1.0519555  58.9305068  58.4682010
   0.8065597  58.0267398  58.6662221   1.2215470  58.9322218  57.5261488
   8.7416265  49.8028744  67.8506766   9.2598209  50.5389771  67.5253255
   8.3871398  50.1092737  68.6853525   8.9928859  46.2229026  63.3707663
   9.2730613  45.5552215  63.9968089   9.7779466  46.4158122  62.8582326
   6.7962328  65.3988020  54.9332689   6.2236295  66.0178207  54.4803161
   7.3695122  65.9487382  55.4672611  12.8637718  54.6446660  67.1179238
  13.8155141  54.7444758  67.1391462  12.6941168  53.8524929  67.6277322
  10.8852097  51.7302244  67.3038639  10.2902029  52.0107256  66.6085127
  10.6001794  52.2196145  68.0755380  10.0159588  65.6825170  56.0641271
  10.9490261  65.6170732  56.2674147   9.9282801  66.5181437  55.6055804
  12.6447604  64.9991041  53.0245219  12.5661236  64.6650904  53.9180977
  13.4657271  65.4912809  53.0236691  15.3425796  57.8652780  66.2321537
  15.3102116  56.9268781  66.4181221  15.9526419  57.9436817  65.4987362
   7.1809126  56.7348833  52.2748741   8.1268231  56.6055041  52.3437159
   6.8023371  55.9963495  52.7518170  15.4920284  54.6563824  66.2779821
  14.9759333  53.8722280  66.0909749  16.3760233  54.3282540  66.4426340
  13.1531011  48.4004839  62.2375633  12.9555832  48.0919927  63.1218965
  13.7630717  49.1266478  62.3673563  21.1602345  58.9268787  65.3727574
  21.8905734  58.6654075  65.9335278  20.5509291  58.1897509  65.4129642
  19.2417643  57.0676650  65.9702025  18.5150806  56.9332614  65.3618517
  18.8264929  57.3753478  66.7758743   7.0647819  60.7866579  73.7349398
   7.9850828  60.9645178  73.9289445   7.0297402  59.8422625  73.5829098
   5.3652044  54.6598809  52.2103627   4.4583499  54.3631922  52.2866340
   5.6428025  54.3628628  51.3437913   6.9814109  49.2035699  58.3647868
   6.1714838  48.8582784  58.7403114   7.6698526  48.8943243  58.9535480
   8.9104658  48.2813746  59.9872165   9.4635696  48.7009199  60.6462188
   9.1474744  47.3549494  60.0295121   4.9337757  54.2700820  75.7674928
   4.8334484  55.2195177  75.6987020   4.7159299  53.9419059  74.8950999
   4.1350828  51.5185745  52.3515606   4.9969992  51.8440643  52.6111423
   4.3201172  50.7317241  51.8388672  12.2883465  50.3914271  59.4950829
  11.7082134  51.0499075  59.1128881  12.0219397  49.5691616  59.0838246
  10.7387031  49.7919329  61.6972149  11.2386809  49.9035863  60.8886468
  11.3822639  49.4880382  62.3372958   4.7969027  57.6997958  74.5839990
   4.3136109  58.4998319  74.7903879   4.8829966  57.7105903  73.6307434
   0.7242364  61.5902493  66.6208424   1.6785618  61.5586436  66.5538355
   0.5254888  61.1293117  67.4358650   1.3141747  60.1603609  69.1879222
   2.1334636  60.6547688  69.2114059   1.5878554  59.2435577  69.1596789
  11.0708343  52.5514362  58.5507177  10.1834198  52.8364012  58.3327372
  11.4862332  52.3908125  57.7034454  14.4222879  52.5760883  62.2661516
  15.1983269  53.0657335  62.5386133  13.6971013  53.0018937  62.7233386
  16.8595438  53.2888502  63.3235457  17.4539928  53.0484238  62.6128765
  16.9322021  52.5695632  63.9508993  10.2151556  62.3159036  52.6455197
  10.9187406  62.5209039  53.2612853   9.4914205  62.8835798  52.9104281
  11.0449367  58.0668897  58.7657467  10.9884568  58.5237449  57.9265100
  11.5977709  57.3059582  58.5880310  14.8554172  53.8558629  59.5907587
  14.5991107  53.4555265  60.4215794  14.2307040  54.5702423  59.4657726
  19.1666510  56.5954703  62.0978878  18.6066068  56.6647892  62.8710440
  18.5610014  56.4195687  61.3778374   2.2361719  68.0291430  63.8497064
   2.1194103  68.9736862  63.7475755   1.4154165  67.7264991  64.2382864
  12.1238254  62.7541565  54.6953657  12.9583858  62.3222764  54.5131132
  11.9622597  62.5823579  55.6230552  11.7784146  59.2573679  56.0609996
  11.7232950  59.0917950  55.1198441  11.1530201  59.9649712  56.2172186
   9.0930053  61.5622591  75.3863559   9.9621213  61.7363243  75.0250194
   8.6136804  62.3817007  75.2639289   5.0880271  48.7581788  55.6395315
   5.0758941  49.7023628  55.7963586   5.9803693  48.5751933  55.3454776
   3.2616233  68.6819692  67.0652993   4.1643480  68.7143302  67.3819488
   3.0353603  67.7520143  67.0799329   5.0169835  67.4350678  63.7263071
   4.0665466  67.4352540  63.6127444   5.3202321  66.6883413  63.2099106
   8.9032391  45.3524564  59.8941252   8.1364787  44.7983051  60.0397934
   9.3143096  45.4246433  60.7555403  20.7522529  73.2711217  64.7908834
  21.3900939  73.1517964  64.0872174  20.6343372  74.2192060  64.8496786
  17.5612235  73.2238645  64.7270359  17.2230747  73.1079709  63.8390893
  18.4302003  72.8229810  64.7071365  13.4199051  75.0774121  60.7167250
  12.8563916  74.9864058  59.9483537  13.3051446  74.2574025  61.1969742
  18.0432018  74.3773496  70.6856564  18.0320659  73.9826295  69.8137068
  18.2052657  73.6439569  71.2790336  10.9663483  76.5725313  63.5551470
  11.7584775  76.2316137  63.1397769  11.2060133  76.6820288  64.4753623
  18.9998609  78.7445089  56.0281714  18.3486589  79.3299169  55.6415728
  19.7942972  79.2751284  56.0876752  12.9254237  75.8334226  56.4268849
  13.6985113  75.2863213  56.2881725  13.2779635  76.6978475  56.6383310
  14.7639279  77.1610608  69.6335748  14.4729145  78.0656239  69.5182414
  15.3996263  77.2027136  70.3479818  15.6895486  74.5387457  66.2237108
  16.2859058  74.3143479  65.5094071  15.7470458  73.7972202  66.8262556
  15.2620514  71.9926892  54.0587299  15.5146035  71.4708413  53.2970762
  14.3245073  71.8293037  54.1613982  20.3063797  70.9962670  61.8662042
  21.0926886  70.5782094  61.5152459  20.5702502  71.9008763  62.0343690
  20.4773875  76.4335521  56.5650699  19.8419708  76.5070147  57.2771603
  20.1471281  77.0229119  55.8869778  25.7072224  70.9337904  62.7695020
  26.4397396  70.3637120  63.0032850  24.9511580  70.5459504  63.2101526
  14.9816803  73.8954998  56.2611674  14.8653061  73.2199901  56.9292758
  15.0919063  73.4087372  55.4443827  17.3248344  73.3565145  59.9658363
  16.9606551  72.8295766  60.6771284  18.1815460  72.9663614  59.7924848
  23.2297645  64.6459478  67.2289629  22.8980969  65.5154889  67.0050844
  22.6343258  64.3295762  67.9083659  16.9653831  68.3855045  54.9619711
  17.1328233  69.2535281  55.3290182  16.7751000  68.5482326  54.0381001
  19.7229164  76.8472024  66.6285542  19.4229887  77.7497062  66.5201349
  19.3780224  76.5804207  67.4806695  13.1741646  73.2985820  62.6622246
  12.2492142  73.1662035  62.8699938  13.4226059  74.0780040  63.1592189
  23.1226308  69.3654564  64.3082979  22.2143185  69.2969972  64.0141740
  23.0713904  69.8426509  65.1364805  16.9443052  70.8412702  55.9466378
  16.8242677  71.2869753  56.7851859  16.2495640  71.1898020  55.3879916
  10.5350457  72.9419094  63.4966035  10.6642838  73.1953573  64.4105447
   9.8547908  73.5346802  63.1770690  14.7049944  83.6116344  59.5956509
  14.6273974  84.5624169  59.6744990  14.1011588  83.2662217  60.2531436
  17.1967174  70.7844209  72.2517876  16.4200508  71.3438130  72.2420741
  17.8357737  71.2700992  72.7732746  24.9887954  67.5671002  66.0860853
  24.3462335  67.8603535  65.4400648  24.4842883  67.4523923  66.8914050
  22.6428118  71.3134175  56.7746712  23.5545974  71.5461562  56.5994410
  22.1337765  71.8971220  56.2121791  15.4513546  73.5929663  71.8135843
  16.1928230  74.1314707  71.5370667  14.7450532  74.2195952  71.9707395
  20.9268886  75.7358803  70.4108005  21.3352242  75.2941214  69.6662637
  20.2046147  75.1611431  70.6642198  17.2799956  70.6731410  67.7841562
  18.1261151  71.0970824  67.9276211  17.2198593  70.0165034  68.4780125
  21.2497700  76.2959994  64.1660294  20.6206563  76.4605708  63.4636362
  20.8623362  76.7101603  64.9371258  25.1286932  77.2314432  61.5204658
  24.4437970  77.6113333  60.9701691  25.2130782  77.8409758  62.2536605
  20.4299401  68.3335778  69.4422735  20.1860333  69.0877839  68.9057011
  20.7059332  68.7121126  70.2769983  22.3837864  74.8774391  68.1200001
  22.5954759  75.5206151  67.4434382  22.3367612  74.0436707  67.6521931
  19.9864093  67.4892211  65.0236573  19.1248572  67.7873465  65.3153311
  20.0126528  67.7062610  64.0917606  13.6949743  75.5805884  64.3690142
  14.2651100  76.0093152  63.7307627  14.2857855  75.2988468  65.0674328
  15.7394548  72.1557554  58.2399944  16.4418592  72.6078598  58.7073870
  15.4075177  71.5141373  58.8679837  14.1874910  70.7469311  72.6151153
  13.5573570  71.4285592  72.8486550  14.0810998  70.6352393  71.6704292
   9.4819882  70.4141107  63.5417078   8.6918936  70.6698636  63.0657188
   9.9731130  71.2289445  63.6469118  23.4983692  77.7546346  66.2922358
  24.3201136  77.3526533  66.0105040  23.4946095  77.6514580  67.2438474
  11.4334628  70.7785686  60.5000554  10.6365791  70.8904381  61.0184050
  11.2060220  71.1172338  59.6341445  17.2640295  77.3030389  68.4483069
  17.3284728  77.7650797  69.2841241  16.5551219  76.6727754  68.5765379
   7.7657585  70.6671597  65.9732068   8.0165624  71.5518607  66.2389644
   8.3017134  70.4876199  65.2007160  16.9788313  78.9698497  58.3162049
  16.8433988  79.8150033  58.7446897  17.5198125  79.1717775  57.5527983
  13.4655653  65.0490077  74.9776404  13.0722598  64.4956275  75.6524049
  14.2821793  65.3600655  75.3682922  10.4317710  76.4873935  58.8889974
  10.9442231  77.2817185  59.0395539  11.0840423  75.7900225  58.8223576
  12.2412595  79.6039691  60.9712727  12.4179223  80.5257656  60.7833711
  13.0369429  79.2898110  61.4007107  16.3823614  66.4647956  72.5696661
  17.1233327  67.0655109  72.4901123  16.6141536  65.7225594  72.0114704
  11.5264952  71.6504323  70.8474891  11.4118467  70.7489580  71.1481990
  10.6709469  71.8968020  70.4959707  18.6056789  79.5922063  72.4462391
  18.1620644  78.8058442  72.1283296  19.2674003  79.7801214  71.7806282
  13.3643910  81.1217865  66.9723070  13.9151336  80.9934928  66.2000064
  12.5255386  81.4212754  66.6217963  20.7038027  79.8724863  70.4743793
  20.6856503  80.6933744  69.9824062  21.6257947  79.7478939  70.6993934
  17.1611082  77.3868993  71.3167301  17.6939418  76.6257281  71.0866609
  16.6325163  77.0942645  72.0591455  20.3280777  62.4929059  66.8460943
  19.9845046  63.3830701  66.7700053  20.6959739  62.3030716  65.9830528
   8.3966627  74.8162589  59.6649545   9.2341849  75.2259598  59.4483253
   8.5744895  73.8762031  59.6349739  20.2931059  72.4837670  55.3533378
  19.7777683  73.2542275  55.5921765  20.0208368  71.8102806  55.9766439
  17.8778170  67.3287371  60.4118616  17.0219767  66.9394221  60.2324255
  18.2905122  67.4079332  59.5518402  19.4077317  64.8633714  64.8110176
  18.9042112  64.8263849  63.9977981  19.7007924  65.7726457  64.8706833
  15.6520203  64.9472444  63.8176358  16.5173200  64.7515252  63.4582247
  15.7197712  64.7182795  64.7445714  25.2665333  75.2370025  57.2886551
  24.4894776  74.8981184  56.8441713  25.9456814  75.2422648  56.6141516
  20.0817362  70.3564762  57.1793159  19.7767498  70.6710911  58.0303302
  21.0347805  70.4346182  57.2220492  18.5263794  76.5154985  58.8286113
  17.9985156  75.7807745  58.5159350  18.0251297  77.2929662  58.5826081
  23.5056640  74.7104006  63.9453159  22.8480315  75.4003267  64.0333288
  24.3097039  75.1000438  64.2887146  13.2582522  67.1774652  61.1892724
  13.8326274  66.9549833  60.4565917  13.8453504  67.2463346  61.9421326
  22.3162099  73.0648379  61.9957101  22.8293981  73.6978370  62.4978811
  22.9663323  72.4649574  61.6300461  13.5852109  69.2079113  55.2088610
  12.7489421  69.5453799  55.5297884  13.4456879  69.0728092  54.2715747
  15.5605190  64.0515901  59.9167794  14.9069602  63.7364918  59.2924409
  15.5185664  63.4291641  60.6427617  16.6716394  74.3335196  51.8321086
  15.7643456  74.1024449  52.0312235  17.1687426  73.5372815  52.0195068
  19.5784473  83.0432703  54.7517772  18.9046172  83.3464400  55.3602730
  19.9650295  83.8461783  54.4023229  18.7942930  70.5397834  64.2415442
  17.8765491  70.7612781  64.0837130  19.2103074  70.6144145  63.3827149
  19.5777978  71.9389250  59.3718122  20.3249797  72.4510647  59.0625244
  19.8469567  71.6173302  60.2322515  17.8504628  74.4347790  56.3545076
  16.9415847  74.1506823  56.4517546  17.8799712  74.8546869  55.4948383
  23.0823895  78.0454380  60.1236244  22.6286222  77.2045290  60.1801434
  22.4517862  78.6815778  60.4611024  22.0256815  68.9746366  61.3536911
  21.2879572  68.4623752  61.6847154  22.2783588  68.5346748  60.5420188
  21.5256835  79.8830877  61.0586062  21.8179809  80.4435934  60.3398427
  22.0355455  80.1759438  61.8139221  22.1268442  61.7522618  61.9478680
  22.4327319  60.8919981  61.6604595  22.8521047  62.3440238  61.7477674
   8.4192798  72.1553305  60.3360278   8.2217198  71.5622665  59.6111345
   7.8639462  71.8505515  61.0536217  16.3989522  72.0476411  62.4554871
  16.4538132  71.0950247  62.3797348  15.5880724  72.2035850  62.9396170
  17.5480716  75.9756534  53.6933155  17.1100146  75.2592393  53.2338792
  18.2891157  76.2032649  53.1318246  14.3381882  70.6653471  60.2145250
  13.5249747  70.9647641  60.6210442  14.8340876  70.2709160  60.9319733
  16.4890460  80.6611228  62.1479515  16.4466639  80.8872074  61.2188047
  17.4053159  80.4274602  62.2965316  19.9356094  71.1295295  69.0460144
  20.2905481  71.3566768  69.9054610  20.5828225  71.4613672  68.4237399
  25.6653830  74.2513731  59.7509473  25.5271729  74.4415327  58.8230662
  25.3090049  75.0133114  60.2077524  13.8295957  68.2371826  65.8306485
  14.4695336  68.0960585  65.1329449  12.9973487  67.9506340  65.4545087
  25.6923210  76.3190258  64.7620745  26.1259717  76.2265547  65.6103799
  26.4054791  76.2947759  64.1240761  14.6056260  77.5374257  61.9441478
  15.3996859  77.0424577  61.7424053  13.8947953  77.0092120  61.5809183
  19.4251105  79.9192352  66.2953845  19.4788127  80.4883289  67.0631561
  18.5565886  80.0894237  65.9307882  10.9139024  71.6817339  58.0201230
   9.9836612  71.6201794  58.2371193  11.0096496  71.1593291  57.2237872
  10.8324573  68.2072151  60.6079472  11.0931390  69.1217485  60.4988632
  11.6541745  67.7396594  60.7576085  12.3049498  69.6209909  67.7778297
  12.9772552  69.4127271  67.1290945  11.4779285  69.4231995  67.3383529
  26.5538760  76.3613959  67.2953630  26.7474650  77.2659769  67.5412905
  26.4539378  75.9021378  68.1292215  18.2075070  66.2471849  69.7943957
  17.5602985  66.9461799  69.7008434  18.9776086  66.6807993  70.1620206
  21.6153868  76.5120702  72.8694511  21.4639375  76.2831253  71.9524594
  21.6058548  77.4691303  72.8825856  18.3839205  74.0852614  67.8540777
  19.3131265  74.2363774  67.6809744  17.9630235  74.1736635  66.9989424
  17.1827536  78.1103279  65.6239315  17.0438622  77.7422063  66.4965253
  16.3942133  78.6250918  65.4523273  17.7775688  83.2112375  56.9664851
  17.9527444  82.7400418  57.7810474  17.0908476  83.8378141  57.1946112
  18.7332752  77.4884881  63.0128153  18.3982584  77.4485651  63.9085802
  18.2336697  76.8229597  62.5398563  12.7076996  72.8952511  68.5380734
  12.5696794  72.1632750  69.1392273  13.6181919  72.8061412  68.2564921
  21.6691943  74.8340916  53.2865212  21.0521114  74.1087744  53.1898265
  21.2008432  75.5950276  52.9432286  15.3359296  72.6072471  68.0264413
  16.0458915  71.9665663  67.9851032  15.2928604  72.8585366  68.9490594
  23.3246075  79.5439824  70.9470993  23.2658621  78.8599044  70.2801576
  23.7265593  80.2858814  70.4951619  14.0488230  69.5937689  69.8460053
  13.5125587  69.1428427  70.4981649  13.4604939  69.7283598  69.1030517
  12.3436774  86.3601738  63.7404711  12.5833372  86.9920262  64.4183730
  11.5005970  86.0089778  64.0270071  13.4590489  69.0526340  52.4086516
  12.5819956  68.9315141  52.0448763  13.9348242  68.2612418  52.1565405
  23.3263482  77.5079408  69.1784972  22.4390261  77.1705330  69.3011371
  23.8962033  76.7762439  69.4153738   4.9792629  73.8403500  62.5028024
   5.6663669  73.5265230  61.9149039   4.8240758  74.7444864  62.2295275
   9.7827351  68.7293696  66.9313047   9.6985540  68.1219366  66.1963457
   8.9610058  69.2202715  66.9322544  16.8564636  82.1680860  66.1446215
  16.7834807  82.9735832  66.6565520  16.4142029  82.3672826  65.3194237
  16.6454415  81.4052630  59.6549037  15.8621937  81.9474311  59.7487262
  17.3447160  81.9226610  60.0543278  19.9551065  67.2147260  62.2983242
  20.4519765  66.4617222  61.9784313  19.1838047  67.2511577  61.7326452
  27.8080823  72.9187625  63.9401534  27.7970699  73.8012341  63.5695467
  26.9398202  72.5659176  63.7456071  19.3163319  82.0667694  68.3004374
  20.0291291  82.7015159  68.2280276  18.8253348  82.1631560  67.4844376
  21.0380846  75.9718947  59.8721666  20.1037125  76.0920410  59.7026370
  21.2157514  75.0691414  59.6081676  16.5386034  69.3564643  62.0254927
  16.1683822  68.8035683  62.7135833  17.0345127  68.7522776  61.4729927
  24.4253397  71.8136266  60.4071700  24.8913850  72.6464258  60.3332003
  24.8760898  71.3481248  61.1116958  14.3675233  79.8162138  69.1209945
  15.0684692  80.4498621  69.2739339  13.8970348  80.1576869  68.3605584
  22.4929628  78.1580088  57.4057852  22.7689472  78.0436682  58.3151726
  21.6234127  77.7597573  57.3670025  22.3970060  64.1816853  64.4462601
  21.4833140  64.4121080  64.6144808  22.8263162  64.2655297  65.2976634
  22.1676519  72.3706745  66.9462495  21.5147969  72.6182653  66.2914948
  22.5456899  71.5570884  66.6124973  19.1283693  82.4066439  61.0490666
  19.3106087  81.5888094  61.5118418  19.9516679  82.6234131  60.6115556
  19.4625858  81.3334624  58.3105714  19.9913624  80.8227078  57.6975876
  19.7254078  81.0177154  59.1751247  18.2164092  73.1126556  73.4328532
  17.5404729  73.0120686  74.1030908  19.0391726  72.9565770  73.8964530
   9.9642951  79.3498493  66.0541048  10.5496388  78.6042181  66.1868952
   9.7667789  79.6602450  66.9377712  12.8181606  82.3849740  61.0703490
  12.1491981  82.8695868  60.5867530  12.6794476  82.6318961  61.9846869
   4.5560605  71.9204093  64.7745491   4.5944705  71.3867684  65.5682609
   4.0500898  71.3939299  64.1556468  16.9586875  84.4193484  67.6686148
  17.5105183  84.5825105  68.4335234  17.2993068  85.0097922  66.9966173
  11.9351368  66.7668634  68.2708033  11.9992694  67.6283465  67.8585431
  11.8718488  66.1542635  67.5380392  11.4103640  68.8391766  71.9181067
  12.0375679  68.4568844  72.5318592  10.5531559  68.6205968  72.2836760
  21.8097749  79.2454741  73.5234803  22.3537653  79.8584700  73.0289758
  21.2284594  79.8034320  74.0401816   8.1869183  70.6468195  57.8499422
   8.4822624  69.7378874  57.7966476   7.2857219  70.6255935  57.5280425
  20.0955262  82.3675459  64.6549831  19.9706401  81.5665199  64.1460776
  20.7534353  82.8621653  64.1663801  11.7163430  68.7224192  63.8326971
  10.9950016  69.3360160  63.6934444  12.5056686  69.2581957  63.7543617
  22.1590170  80.1684480  66.2829381  21.2120506  80.0489831  66.2107707
  22.5072943  79.2806978  66.3655642  14.5189744  66.0578618  70.1067623
  15.0424145  66.3040915  70.8693932  14.3002077  66.8898653  69.6870760
   9.9157025  68.3282293  57.9738747   9.5869731  67.4479672  57.7913853
  10.2696395  68.2729962  58.8615137  19.1636603  79.9637196  62.4833733
  19.0161566  79.0353903  62.6641303  19.9890097  79.9857286  61.9990808
  13.0298848  68.6155263  58.3414225  13.3694920  69.1441184  57.6192833
  13.4770968  68.9535669  59.1172792  22.7670725  80.7865754  63.5698606
  23.6917273  80.5808616  63.4323057  22.5986029  80.5382156  64.4787947
  16.3758760  64.0841626  66.2444616  17.1984830  63.6102104  66.1223506
  16.6196824  64.8632110  66.7443302  15.0166995  67.1129884  56.5407518
  15.7375357  67.4911137  56.0371235  14.3932299  67.8318761  56.6442496
  19.1598118  67.8175033  57.4765850  19.3761732  68.6999671  57.1754678
  18.6792185  67.4261247  56.7471492  13.8997339  70.7760747  64.0536595
  13.7541920  71.0901050  64.9460876  13.4222543  71.3945647  63.5007493
  15.7593722  67.7663295  64.1017484  15.7455291  66.8704388  63.7649782
  16.4766150  67.7733958  64.7355770  17.6119853  68.2000635  66.1470612
  17.3537631  69.1217705  66.1454942  17.0804893  67.8031069  66.8371076
  22.5566042  81.3051422  58.9260697  22.7302919  80.7397844  58.1734550
  23.0494933  82.1052317  58.7440187   8.3743001  73.3166091  66.9924256
   7.8296469  74.0925899  67.1244530   9.2522351  73.6636895  66.8343377
  15.1630618  66.6477675  59.3705054  15.2846529  65.7194321  59.5695942
  14.8732660  66.6616361  58.4583370  18.0321808  64.3332585  62.5071774
  18.0543505  64.3971918  61.5523754  18.4489867  63.4937094  62.7012280
  28.4105433  74.0687845  60.5450997  28.8536579  73.3195170  60.1470120
  27.5331943  74.0597981  60.1624729  23.5441214  80.6218186  56.0257595
  24.2392119  81.2424879  56.2444910  23.8864364  79.7713538  56.3009973
   9.1609023  72.4435987  69.8854413   8.4190759  72.5918623  70.4719043
   8.8401767  72.7044253  69.0221162  25.4432637  78.0717892  57.5544926
  25.9683961  78.4105165  56.8294246  25.3554990  77.1364907  57.3708061
  17.1052686  81.9851965  69.6834803  17.4139812  81.7401112  70.5557502
  17.9028168  82.1898604  69.1953673  17.1273298  84.1389875  61.9140179
  16.6878288  83.6466254  62.6073036  17.8781415  83.5962843  61.6732255
   9.6065637  80.3301416  61.9164807  10.4323657  80.0305188  61.5363451
   9.2559689  79.5609038  62.3654596  14.5747170  79.6827884  63.9862481
  13.9527179  79.0198589  63.6864709  15.2452037  79.7089016  63.3036129
   7.8074242  78.2487742  62.8753741   6.9706150  77.8209917  62.6937742
   7.7797887  78.4420186  63.8124532  14.6471698  68.1609672  73.5794987
  14.6959853  69.0371795  73.1972757  15.1894212  67.6187065  73.0066630
  25.1326543  78.7050795  72.8596124  24.3422087  78.6874934  72.3200623
  24.8959898  79.2439089  73.6145161  25.2524418  75.5543262  70.1728853
  25.3022423  75.3893269  71.1144375  25.1438342  74.6870521  69.7826733
  14.1360677  78.2331808  57.4620942  14.2848797  78.9167272  56.8087614
  14.9427120  78.2136898  57.9770397  22.5428181  71.5374190  71.4888159
  23.4438043  71.3980655  71.1972157  22.6176155  71.7028645  72.4286337
  16.8770986  68.9141045  70.3341346  16.0074295  69.2074611  70.0623934
  17.1130466  69.4981490  71.0548609  26.7542615  77.9740203  70.4170874
  26.4627423  78.3370184  71.2534335  26.1414746  77.2607212  70.2384206
  27.9538297  75.5393083  62.9373444  28.7885189  75.9782887  63.1011005
  28.0897426  75.0631736  62.1181690  25.0029803  73.0972818  68.8850932
  25.4783925  73.2900464  68.0769784  24.0795369  73.1532004  68.6394316
  11.8913310  74.2596985  58.4682010  11.6459352  73.3559315  58.6662221
  12.0609224  74.2614136  57.5261488  19.5810020  65.1320662  67.8506766
  20.0991964  65.8681688  67.5253255  19.2265153  65.4384655  68.6853525
  11.1608957  69.9925343  55.9668172  10.4678202  70.0669698  55.3108208
  10.9160709  69.2285686  56.4889689  19.8322614  61.5520944  63.3707663
  20.1124368  60.8844133  63.9968089  20.6173221  61.7450040  62.8582326
  17.6356082  80.7279938  54.9332689  17.0630050  81.3470125  54.4803161
  18.2088876  81.2779300  55.4672611  23.7031472  69.9738578  67.1179238
  24.6548895  70.0736676  67.1391462  23.5334923  69.1816847  67.6277322
  21.7245852  67.0594161  67.3038639  21.1295784  67.3399174  66.6085127
  21.4395549  67.5488062  68.0755380  20.8553342  81.0117088  56.0641271
  21.7884015  80.9462650  56.2674147  20.7676555  81.8473355  55.6055804
  23.4841359  80.3282958  53.0245219  23.4054990  79.9942822  53.9180977
  24.3051026  80.8204726  53.0236691  26.1819550  73.1944698  66.2321537
  26.1495870  72.2560699  66.4181221  26.7920174  73.2728734  65.4987362
  18.0202881  72.0640751  52.2748741  18.9661986  71.9346959  52.3437159
  17.6417126  71.3255413  52.7518170  26.3314039  69.9855741  66.2779821
  25.8153087  69.2014198  66.0909749  27.2153987  69.6574458  66.4426340
  30.0811397  72.3968567  65.9702025  29.3544561  72.2624532  65.3618517
  29.6658684  72.7045396  66.7758743  17.9041574  76.1158497  73.7349398
  18.8244583  76.2937096  73.9289445  17.8691157  75.1714542  73.5829098
  16.2045798  69.9890727  52.2103627  15.2977254  69.6923840  52.2866340
  16.4821779  69.6920545  51.3437913   7.1223739  71.3097091  62.6602673
   6.8026523  70.4562399  62.3677047   6.5757167  71.5245669  63.4160640
  10.9003646  74.0259532  66.3772180  11.1189656  74.9576639  66.3960213
  11.3129420  73.6667506  67.1626983  17.8207864  64.5327617  58.3647868
  17.0108592  64.1874702  58.7403114  18.5092281  64.2235161  58.9535480
  19.7498412  63.6105664  59.9872165  20.3029451  64.0301117  60.6462188
  19.9868499  62.6841412  60.0295121  15.7731511  69.5992737  75.7674928
  15.6728238  70.5487094  75.6987020  15.5553053  69.2710976  74.8950999
  14.9744583  66.8477662  52.3515606  15.8363747  67.1732561  52.6111423
  15.1594927  66.0609158  51.8388672   6.9911999  74.9300002  64.6295795
   6.2975470  74.5153955  64.1165749   7.7384990  74.9720539  64.0329214
  23.1277219  65.7206189  59.4950829  22.5475888  66.3790993  59.1128881
  22.8613152  64.8983533  59.0838246  21.5780786  65.1211247  61.6972149
  22.0780564  65.2327781  60.8886468  22.2216394  64.8172299  62.3372958
  15.6362781  73.0289876  74.5839990  15.1529863  73.8290236  74.7903879
  15.7223720  73.0397821  73.6307434   8.9048741  74.8618256  62.5061810
   8.8819429  74.9605943  61.5543693   9.2149378  75.7083407  62.8278976
  11.5636119  76.9194411  66.6208424  12.5179372  76.8878353  66.5538355
  11.3648643  76.4585035  67.4358650  12.1535501  75.4895527  69.1879222
  12.9728390  75.9839606  69.2114059  12.4272309  74.5727495  69.1596789
  21.9102097  67.8806279  58.5507177  21.0227952  68.1655930  58.3327372
  22.3256086  67.7200043  57.7034454  25.2616633  67.9052800  62.2661516
  26.0377024  68.3949253  62.5386133  24.5364768  68.3310854  62.7233386
  27.6989192  68.6180419  63.3235457  28.2933683  68.3776155  62.6128765
  27.7715776  67.8987550  63.9508993   9.9186348  82.4614030  63.6378622
   9.7840816  81.7014431  63.0716620   9.5018410  83.1854930  63.1707411
  21.8843121  73.3960815  58.7657467  21.8278322  73.8529367  57.9265100
  22.4371463  72.6351500  58.5880310  25.6947927  69.1850547  59.5907587
  25.4384861  68.7847183  60.4215794  25.0700795  69.8994341  59.4657726
  13.0755474  83.3583347  63.8497064  12.9587858  84.3028780  63.7475755
  12.2547920  83.0556909  64.2382864  22.9632008  78.0833483  54.6953657
  23.7977612  77.6514682  54.5131132  22.8016351  77.9115497  55.6230552
  22.6177900  74.5865596  56.0609996  22.5626704  74.4209868  55.1198441
  21.9923956  75.2941629  56.2172186   7.4070415  69.8233661  69.8871419
   8.0529279  69.3132615  70.3758644   7.1987566  70.5602342  70.4614844
  19.9323807  76.8914508  75.3863559  20.8014967  77.0655161  75.0250194
  19.4530559  77.7108925  75.2639289  15.9274026  64.0873705  55.6395315
  15.9152696  65.0315545  55.7963586  16.8197448  63.9043851  55.3454776
  14.1009988  84.0111609  67.0652993  15.0037234  84.0435220  67.3819488
  13.8747358  83.0812060  67.0799329  15.8563590  82.7642596  63.7263071
  14.9059221  82.7644457  63.6127444  16.1596076  82.0175330  63.2099106
  19.7426145  60.6816482  59.8941252  18.9758541  60.1274969  60.0397934
  20.1536850  60.7538351  60.7555403  11.7467906  66.9701278  73.9846433
  12.6099368  66.6138083  74.1949757  11.1733317  66.6315173  74.6721837
  31.5916283  88.6003134  64.7908834  32.2294693  88.4809882  64.0872174
  31.4737126  89.5483978  64.8496786  28.4005990  88.5530562  64.7270359
  28.0624501  88.4371627  63.8390893  29.2695758  88.1521727  64.7071365
  24.2592805  90.4066039  60.7167250  23.6957670  90.3155976  59.9483537
  24.1445200  89.5865943  61.1969742  28.8825772  89.7065414  70.6856564
  28.8714413  89.3118212  69.8137068  29.0446412  88.9731487  71.2790336
  21.8057237  91.9017230  63.5551470  22.5978529  91.5608055  63.1397769
  22.0453887  92.0112205  64.4753623  29.8392364  94.0737006  56.0281714
  29.1880344  94.6591087  55.6415728  30.6336727  94.6043201  56.0876752
  23.7647991  91.1626144  56.4268849  24.5378867  90.6155131  56.2881725
  24.1173390  92.0270393  56.6383310  25.6033034  92.4902526  69.6335748
  25.3122900  93.3948157  69.5182414  26.2390018  92.5319053  70.3479818
  26.5289240  89.8679374  66.2237108  27.1252813  89.6435397  65.5094071
  26.5864212  89.1264120  66.8262556  26.1014269  87.3218810  54.0587299
  26.3539790  86.8000331  53.2970762  25.1638828  87.1584955  54.1613982
  31.1457552  86.3254588  61.8662042  31.9320641  85.9074011  61.5152459
  31.4096256  87.2300680  62.0343690  31.3167629  91.7627438  56.5650699
  30.6813462  91.8362065  57.2771603  30.9865035  92.3521037  55.8869778
  36.5465979  86.2629821  62.7695020  37.2791151  85.6929038  63.0032850
  35.7905335  85.8751422  63.2101526  25.8210558  89.2246916  56.2611674
  25.7046816  88.5491819  56.9292758  25.9312818  88.7379290  55.4443827
  28.1642099  88.6857063  59.9658363  27.8000306  88.1587684  60.6771284
  29.0209214  88.2955532  59.7924848  34.0691399  79.9751395  67.2289629
  33.7374724  80.8446806  67.0050844  33.4737013  79.6587679  67.9083659
  27.8047586  83.7146962  54.9619711  27.9721988  84.5827199  55.3290182
  27.6144755  83.8774244  54.0381001  30.5622919  92.1763941  66.6285542
  30.2623642  93.0788980  66.5201349  30.2173978  91.9096125  67.4806695
  24.0135400  88.6277738  62.6622246  23.0885897  88.4953952  62.8699938
  24.2619813  89.4071957  63.1592189  33.9620063  84.6946482  64.3082979
  33.0536940  84.6261890  64.0141740  33.9107658  85.1718426  65.1364805
  27.7836806  86.1704620  55.9466378  27.6636432  86.6161671  56.7851859
  27.0889395  86.5189938  55.3879916  21.3744211  88.2711012  63.4966035
  21.5036592  88.5245491  64.4105447  20.6941663  88.8638720  63.1770690
  28.0360928  86.1136127  72.2517876  27.2594262  86.6730047  72.2420741
  28.6751491  86.5992910  72.7732746  35.8281709  82.8962920  66.0860853
  35.1856089  83.1895453  65.4400648  35.3236637  82.7815840  66.8914050
  33.4821873  86.6426093  56.7746712  34.3939729  86.8753480  56.5994410
  32.9731520  87.2263137  56.2121791  26.2907301  88.9221580  71.8135843
  27.0321985  89.4606624  71.5370667  25.5844286  89.5487869  71.9707395
  31.7662640  91.0650721  70.4108005  32.1745996  90.6233131  69.6662637
  31.0439902  90.4903348  70.6642198  28.1193710  86.0023328  67.7841562
  28.9654905  86.4262741  67.9276211  28.0592348  85.3456952  68.4780125
  32.0891455  91.6251912  64.1660294  31.4600317  91.7897626  63.4636362
  31.7017117  92.0393521  64.9371258  35.9680687  92.5606349  61.5204658
  35.2831725  92.9405251  60.9701691  36.0524536  93.1701676  62.2536605
  31.2693156  83.6627696  69.4422735  31.0254087  84.4169757  68.9057011
  31.5453086  84.0413044  70.2769983  33.2231618  90.2066308  68.1200001
  33.4348514  90.8498068  67.4434382  33.1761367  89.3728625  67.6521931
  30.8257847  82.8184129  65.0236573  29.9642326  83.1165383  65.3153311
  30.8520282  83.0354528  64.0917606  27.6419417  91.3626320  61.4310379
  28.1057762  91.6414023  60.6415001  27.3776215  90.4609764  61.2483470
  24.5343498  90.9097801  64.3690142  25.1044855  91.3385070  63.7307627
  25.1251610  90.6280386  65.0674328  26.5788303  87.4849472  58.2399944
  27.2812346  87.9370516  58.7073870  26.2468931  86.8433291  58.8679837
  25.0268664  86.0761229  72.6151153  24.3967325  86.7577510  72.8486550
  24.9204752  85.9644310  71.6704292  20.3213637  85.7433025  63.5417078
  19.5312691  85.9990553  63.0657188  20.8124884  86.5581363  63.6469118
  34.3377446  93.0838264  66.2922358  35.1594890  92.6818451  66.0105040
  34.3339849  92.9806498  67.2438474  22.2728382  86.1077604  60.5000554
  21.4759545  86.2196298  61.0184050  22.0453974  86.4464256  59.6341445
  28.1034050  92.6322307  68.4483069  28.1678482  93.0942714  69.2841241
  27.3944974  92.0019672  68.5765379  18.6051340  85.9963515  65.9732068
  18.8559378  86.8810525  66.2389644  19.1410888  85.8168117  65.2007160
  42.4283439  89.4277012  62.6407330  41.6747148  88.8584410  62.4851334
  42.5630981  89.3939677  63.5877965  27.8182067  94.2990415  58.3162049
  27.6827742  95.1441950  58.7446897  28.3591880  94.5009692  57.5527983
  24.3049407  80.3781994  74.9776404  23.9116353  79.8248193  75.6524049
  25.1215547  80.6892573  75.3682922  21.2711465  91.8165853  58.8889974
  21.7835985  92.6109103  59.0395539  21.9234178  91.1192143  58.8223576
  27.2217368  81.7939874  72.5696661  27.9627081  82.3947027  72.4901123
  27.4535291  81.0517511  72.0114704  22.3658706  86.9796241  70.8474891
  22.2512221  86.0781498  71.1481990  21.5103224  87.2259938  70.4959707
  29.4450544  94.9213981  72.4462391  29.0014398  94.1350360  72.1283296
  30.1067757  95.1093132  71.7806282  31.5431782  95.2016781  70.4743793
  31.5250257  96.0225662  69.9824062  32.4651702  95.0770856  70.6993934
  28.0004836  92.7160911  71.3167301  28.5333173  91.9549199  71.0866609
  27.4718917  92.4234562  72.0591455  31.1674531  77.8220977  66.8460943
  30.8238800  78.7122618  66.7700053  31.5353494  77.6322634  65.9830528
  19.2360382  90.1454507  59.6649545  20.0735604  90.5551515  59.4483253
  19.4138649  89.2053949  59.6349739  31.1324814  87.8129588  55.3533378
  30.6171437  88.5834192  55.5921765  30.8602122  87.1394724  55.9766439
  28.7171925  82.6579288  60.4118616  27.8613521  82.2686139  60.2324255
  29.1298877  82.7371249  59.5518402  30.2471071  80.1925632  64.8110176
  29.7435867  80.1555767  63.9977981  30.5401678  81.1018374  64.8706833
  26.4913957  80.2764361  63.8176358  27.3566954  80.0807170  63.4582247
  26.5591466  80.0474713  64.7445714  36.1059088  90.5661942  57.2886551
  35.3288531  90.2273102  56.8441713  36.7850569  90.5714565  56.6141516
  30.9211117  85.6856680  57.1793159  30.6161252  86.0002829  58.0303302
  31.8741559  85.7638100  57.2220492  29.3657549  91.8446903  58.8286113
  28.8378910  91.1099663  58.5159350  28.8645051  92.6221579  58.5826081
  34.3450395  90.0395924  63.9453159  33.6874069  90.7295185  64.0333288
  35.1490794  90.4292355  64.2887146  24.0976276  82.5066569  61.1892724
  24.6720028  82.2841751  60.4565917  24.6847259  82.5755264  61.9421326
  33.1555854  88.3940296  61.9957101  33.6687735  89.0270288  62.4978811
  33.8057077  87.7941492  61.6300461  24.4245863  84.5371030  55.2088610
  23.5883176  84.8745717  55.5297884  24.2850633  84.4020010  54.2715747
  26.3998944  79.3807818  59.9167794  25.7463356  79.0656835  59.2924409
  26.3579418  78.7583559  60.6427617  27.5110149  89.6627113  51.8321086
  26.6037211  89.4316367  52.0312235  28.0081181  88.8664733  52.0195068
  29.6336684  85.8689752  64.2415442  28.7159246  86.0904699  64.0837130
  30.0496828  85.9436062  63.3827149  30.4171732  87.2681167  59.3718122
  31.1643551  87.7802565  59.0625244  30.6863322  86.9465220  60.2322515
  28.6898382  89.7639708  56.3545076  27.7809602  89.4798741  56.4517546
  28.7193466  90.1838787  55.4948383  33.9217650  93.3746298  60.1236244
  33.4679977  92.5337208  60.1801434  33.2911616  94.0107696  60.4611024
  32.8650569  84.3038284  61.3536911  32.1273326  83.7915670  61.6847154
  33.1177343  83.8638665  60.5420188  32.3650589  95.2122794  61.0586062
  32.6573563  95.7727851  60.3398427  32.8749210  95.5051355  61.8139221
  19.2586553  87.4845222  60.3360278  19.0610953  86.8914583  59.6111345
  18.7033217  87.1797432  61.0536217  27.2383276  87.3768329  62.4554871
  27.2931886  86.4242165  62.3797348  26.4274478  87.5327768  62.9396170
  28.3874470  91.3048452  53.6933155  27.9493900  90.5884311  53.2338792
  29.1284911  91.5324567  53.1318246  25.1775636  85.9945389  60.2145250
  24.3643502  86.2939559  60.6210442  25.6734631  85.6001077  60.9319733
  30.7749848  86.4587213  69.0460144  31.1299236  86.6858686  69.9054610
  31.4221979  86.7905590  68.4237399  36.5047585  89.5805649  59.7509473
  36.3665484  89.7707245  58.8230662  36.1483804  90.3425032  60.2077524
  24.6689711  83.5663744  65.8306485  25.3089090  83.4252503  65.1329449
  23.8367242  83.2798257  65.4545087  36.5316965  91.6482176  64.7620745
  36.9653471  91.5557465  65.6103799  37.2448545  91.6239676  64.1240761
  25.4450015  92.8666174  61.9441478  26.2390613  92.3716495  61.7424053
  24.7341707  92.3384038  61.5809183  30.2644859  95.2484270  66.2953845
  30.3181882  95.8175206  67.0631561  29.3959641  95.4186155  65.9307882
  21.7532778  87.0109256  58.0201230  20.8230367  86.9493712  58.2371193
  21.8490250  86.4885209  57.2237872  21.6718327  83.5364069  60.6079472
  21.9325145  84.4509402  60.4988632  22.4935500  83.0688512  60.7576085
  23.1443253  84.9501826  67.7778297  23.8166306  84.7419188  67.1290945
  22.3173039  84.7523912  67.3383529  37.3932514  91.6905877  67.2953630
  37.5868404  92.5951687  67.5412905  37.2933132  91.2313296  68.1292215
  29.0468825  81.5763767  69.7943957  28.3996740  82.2753717  69.7008434
  29.8169840  82.0099911  70.1620206  32.4547623  91.8412619  72.8694511
  32.3033129  91.6123171  71.9524594  32.4452302  92.7983221  72.8825856
  29.2232959  89.4144532  67.8540777  30.1525019  89.5655692  67.6809744
  28.8023989  89.5028553  66.9989424  28.0221291  93.4395196  65.6239315
  27.8832377  93.0713981  66.4965253  27.2335887  93.9542836  65.4523273
  29.5726506  92.8176799  63.0128153  29.2376339  92.7777569  63.9085802
  29.0730452  92.1521515  62.5398563  23.5470750  88.2244429  68.5380734
  23.4090548  87.4924668  69.1392273  24.4575674  88.1353329  68.2564921
  32.5085698  90.1632833  53.2865212  31.8914868  89.4379662  53.1898265
  32.0402186  90.9242194  52.9432286  26.1753051  87.9364388  68.0264413
  26.8852669  87.2957581  67.9851032  26.1322359  88.1877283  68.9490594
  34.1639829  94.8731742  70.9470993  34.1052376  94.1890962  70.2801576
  34.5659348  95.6150732  70.4951619  24.8881985  84.9229606  69.8460053
  24.3519342  84.4720345  70.4981649  24.2998693  85.0575515  69.1030517
  24.2984244  84.3818258  52.4086516  23.4213710  84.2607059  52.0448763
  24.7741997  83.5904336  52.1565405  34.1657237  92.8371326  69.1784972
  33.2784015  92.4997248  69.3011371  34.7355788  92.1054357  69.4153738
  15.8186384  89.1695418  62.5028024  16.5057424  88.8557148  61.9149039
  15.6634513  90.0736782  62.2295275  20.6221106  84.0585614  66.9313047
  20.5379295  83.4511284  66.1963457  19.8003812  84.5494632  66.9322544
  30.7944820  82.5439178  62.2983242  31.2913519  81.7909140  61.9784313
  30.0231801  82.5803494  61.7326452  38.6474577  88.2479543  63.9401534
  38.6364453  89.1304259  63.5695467  37.7791957  87.8951094  63.7456071
  31.8774601  91.3010865  59.8721666  30.9430879  91.4212327  59.7026370
  32.0551269  90.3983332  59.6081676  27.3779789  84.6856561  62.0254927
  27.0077576  84.1327601  62.7135833  27.8738881  84.0814694  61.4729927
  35.2647152  87.1428184  60.4071700  35.7307604  87.9756176  60.3332003
  35.7154652  86.6773166  61.1116958  33.3323383  93.4872005  57.4057852
  33.6083227  93.3728600  58.3151726  32.4627882  93.0889490  57.3670025
  33.2363815  79.5108771  64.4462601  32.3226894  79.7412998  64.6144808
  33.6656916  79.5947215  65.2976634  33.0070273  87.6998663  66.9462495
  32.3541723  87.9474571  66.2914948  33.3850653  86.8862801  66.6124973
  29.0557846  88.4418474  73.4328532  28.3798483  88.3412603  74.1030908
  29.8785480  88.2857688  73.8964530  15.3954360  87.2496011  64.7745491
  15.4338459  86.7159602  65.5682609  14.8894653  86.7231216  64.1556468
  22.7745122  82.0960551  68.2708033  22.8386449  82.9575382  67.8585431
  22.7112242  81.4834553  67.5380392  22.2497395  84.1683684  71.9181067
  22.8769434  83.7860761  72.5318592  21.3925314  83.9497886  72.2836760
  32.6491503  94.5746659  73.5234803  33.1931407  95.1876617  73.0289758
  32.0678348  95.1326237  74.0401816  19.0262938  85.9760113  57.8499422
  19.3216379  85.0670791  57.7966476  18.1250973  85.9547852  57.5280425
  22.5557185  84.0516110  63.8326971  21.8343770  84.6652077  63.6934444
  23.3450440  84.5873874  63.7543617  32.9983925  95.4976397  66.2829381
  32.0514260  95.3781748  66.2107707  33.3466698  94.6098895  66.3655642
  25.3583498  81.3870536  70.1067623  25.8817900  81.6332833  70.8693932
  25.1395831  82.2190571  69.6870760  20.7550779  83.6574211  57.9738747
  20.4263485  82.7771590  57.7913853  21.1090150  83.6021879  58.8615137
  30.0030358  95.2929113  62.4833733  29.8555320  94.3645821  62.6641303
  30.8283851  95.3149204  61.9990808  23.8692602  83.9447180  58.3414225
  24.2088675  84.4733102  57.6192833  24.3164723  84.2827587  59.1172792
  33.6064480  96.1157672  63.5698606  34.5311027  95.9100533  63.4323057
  33.4379783  95.8674073  64.4787947  26.5636043  82.3284231  67.7917293
  26.2232863  81.5292044  68.1937973  25.8575049  82.6285942  67.2194126
  27.2152515  79.4133544  66.2444616  28.0378584  78.9394022  66.1223506
  27.4590578  80.1924027  66.7443302  25.8560749  82.4421802  56.5407518
  26.5769112  82.8203055  56.0371235  25.2326054  83.1610679  56.6442496
  29.9991872  83.1466951  57.4765850  30.2155487  84.0291589  57.1754678
  29.5185939  82.7553164  56.7471492  24.7391094  86.1052664  64.0536595
  24.5935674  86.4192967  64.9460876  24.2616297  86.7237565  63.5007493
  26.5987477  83.0955212  64.1017484  26.5849045  82.1996306  63.7649782
  27.3159905  83.1025876  64.7355770  28.4513607  83.5292552  66.1470612
  28.1931385  84.4509623  66.1454942  27.9198648  83.1322987  66.8371076
  33.3959796  96.6343340  58.9260697  33.5696674  96.0689762  58.1734550
  33.8888687  97.4344234  58.7440187  19.2136756  88.6458009  66.9924256
  18.6690224  89.4217817  67.1244530  20.0916106  88.9928813  66.8343377
  26.0024372  81.9769593  59.3705054  26.1240284  81.0486239  59.5695942
  25.7126415  81.9908279  58.4583370  28.8715563  79.6624503  62.5071774
  28.8937260  79.7263836  61.5523754  29.2883622  78.8229012  62.7012280
  39.2499187  89.3979763  60.5450997  39.6930333  88.6487088  60.1470120
  38.3725697  89.3889899  60.1624729  34.3834969  95.9510104  56.0257595
  35.0785873  96.5716797  56.2444910  34.7258119  95.1005455  56.3009973
  20.0002778  87.7727905  69.8854413  19.2584514  87.9210540  70.4719043
  19.6795522  88.0336171  69.0221162  36.2826392  93.4009810  57.5544926
  36.8077716  93.7397082  56.8294246  36.1948744  92.4656825  57.3708061
  25.4865452  83.4901590  73.5794987  25.5353607  84.3663713  73.1972757
  26.0287966  82.9478983  73.0066630  35.9720298  94.0342713  72.8596124
  35.1815841  94.0166852  72.3200623  35.7353652  94.5731007  73.6145161
  36.0918173  90.8835180  70.1728853  36.1416178  90.7185187  71.1144375
  35.9832096  90.0162439  69.7826733  24.9754431  93.5623725  57.4620942
  25.1242552  94.2459190  56.8087614  25.7820875  93.5428815  57.9770397
  33.3821935  86.8666108  71.4888159  34.2831798  86.7272572  71.1972157
  33.4569910  87.0320562  72.4286337  27.7164740  84.2432962  70.3341346
  26.8468050  84.5366528  70.0623934  27.9524221  84.8273407  71.0548609
  37.5936370  93.3032121  70.4170874  37.3021178  93.6662102  71.2534335
  36.9808501  92.5899129  70.2384206  38.7932052  90.8685001  62.9373444
  39.6278943  91.3074805  63.1011005  38.9291181  90.3923654  62.1181690
  35.8423558  88.4264736  68.8850932  36.3177679  88.6192382  68.0769784
  34.9189123  88.4823922  68.6394316  22.7307064  89.5888903  58.4682010
  22.4853106  88.6851233  58.6662221  22.9002979  89.5906053  57.5261488
  30.4203774  80.4612579  67.8506766  30.9385718  81.1973606  67.5253255
  30.0658907  80.7676573  68.6853525  22.0002712  85.3217260  55.9668172
  21.3071957  85.3961615  55.3108208  21.7554464  84.5577604  56.4889689
  30.6716368  76.8812862  63.3707663  30.9518122  76.2136051  63.9968089
  31.4566975  77.0741957  62.8582326  34.5425227  85.3030496  67.1179238
  35.4942650  85.4028593  67.1391462  34.3728677  84.5108764  67.6277322
  32.5639606  82.3886079  67.3038639  31.9689538  82.6691092  66.6085127
  32.2789303  82.8779980  68.0755380  34.3235113  95.6574876  53.0245219
  34.2448745  95.3234740  53.9180977  35.1444780  96.1496644  53.0236691
  37.0213305  88.5236615  66.2321537  36.9889625  87.5852616  66.4181221
  37.6313928  88.6020652  65.4987362  28.8596635  87.3932668  52.2748741
  29.8055740  87.2638877  52.3437159  28.4810880  86.6547330  52.7518170
  37.1707793  85.3147659  66.2779821  36.6546842  84.5306116  66.0909749
  38.0547742  84.9866376  66.4426340  42.8389854  89.5852622  65.3727574
  43.5693243  89.3237910  65.9335278  42.2296800  88.8481344  65.4129642
  40.9205152  87.7260485  65.9702025  40.1938315  87.5916450  65.3618517
  40.5052438  88.0337313  66.7758743  28.7435328  91.4450415  73.7349398
  29.6638337  91.6229014  73.9289445  28.7084911  90.5006460  73.5829098
  27.0439553  85.3182645  52.2103627  26.1371008  85.0215758  52.2866340
  27.3215534  85.0212463  51.3437913  17.9617493  86.6389008  62.6602673
  17.6420277  85.7854316  62.3677047  17.4150921  86.8537586  63.4160640
  21.7397401  89.3551449  66.3772180  21.9583410  90.2868557  66.3960213
  22.1523174  88.9959424  67.1626983  28.6601618  79.8619535  58.3647868
  27.8502347  79.5166620  58.7403114  29.3486035  79.5527078  58.9535480
  30.5892167  78.9397581  59.9872165  31.1423205  79.3593035  60.6462188
  30.8262253  78.0133329  60.0295121  26.6125266  84.9284655  75.7674928
  26.5121993  85.8779012  75.6987020  26.3946808  84.6002894  74.8950999
  25.8138337  82.1769580  52.3515606  26.6757501  82.5024478  52.6111423
  25.9988681  81.3901076  51.8388672  17.8305753  90.2591920  64.6295795
  17.1369224  89.8445873  64.1165749  18.5778744  90.3012456  64.0329214
  33.9670974  81.0498106  59.4950829  33.3869643  81.7082911  59.1128881
  33.7006906  80.2275451  59.0838246  32.4174540  80.4503164  61.6972149
  32.9174318  80.5619699  60.8886468  33.0610148  80.1464217  62.3372958
  26.4756536  88.3581794  74.5839990  25.9923618  89.1582154  74.7903879
  26.5617475  88.3689739  73.6307434  19.7442496  90.1910173  62.5061810
  19.7213184  90.2897861  61.5543693  20.0543132  91.0375324  62.8278976
  22.4029873  92.2486329  66.6208424  23.3573127  92.2170271  66.5538355
  22.2042397  91.7876952  67.4358650  22.9929256  90.8187445  69.1879222
  23.8122145  91.3131523  69.2114059  23.2666063  89.9019413  69.1596789
  32.7495852  83.2098197  58.5507177  31.8621707  83.4947847  58.3327372
  33.1649841  83.0491960  57.7034454  36.1010388  83.2344718  62.2661516
  36.8770778  83.7241170  62.5386133  35.3758522  83.6602772  62.7233386
  38.5382946  83.9472337  63.3235457  39.1327437  83.7068073  62.6128765
  38.6109530  83.2279468  63.9508993  31.8939065  92.9742872  52.6455197
  32.5974915  93.1792874  53.2612853  31.1701714  93.5419633  52.9104281
  32.7236875  88.7252733  58.7657467  32.6672077  89.1821284  57.9265100
  33.2765218  87.9643417  58.5880310  36.5341681  84.5142465  59.5907587
  36.2778616  84.1139100  60.4215794  35.9094549  85.2286259  59.4657726
  40.8454019  87.2538538  62.0978878  40.2853577  87.3231727  62.8710440
  40.2397523  87.0779523  61.3778374  33.8025763  93.4125401  54.6953657
  34.6371367  92.9806599  54.5131132  33.6410106  93.2407414  55.6230552
  33.4571655  89.9157514  56.0609996  33.4020459  89.7501785  55.1198441
  32.8317710  90.6233547  56.2172186  18.2464170  85.1525578  69.8871419
  18.8923033  84.6424532  70.3758644  18.0381321  85.8894260  70.4614844
  30.7717562  92.2206426  75.3863559  31.6408722  92.3947078  75.0250194
  30.2924313  93.0400843  75.2639289  26.7667780  79.4165623  55.6395315
  26.7546450  80.3607463  55.7963586  27.6591202  79.2335768  55.3454776
  30.5819900  76.0108400  59.8941252  29.8152296  75.4566886  60.0397934
  30.9930605  76.0830268  60.7555403  22.5861661  82.2993196  73.9846433
  23.4493122  81.9430000  74.1949757  22.0127071  81.9607090  74.6721837
  47.3859733 101.5921739  62.7695020  48.1184905 101.0220956  63.0032850
  46.6299089 101.2043339  63.2101526  44.9085154  95.3043313  67.2289629
  44.5768478  96.1738724  67.0050844  44.3130767  94.9879597  67.9083659
  44.8013817 100.0238399  64.3082979  43.8930694  99.9553808  64.0141740
  44.7501413 100.5010344  65.1364805  46.6675463  98.2254838  66.0860853
  46.0249844  98.5187371  65.4400648  46.1630392  98.1107758  66.8914050
  42.1086910  98.9919614  69.4422735  41.8647842  99.7461674  68.9057011
  42.3846841  99.3704961  70.2769983  41.6651602  98.1476047  65.0236573
  40.8036081  98.4457300  65.3153311  41.6914036  98.3646446  64.0917606
  35.1443162  95.7073912  74.9776404  34.7510107  95.1540111  75.6524049
  35.9609302  96.0184491  75.3682922  38.0611123  97.1231791  72.5696661
  38.8020836  97.7238944  72.4901123  38.2929045  96.3809429  72.0114704
  42.0068285  93.1512894  66.8460943  41.6632555  94.0414536  66.7700053
  42.3747248  92.9614552  65.9830528  39.5565679  97.9871206  60.4118616
  38.7007276  97.5978056  60.2324255  39.9692631  98.0663167  59.5518402
  41.0864826  95.5217549  64.8110176  40.5829621  95.4847685  63.9977981
  41.3795433  96.4310292  64.8706833  37.3307712  95.6056279  63.8176358
  38.1960709  95.4099088  63.4582247  37.3985221  95.3766631  64.7445714
  34.9370031  97.8358487  61.1892724  35.5113783  97.6133668  60.4565917
  35.5241013  97.9047182  61.9421326  37.2392699  94.7099736  59.9167794
  36.5857111  94.3948753  59.2924409  37.1973173  94.0875476  60.6427617
  43.7044324  99.6330201  61.3536911  42.9667081  99.1207588  61.6847154
  43.9571097  99.1930583  60.5420188  43.8055951  92.4106453  61.9478680
  44.1114828  91.5503817  61.6604595  44.5308556  93.0024074  61.7477674
  39.8862579  96.9055685  69.7943957  39.2390494  97.6045634  69.7008434
  40.6563595  97.3391829  70.1620206  41.6338574  97.8731095  62.2983242
  42.1307274  97.1201058  61.9784313  40.8625556  97.9095412  61.7326452
  44.0757569  94.8400689  64.4462601  43.1620649  95.0704916  64.6144808
  44.5050671  94.9239133  65.2976634  36.1977253  96.7162454  70.1067623
  36.7211654  96.9624750  70.8693932  35.9789586  97.5482489  69.6870760
  37.4029798  97.6576149  67.7917293  37.0626618  96.8583962  68.1937973
  36.6968804  97.9577860  67.2194126  38.0546269  94.7425461  66.2444616
  38.8772339  94.2685940  66.1223506  38.2984333  95.5215945  66.7443302
  40.8385627  98.4758869  57.4765850  41.0549241  99.3583507  57.1754678
  40.3579694  98.0845082  56.7471492  37.4381231  98.4247130  64.1017484
  37.4242800  97.5288223  63.7649782  38.1553659  98.4317794  64.7355770
  36.8418127  97.3061510  59.3705054  36.9634038  96.3778156  59.5695942
  36.5520169  97.3200196  58.4583370  39.7109317  94.9916421  62.5071774
  39.7331014  95.0555754  61.5523754  40.1277376  94.1520929  62.7012280
  41.2597529  95.7904497  67.8506766  41.7779473  96.5265524  67.5253255
  40.9052662  96.0968490  68.6853525  41.5110123  92.2104779  63.3707663
  41.7911877  91.5427969  63.9968089  42.2960730  92.4033875  62.8582326
  45.3818981 100.6322413  67.1179238  46.3336404 100.7320511  67.1391462
  45.2122432  99.8400682  67.6277322  43.4033361  97.7177997  67.3038639
  42.8083293  97.9983009  66.6085127  43.1183057  98.2071898  68.0755380
  48.0101548 100.6439577  66.2779821  47.4940596  99.8598033  66.0909749
  48.8941496 100.3158293  66.4426340  45.6712275  94.3880592  62.2375633
  45.4737096  94.0795680  63.1218965  46.2811980  95.1142231  62.3673563
  51.7598906 103.0552403  65.9702025  51.0332070 102.9208367  65.3618517
  51.3446193 103.3629231  66.7758743  39.4995373  95.1911452  58.3647868
  38.6896101  94.8458537  58.7403114  40.1879790  94.8818996  58.9535480
  41.4285921  94.2689499  59.9872165  41.9816960  94.6884952  60.6462188
  41.6656007  93.3425247  60.0295121  36.6532092  97.5061498  52.3515606
  37.5151256  97.8316396  52.6111423  36.8382436  96.7192994  51.8388672
  44.8064728  96.3790024  59.4950829  44.2263397  97.0374828  59.1128881
  44.5400661  95.5567369  59.0838246  43.2568295  95.7795082  61.6972149
  43.7568073  95.8911616  60.8886468  43.9003903  95.4756135  62.3372958
  43.5889606  98.5390115  58.5507177  42.7015461  98.8239765  58.3327372
  44.0043595  98.3783878  57.7034454  46.9404142  98.5636636  62.2661516
  47.7164532  99.0533088  62.5386133  46.2152277  98.9894690  62.7233386
  49.3776701  99.2764255  63.3235457  49.9721192  99.0359991  62.6128765
  49.4503285  98.5571385  63.9508993  47.3735436  99.8434382  59.5907587
  47.1172370  99.4431018  60.4215794  46.7488304 100.5578176  59.4657726
  51.6847774 102.5830456  62.0978878  51.1247332 102.6523645  62.8710440
  51.0791277 102.4071440  61.3778374  37.6061535  94.7457541  55.6395315
  37.5940205  95.6899381  55.7963586  38.4984957  94.5627686  55.3454776
  41.4213654  91.3400317  59.8941252  40.6546050  90.7858804  60.0397934
  41.8324359  91.4122186  60.7555403   4.0284717  17.2816191  49.4940327
   4.7609889  16.7115408  49.7278157   3.2724072  16.8937791  49.9346833
   1.4438800  15.7132851  51.0328286   0.5355678  15.6448260  50.7387047
   1.3926396  16.1904796  51.8610111   3.3100447  13.9149289  52.8106160
   2.6674827  14.2081823  52.1645954   2.8055375  13.8002210  53.6159356
   3.4499425  23.5792719  48.2449964   2.7650463  23.9591620  47.6946997
   3.5343274  24.1888046  48.9781912   0.7050356  21.2252678  54.8445308
   0.9167251  21.8684438  54.1679689   0.6580104  20.3914995  54.3767238
   1.8196184  24.1024633  53.0167665   2.6413628  23.7004821  52.7350347
   1.8158587  23.9992868  53.9683781   9.9102177  20.4463382  49.3652636
   9.1565886  19.8770780  49.2096641  10.0449718  20.4126046  50.3123271
   3.5877826  21.5848312  44.0131858   2.8107268  21.2459471  43.5687020
   4.2669307  21.5900935  43.3386823   1.8269133  21.0582293  50.6698466
   1.1692807  21.7481554  50.7578595   2.6309532  21.4478725  51.0132452
   0.6374591  19.4126666  48.7202408   1.1506473  20.0456658  49.2224117
   1.2875815  18.8127861  48.3545768   1.4036388  24.3932667  46.8481550
   0.9498715  23.5523577  46.9046741   0.7730354  25.0294066  47.1856330
   3.9866323  20.5992018  46.4754780   3.8484221  20.7893614  45.5475969
   3.6302542  21.3611401  46.9322831   4.0135702  22.6668545  51.4866051
   4.4472209  22.5743835  52.3349105   4.7267283  22.6426046  50.8486067
   4.8751252  22.7092246  54.0198937   5.0687142  23.6138057  54.2658212
   4.7751870  22.2499665  54.8537522   1.6458567  25.8918111  57.6716299
   1.5871113  25.2077332  57.0046882   2.0478086  26.6337101  57.2196925
   1.6475974  23.8557695  55.9030279   0.7602753  23.5183617  56.0256678
   2.2174526  23.1240727  56.1399044   6.1293315  19.2665913  50.6646841
   6.1183191  20.1490628  50.2940774   5.2610694  18.9137464  50.4701378
   1.0883218  27.1344042  50.2943912   2.0129765  26.9286903  50.1568363
   0.9198521  26.8860443  51.2033254   0.8778534  27.6529709  45.6506004
   1.0515411  27.0876132  44.8979856   1.3707425  28.4530604  45.4685494
   6.7317925  20.4166132  47.2696303   7.1749071  19.6673457  46.8715427
   5.8544435  20.4076268  46.8870035   1.8653706  26.9696474  42.7502902
   2.5604611  27.5903166  42.9690217   2.2076856  26.1191825  43.0255280
   3.7645129  24.4196179  44.2790233   4.2896454  24.7583452  43.5539553
   3.6767482  23.4843194  44.0953367   3.4539035  25.0529083  59.5841431
   2.6634579  25.0353222  59.0445930   3.2172390  25.5917376  60.3390467
   3.5736911  21.9021549  56.8974159   3.6234915  21.7371557  57.8389682
   3.4650834  21.0348808  56.5072040   0.8640673  17.8852477  58.2133466
   1.7650536  17.7458942  57.9217464   0.9388647  18.0506932  59.1531643
   5.0755107  24.3218491  57.1416181   4.7839916  24.6848471  57.9779642
   4.4627239  23.6085499  56.9629513   6.2750790  21.8871370  49.6618751
   7.1097681  22.3261174  49.8256311   6.4109918  21.4110024  48.8426997
   3.3242296  19.4451105  55.6096239   3.7996417  19.6378752  54.8015090
   2.4007861  19.5010291  55.3639622   2.0243965  16.3216865  53.8424544
   2.9761387  16.4214963  53.8636768   1.8547415  15.5295134  54.3522629
   1.8053851  26.6761246  39.7490525   1.7267483  26.3421109  40.6426283
   2.6263518  27.1683014  39.7481998   4.5032042  19.5422985  52.9566844
   4.4708362  18.6038986  53.1426528   5.1132666  19.6207022  52.2232669
   4.6526531  16.3334028  53.0025127   4.1365580  15.5492485  52.8155056
   5.5366479  16.0052745  53.1671647  10.3208592  20.6038992  52.0972881
  11.0511981  20.3424280  52.6580584   9.7115538  19.8667714  52.1374949
   8.4023889  18.7446854  52.6947332   7.6757053  18.6102819  52.0863824
   7.9871176  19.0523683  53.5004050   3.5829126  14.2531087  48.9906823
   4.3589516  14.7427540  49.2631440   2.8577260  14.6789142  49.4478692
   6.0201684  14.9658707  50.0480764   6.6146175  14.7254443  49.3374072
   6.0928268  14.2465837  50.6754300   4.0160419  15.5328834  46.3152893
   3.7597353  15.1325470  47.1461101   3.3913287  16.2472628  46.1903033
   8.3272757  18.2724907  48.8224185   7.7672315  18.3418097  49.5955747
   7.7216260  18.0965892  48.1023681   1.2844500  24.4311770  41.4198964
   2.1190104  23.9992969  41.2376439   1.1228843  24.2593784  42.3475858
   9.9128775  34.9481421  51.5154141  10.5507185  34.8288169  50.8117481
   9.7949618  35.8962265  51.5742093   6.7218482  34.9008850  51.4515665
   6.3836993  34.7849914  50.5636200   7.5908250  34.5000015  51.4316671
   2.5805297  36.7544326  47.4412556   2.0170163  36.6634263  46.6728844
   2.4657693  35.9344230  47.9215049   7.2038265  36.0543701  57.4101871
   7.1926906  35.6596500  56.5382374   7.3658904  35.3209774  58.0035642
   8.1604856  40.4215294  42.7527021   7.5092836  41.0069374  42.3661035
   8.9549219  40.9521489  42.8122059   2.0860483  37.5104431  43.1514155
   2.8591359  36.9633418  43.0127031   2.4385882  38.3748680  43.3628617
   3.9245526  38.8380813  56.3581055   3.6335392  39.7426444  56.2427721
   4.5602510  38.8797341  57.0725124   4.8501733  36.2157662  52.9482414
   5.4465305  35.9913684  52.2339377   4.9076704  35.4742407  53.5507862
   4.4226761  33.6697097  40.7832605   4.6752282  33.1478618  40.0216068
   3.4851320  33.5063242  40.8859289   9.4670044  32.6732875  48.5907349
  10.2533133  32.2552298  48.2397766   9.7308748  33.5778967  48.7588997
   9.6380121  38.1105726  43.2896005   9.0025954  38.1840352  44.0016910
   9.3077528  38.6999324  42.6115085  14.8678471  32.6108108  49.4940327
  15.6003643  32.0407325  49.7278157  14.1117827  32.2229709  49.9346833
   4.1423050  35.5725203  42.9856980   4.0259308  34.8970106  43.6538065
   4.2525310  35.0857577  42.1689133   6.4854591  35.0335350  46.6903670
   6.1212798  34.5065971  47.4016591   7.3421707  34.6433819  46.5170155
  12.3903891  26.3229683  53.9534936  12.0587216  27.1925094  53.7296151
  11.7949505  26.0065967  54.6328966   6.1260078  30.0625250  41.6865018
   6.2934480  30.9305486  42.0535489   5.9357247  30.2252531  40.7626307
   8.8835411  38.5242229  53.3530848   8.5836134  39.4267267  53.2446656
   8.5386471  38.2574412  54.2052001   2.3347892  34.9756025  49.3867553
   1.4098389  34.8432240  49.5945245   2.5832306  35.7550245  49.8837495
  12.2832555  31.0424769  51.0328286  11.3749432  30.9740177  50.7387047
  12.2320151  31.5196714  51.8610111   6.1049299  32.5182907  42.6711685
   5.9848924  32.9639958  43.5097165   5.4101887  32.8668225  42.1125223
   3.8656191  45.2886549  46.3201816   3.7880220  46.2394374  46.3990297
   3.2617834  44.9432421  46.9776742   6.3573421  32.4614414  58.9763183
   5.5806755  33.0208334  58.9666048   6.9963984  32.9471197  59.4978053
  14.1494201  29.2441207  52.8106160  13.5068581  29.5373740  52.1645954
  13.6449130  29.1294127  53.6159356  11.8034365  32.9904380  43.4992019
  12.7152221  33.2231767  43.3239716  11.2944012  33.5741425  42.9367098
   4.6119793  35.2699868  58.5381150   5.3534477  35.8084912  58.2615974
   3.9056778  35.8966156  58.6952702  10.0875133  37.4129008  57.1353312
  10.4958489  36.9711419  56.3907944   9.3652394  36.8381636  57.3887504
   6.4406203  32.3501615  54.5086868   7.2867398  32.7741029  54.6521517
   6.3804840  31.6935239  55.2025432  10.4103947  37.9730199  50.8905600
   9.7812810  38.1375913  50.1881668  10.0229609  38.3871808  51.6616564
   9.5905648  30.0105983  56.1668042   9.3466580  30.7648044  55.6302318
   9.8665578  30.3891331  57.0015289  11.5444111  36.5544596  54.8445308
  11.7561006  37.1976356  54.1679689  11.4973859  35.7206912  54.3767238
   9.1470340  29.1662416  51.7481880   8.2854819  29.4643670  52.0398617
   9.1732774  29.3832815  50.8162912   5.9631909  37.7104607  48.1555685
   6.4270255  37.9892310  47.3660308   5.6988707  36.8088051  47.9728776
   2.8555990  37.2576088  51.0935449   3.4257347  37.6863357  50.4552933
   3.4464102  36.9758673  51.7919634   4.9000795  33.8327759  44.9645251
   5.6024838  34.2848803  45.4319177   4.5681424  33.1911578  45.5925144
   3.3481157  32.4239516  59.3396460   2.7179817  33.1055797  59.5731857
   3.2417244  32.3122597  58.3949598  12.6589939  39.4316551  53.0167665
  13.4807382  39.0296738  52.7350347  12.6552341  39.3284785  53.9683781
   6.4246542  38.9800594  55.1728376   6.4890975  39.4421002  56.0086547
   5.7157466  38.3497959  55.3010685   6.1394560  40.6468702  45.0407356
   6.0040234  41.4920238  45.4692204   6.6804372  40.8487980  44.2773290
   2.6261899  26.7260282  61.7021711   2.2328845  26.1726480  62.3769355
   3.4428040  27.0370860  62.0928229   1.4018842  41.2809896  47.6958034
   1.5785470  42.2027861  47.5079018   2.1975675  40.9668315  48.1252414
   5.5429860  28.1418161  59.2941968   6.2839574  28.7425314  59.2146430
   5.7747783  27.3995799  58.7360010   7.7663036  41.2692268  59.1707698
   7.3226890  40.4828647  58.8528602   8.4280250  41.4571419  58.5051589
   2.5250157  42.7988070  53.6968376   3.0757582  42.6705133  52.9245370
   1.6861633  43.0982959  53.3463269   9.8644274  41.5495068  57.1989099
   9.8462749  42.3703949  56.7069368  10.7864194  41.4249144  57.4239240
   6.3217328  39.0639198  58.0412608   6.8545665  38.3027486  57.8111916
   5.7931409  38.7712850  58.7836762   9.4887023  24.1699264  53.5706249
   9.1451293  25.0600905  53.4945360   9.8565986  23.9800921  52.7075834
   9.4537306  34.1607875  42.0778684   8.9383929  34.9312480  42.3167072
   9.1814614  33.4873011  42.7011746   7.0384417  29.0057576  47.1363923
   6.1826013  28.6164426  46.9569561   7.4511369  29.0849536  46.2763708
   8.5683564  26.5403919  51.5355483   8.0648359  26.5034054  50.7223288
   8.8614171  27.4496662  51.5952139   4.8126450  26.6242649  50.5421664
   5.6779446  26.4285457  50.1827554   4.8803958  26.3953000  51.4691021
  14.4271580  36.9140230  44.0131858  13.6501023  36.5751389  43.5687020
  15.1063061  36.9192853  43.3386823   9.2423609  32.0334967  43.9038466
   8.9373745  32.3481116  44.7548609  10.1954051  32.1116387  43.9465799
   7.6870041  38.1925190  45.5531420   7.1591403  37.4577950  45.2404657
   7.1857544  38.9699867  45.3071388  12.6662887  36.3874211  50.6698466
  12.0086561  37.0773472  50.7578595  13.4703286  36.7770643  51.0132452
   2.4188769  28.8544857  47.9138031   2.9932521  28.6320038  47.1811224
   3.0059751  28.9233551  48.6666632  11.4768346  34.7418583  48.7202408
  11.9900228  35.3748575  49.2224117  12.1269570  34.1419779  48.3545768
   2.7458356  30.8849318  41.9333916   1.9095668  31.2224004  42.2543191
   2.6063125  30.7498297  40.9961053   4.7211436  25.7286105  46.6413101
   4.0675849  25.4135123  46.0169715   4.6791910  25.1061846  47.3672923
   5.8322641  36.0105401  38.5566393   4.9249703  35.7794654  38.7557542
   6.3293673  35.2143020  38.7440374   8.7390720  44.7202908  41.4763079
   8.0652419  45.0234604  42.0848037   9.1256542  45.5231988  41.1268536
   7.9549177  32.2168039  50.9660748   7.0371738  32.4382986  50.8082436
   8.3709320  32.2914349  50.1072455   8.7384224  33.6159455  46.0963428
   9.4856043  34.1280852  45.7870550   9.0075814  33.2943507  46.9567822
   7.0110875  36.1117995  43.0790383   6.1022094  35.8277028  43.1762852
   7.0405958  36.5317074  42.2193690  12.2430142  39.7224585  46.8481550
  11.7892469  38.8815495  46.9046741  11.6124109  40.3585983  47.1856330
  11.1863062  30.6516571  48.0782218  10.4485818  30.1393957  48.4092460
  11.4389835  30.2116953  47.2665495  10.6863081  41.5601082  47.7831368
  10.9786056  42.1206139  47.0643734  11.1961702  41.8529643  48.5384528
  11.2874689  23.4292823  48.6723987  11.5933566  22.5690186  48.3849902
  12.0127294  24.0210443  48.4722981   5.5595769  33.7246616  49.1800178
   5.6144378  32.7720452  49.1042655   4.7486971  33.8806055  49.6641476
   6.7086962  37.6526739  40.4178461   6.2706392  36.9362598  39.9584099
   7.4497403  37.8802854  39.8563553   3.4988129  32.3423676  46.9390557
   2.6855994  32.6417846  47.3455749   3.9947123  31.9479365  47.6565039
   5.6496706  42.3381433  48.8724822   5.6072885  42.5642279  47.9433354
   6.5659405  42.1044807  49.0210623   9.0962340  32.8065500  55.7705451
   9.4511728  33.0336973  56.6299917   9.7434471  33.1383877  55.1482706
  14.8260077  35.9283936  46.4754780  14.6877976  36.1185532  45.5475969
  14.4696296  36.6903319  46.9322831   2.9902203  29.9142031  52.5551792
   3.6301583  29.7730790  51.8574755   2.1579734  29.6276545  52.1790394
   3.7662507  39.2144462  48.6686784   4.5603106  38.7194782  48.4669359
   3.0554200  38.6862325  48.3054490   8.5857352  41.5962557  53.0199152
   8.6394374  42.1653494  53.7876868   7.7172133  41.7664442  52.6553189
   1.4655745  31.2980113  54.5023603   2.1378799  31.0897476  53.8536252
   0.6385532  31.1002199  54.0628835  15.7145006  38.0384164  54.0198937
  15.9080896  38.9429974  54.2658212  15.6145625  37.5791583  54.8537522
   7.3681317  27.9242054  56.5189264   6.7209232  28.6232004  56.4253740
   8.1382333  28.3578198  56.8865512  10.7760115  38.1890907  59.5939817
  10.6245621  37.9601458  58.6769901  10.7664795  39.1461508  59.6071162
   7.5445451  35.7622819  54.5786084   8.4737511  35.9133979  54.4055051
   7.1236481  35.8506840  53.7234730   6.3433783  39.7873484  52.3484621
   6.2044869  39.4192268  53.2210560   5.5548379  40.3021123  52.1768579
   6.9381935  44.8882580  43.6910158   7.1133691  44.4170623  44.5055781
   6.2514723  45.5148346  43.9191419   7.8938998  39.1655086  49.7373459
   7.5588831  39.1255856  50.6331109   7.3942944  38.4999802  49.2643869
   1.8683242  34.5722716  55.2626040   1.7303040  33.8402955  55.8637579
   2.7788166  34.4831617  54.9810228  10.8298190  36.5111121  40.0110519
  10.2127361  35.7857949  39.9143572  10.3614679  37.2720481  39.6677593
   4.4965543  34.2842676  54.7509720   5.2065162  33.6435868  54.7096338
   4.4534851  34.5355571  55.6735901  12.4852322  41.2210029  57.6716299
  12.4264868  40.5369249  57.0046882  12.8871840  41.9629019  57.2196925
   3.2094477  31.2707894  56.5705359   2.6731834  30.8198632  57.2226956
   2.6211185  31.4053802  55.8275824   1.5043021  48.0371943  50.4650018
   1.7439619  48.6690467  51.1429037   0.6612217  47.6859983  50.7515377
   2.6196736  30.7296545  39.1331823   1.7426202  30.6085346  38.7694070
   3.0954489  29.9382623  38.8810712  12.4869729  39.1849613  55.9030279
  11.5996508  38.8475535  56.0256678  13.0568280  38.4532644  56.1399044
   6.0170882  43.8451065  52.8691522   5.9441054  44.6506037  53.3810827
   5.5748275  44.0443031  52.0439543   5.8060662  43.0822835  46.3794344
   5.0228184  43.6244516  46.4732568   6.5053407  43.5996815  46.7788585
   9.1157312  28.8917465  49.0228549   9.6126012  28.1387427  48.7029619
   8.3444294  28.9281782  48.4571758  16.9687070  34.5957830  50.6646841
  16.9576946  35.4782546  50.2940774  16.1004449  34.2429381  50.4701378
   8.4769566  43.7437899  55.0249681   9.1897538  44.3785364  54.9525582
   7.9859595  43.8401765  54.2089683  10.1987093  37.6489152  46.5966972
   9.2643372  37.7690615  46.4271677  10.3763761  36.7461619  46.3326982
   5.6992281  31.0334848  48.7500234   5.3290068  30.4805888  49.4381139
   6.1951373  30.4292981  48.1975234  13.5859644  33.4906471  47.1317007
  14.0520096  34.3234463  47.0577309  14.0367145  33.0251453  47.8362265
   3.5281479  41.4932343  55.8455252   4.2290939  42.1268826  55.9984646
   3.0576594  41.8347074  55.0850891  11.6535875  39.8350293  44.1303159
  11.9295719  39.7206887  45.0397033  10.7840374  39.4367778  44.0915332
  11.5576307  25.8587058  51.1707908  10.6439387  26.0891285  51.3390115
  11.9869408  25.9425502  52.0221940  11.3282765  34.0476950  53.6707802
  10.6754216  34.2952858  53.0160255  11.7063145  33.2341089  53.3370279
   8.2889939  44.0836643  47.7735972   8.4712334  43.2658299  48.2363725
   9.1122925  44.3004336  47.3360862   8.6232105  43.0104829  45.0351021
   9.1519871  42.4997283  44.4221183   8.8860324  42.6947359  45.8996554
   7.3770338  34.7896761  60.1573839   6.7010975  34.6890891  60.8276214
   8.1997972  34.6335975  60.6209836   1.9787853  44.0619945  47.7948797
   1.3098228  44.5466073  47.3112837   1.8400722  44.3089166  48.7092175
   6.1193121  46.0963689  54.3931455   6.6711429  46.2595310  55.1580540
   6.4599315  46.6868127  53.7211480   1.0957615  28.4438839  54.9953340
   1.1598941  29.3053670  54.5830737   1.0324735  27.8312840  54.2625698
  10.9703996  40.9224946  60.2480109  11.5143900  41.5354905  59.7535064
  10.3890840  41.4804525  60.7647122   9.2561509  44.0445664  51.3795137
   9.1312648  43.2435404  50.8706083   9.9140600  44.5391858  50.8909107
  11.3196417  41.8454684  53.0074687  10.3726752  41.7260036  52.9353014
  11.6679190  40.9577182  53.0900949   3.6795990  27.7348823  56.8312929
   4.2030392  27.9811120  57.5939238   3.4608324  28.5668858  56.4116066
   8.3242850  41.6407401  49.2079039   8.1767813  40.7124108  49.3886610
   9.1496344  41.6627491  48.7236115   2.1905095  30.2925468  45.0659532
   2.5301167  30.8211389  44.3438140   2.6377215  30.6305874  45.8418098
  11.9276972  42.4635959  50.2943912  12.8523520  42.2578821  50.1568363
  11.7592275  42.2152361  51.2033254   4.8848535  28.6762518  54.5162600
   4.5445356  27.8770332  54.9183280   4.1787542  28.9764229  53.9439433
   5.5365007  25.7611831  52.9689923   6.3591077  25.2872309  52.8468813
   5.7803071  26.5402315  53.4688609   4.1773242  28.7900089  43.2652824
   4.8981604  29.1681342  42.7616541   3.5538546  29.5088966  43.3687802
   8.3204365  29.4945238  44.2011157   8.5367979  30.3769876  43.8999985
   7.8398432  29.1031452  43.4716799   3.0603586  32.4530952  50.7781901
   2.9148167  32.7671255  51.6706183   2.5828790  33.0715852  50.2252800
   4.9199969  29.4433500  50.8262791   4.9061538  28.5474593  50.4895089
   5.6372397  29.4504163  51.4601077   6.7726100  29.8770840  52.8715918
   6.5143877  30.7987910  52.8700249   6.2411140  29.4801274  53.5616382
  11.7172288  42.9821627  45.6506004  11.8909166  42.4168049  44.8979856
  12.2101180  43.7822522  45.4685494   4.3236865  28.3247880  46.0950361
   4.4452776  27.3964526  46.2941249   4.0338907  28.3386566  45.1828676
   7.1928055  26.0102790  49.2317081   7.2149752  26.0742123  48.2769060
   7.6096114  25.1707299  49.4257587  14.6038884  39.7488097  44.2790233
  15.1290208  40.0875370  43.5539553  14.5161236  38.8135112  44.0953367
   6.2658933  43.6622170  56.4080109   6.5746059  43.4171317  57.2802809
   7.0634415  43.8668809  55.9198980   6.2879545  45.8160080  48.6385486
   5.8484535  45.3236459  49.3318343   7.0387662  45.2733048  48.3977561
   3.7353417  41.3598089  50.7107788   3.1133426  40.6968794  50.4110015
   4.4058284  41.3859221  50.0281435   3.8077944  29.8379877  60.3040294
   3.8566100  30.7142000  59.9218063   4.3500459  29.2957270  59.7311937
  14.2932790  40.3821000  59.5841431  13.5028334  40.3645139  59.0445930
  14.0566145  40.9209294  60.3390467  14.4130665  37.2313467  56.8974159
  14.4628670  37.0663474  57.8389682  14.3044588  36.3640726  56.5072040
   3.2966924  39.9102012  44.1866248   3.4455044  40.5937477  43.5332921
   4.1033367  39.8907103  44.7015704  11.7034427  33.2144395  58.2133466
  12.6044290  33.0750860  57.9217464  11.7782402  33.3798850  59.1531643
   6.0377233  30.5911250  57.0586652   5.1680542  30.8844816  56.7869241
   6.2736713  31.1751695  57.7793916  15.9148862  39.6510408  57.1416181
  15.6233670  40.0140389  57.9779642  15.3020993  38.9377417  56.9629513
  14.1636050  34.7743023  55.6096239  14.6390172  34.9670669  54.8015090
  13.2401615  34.8302209  55.3639622   1.0519557  35.9367190  45.1927317
   0.8065599  35.0329520  45.3907527   1.2215471  35.9384341  44.2506795
   8.7416267  26.8090866  54.5752073   9.2598210  27.5451893  54.2498561
   8.3871399  27.1154860  55.4098832   8.9928861  23.2291149  50.0952969
   9.2730615  22.5614338  50.7213396   9.7779468  23.4220245  49.5827633
   6.7962329  42.4050143  41.6577996   6.2236296  43.0240330  41.2048467
   7.3695123  42.9549505  42.1917918  12.8637719  31.6508783  53.8424544
  13.8155142  31.7506881  53.8636768  12.6941170  30.8587052  54.3522629
  10.8852099  28.7364366  54.0283945  10.2902031  29.0169379  53.3330434
  10.6001795  29.2258267  54.8000686  10.0159589  42.6887293  42.7886578
  10.9490262  42.6232855  42.9919453   9.9282802  43.5243560  42.3301110
  15.3425797  34.8714903  52.9566844  15.3102117  33.9330903  53.1426528
  15.9526421  34.9498939  52.2232669   7.1809128  33.7410956  38.9994048
   8.1268232  33.6117164  39.0682466   6.8023373  33.0025618  39.4763476
  15.4920285  31.6625946  53.0025127  14.9759334  30.8784403  52.8155056
  16.3760234  31.3344663  53.1671647  13.1531012  25.4066962  48.9620940
  12.9555833  25.0982050  49.8464272  13.7630718  26.1328601  49.0918870
  21.1602347  35.9330910  52.0972881  21.8905735  35.6716198  52.6580584
  20.5509292  35.1959631  52.1374949  19.2417644  34.0738772  52.6947332
  18.5150807  33.9394737  52.0863824  18.8264931  34.3815601  53.5004050
   7.0647820  37.7928702  60.4594705   7.9850830  37.9707301  60.6534752
   7.0297403  36.8484747  60.3074404   5.3652045  31.6660932  38.9348933
   4.4583500  31.3694045  39.0111647   5.6428026  31.3690750  38.0683220
   6.9814111  26.2097822  45.0893175   6.1714839  25.8644907  45.4648421
   7.6698528  25.9005366  45.6780786   8.9104659  25.2875869  46.7117471
   9.4635698  25.7071322  47.3707494   9.1474745  24.3611617  46.7540427
   4.9337758  31.2762942  62.4920235   4.8334485  32.2257299  62.4232326
   4.7159300  30.9481181  61.6196305   4.1350830  28.5247867  39.0760912
   4.9969994  28.8502766  39.3356730   4.3201174  27.7379363  38.5633978
  12.2883466  27.3976394  46.2196135  11.7082135  28.0561198  45.8374188
  12.0219399  26.5753738  45.8083553  10.7387032  26.7981451  48.4217456
  11.2386811  26.9097986  47.6131775  11.3822640  26.4942504  49.0618264
   4.7969028  34.7060081  61.3085297   4.3136110  35.5060441  61.5149186
   4.8829967  34.7168026  60.3552741   0.7242366  38.5964616  53.3453731
   1.6785619  38.5648558  53.2783662   0.5254889  38.1355240  54.1603956
   1.3141748  37.1665732  55.9124528   2.1334637  37.6609810  55.9359366
   1.5878556  36.2497700  55.8842096  11.0708344  29.5576484  45.2752484
  10.1834199  29.8426135  45.0572678  11.4862333  29.3970247  44.4279761
  14.4222880  29.5823005  48.9906823  15.1983270  30.0719458  49.2631440
  13.6971014  30.0081059  49.4478692  16.8595439  30.2950624  50.0480764
  17.4539930  30.0546360  49.3374072  16.9322022  29.5757755  50.6754300
  10.2151557  39.3221159  39.3700504  10.9187408  39.5271161  39.9858159
   9.4914206  39.8897921  39.6349587  11.0449368  35.0731020  45.4902774
  10.9884569  35.5299571  44.6510406  11.5977710  34.3121705  45.3125617
  14.8554174  30.8620752  46.3152893  14.5991108  30.4617388  47.1461101
  14.2307042  31.5764546  46.1903033  19.1666512  33.6016825  48.8224185
  18.6066070  33.6710014  49.5955747  18.5610015  33.4257810  48.1023681
   2.2361720  45.0353552  50.5742371   2.1194104  45.9798985  50.4721061
   1.4154167  44.7327114  50.9628170  12.1238255  39.7603688  41.4198964
  12.9583859  39.3284886  41.2376439  11.9622598  39.5885702  42.3475858
  11.7784147  36.2635801  42.7855303  11.7232951  36.0980073  41.8443747
  11.1530202  36.9711834  42.9417493   9.0930054  38.5684713  62.1108866
   9.9621214  38.7425365  61.7495501   8.6136806  39.3879130  61.9884595
   5.0880273  25.7643910  42.3640621   5.0758942  26.7085750  42.5208892
   5.9803694  25.5814056  42.0700083   3.2616234  45.6881814  53.7898300
   4.1643481  45.7205424  54.1064794   3.0353605  44.7582265  53.8044635
   5.0169836  44.4412801  50.4508378   4.0665468  44.4414662  50.3372750
   5.3202323  43.6945535  49.9344413   8.9032392  22.3586687  46.6186558
   8.1364788  21.8045174  46.7643241   9.3143097  22.4308556  47.4800710
  20.7522530  50.2773339  51.5154141  21.3900940  50.1580086  50.8117481
  20.6343373  51.2254183  51.5742093  13.4199052  52.0836244  47.4412556
  12.8563917  51.9926181  46.6728844  13.3051447  51.2636148  47.9215049
  18.0432019  51.3835619  57.4101871  18.0320660  50.9888417  56.5382374
  18.2052659  50.6501692  58.0035642  10.9663484  53.5787435  50.2796777
  11.7584776  53.2378260  49.8643076  11.2060134  53.6882410  51.1998930
  18.9998611  55.7507211  42.7527021  18.3486590  56.3361292  42.3661035
  19.7942973  56.2813406  42.8122059  12.9254238  52.8396348  43.1514155
  13.6985114  52.2925336  43.0127031  13.2779637  53.7040598  43.3628617
  14.7639280  54.1672731  56.3581055  14.4729146  55.0718362  56.2427721
  15.3996265  54.2089258  57.0725124  15.6895487  51.5449579  52.9482414
  16.2859059  51.3205602  52.2339377  15.7470459  50.8034325  53.5507862
  14.9816804  50.9017121  42.9856980  14.8653062  50.2262024  43.6538065
  15.0919064  50.4149494  42.1689133  19.7229165  53.8534146  53.3530848
  19.4229889  54.7559185  53.2446656  19.3780225  53.5866329  54.2052001
  13.1741647  50.3047943  49.3867553  12.2492143  50.1724157  49.5945245
  13.4226060  51.0842162  49.8837495  10.5350458  49.9481217  50.2211342
  10.6642839  50.2015696  51.1350754   9.8547909  50.5408925  49.9015997
  14.7049945  60.6178467  46.3201816  14.6273975  61.5686292  46.3990297
  14.1011589  60.2724339  46.9776742  17.1967175  47.7906332  58.9763183
  16.4200509  48.3500252  58.9666048  17.8357738  48.2763115  59.4978053
  15.4513547  50.5991785  58.5381150  16.1928232  51.1376829  58.2615974
  14.7450533  51.2258074  58.6952702  20.9268887  52.7420926  57.1353312
  21.3352243  52.3003336  56.3907944  20.2046148  52.1673553  57.3887504
  17.2799957  47.6793533  54.5086868  18.1261152  48.1032946  54.6521517
  17.2198595  47.0227157  55.2025432  21.2497702  53.3022116  50.8905600
  20.6206564  53.4667831  50.1881668  20.8623364  53.7163726  51.6616564
  20.4299402  45.3397901  56.1668042  20.1860334  46.0939962  55.6302318
  20.7059333  45.7183249  57.0015289  22.3837865  51.8836513  54.8445308
  22.5954760  52.5268273  54.1679689  22.3367613  51.0498830  54.3767238
  16.8025664  53.0396525  48.1555685  17.2664009  53.3184228  47.3660308
  16.5382462  52.1379969  47.9728776  13.6949745  52.5868006  51.0935449
  14.2651102  53.0155274  50.4552933  14.2857856  52.3050591  51.7919634
  14.1874911  47.7531434  59.3396460  13.5573572  48.4347714  59.5731857
  14.0810999  47.6414515  58.3949598   9.4819884  47.4203230  50.2662384
   8.6918938  47.6760758  49.7902495   9.9731131  48.2351567  50.3714425
  23.4983693  54.7608469  53.0167665  24.3201137  54.3588656  52.7350347
  23.4946096  54.6576703  53.9683781  11.4334629  47.7847809  47.2245861
  10.6365792  47.8966503  47.7429357  11.2060221  48.1234461  46.3586751
  17.2640297  54.3092512  55.1728376  17.3284729  54.7712919  56.0086547
  16.5551220  53.6789877  55.3010685   7.7657587  47.6733720  52.6977375
   8.0165625  48.5580730  52.9634951   8.3017135  47.4938322  51.9252467
  16.9788314  55.9760620  45.0407356  16.8433989  56.8212155  45.4692204
  17.5198127  56.1779897  44.2773290  13.4655654  42.0552199  61.7021711
  13.0722599  41.5018398  62.3769355  14.2821794  42.3662778  62.0928229
  10.4317712  53.4936058  45.6135281  10.9442232  54.2879308  45.7640846
  11.0840424  52.7962348  45.5468882  12.2412596  56.6101814  47.6958034
  12.4179225  57.5319779  47.5079018  13.0369430  56.2960233  48.1252414
  16.3823615  43.4710078  59.2941968  17.1233328  44.0717232  59.2146430
  16.6141538  42.7287716  58.7360010  11.5264953  48.6566446  57.5720197
  11.4118468  47.7551703  57.8727296  10.6709471  48.9030143  57.2205014
  18.6056791  56.5984186  59.1707698  18.1620645  55.8120565  58.8528602
  19.2674004  56.7863337  58.5051589  13.3643912  58.1279988  53.6968376
  13.9151337  57.9997051  52.9245370  12.5255388  58.4274877  53.3463269
  20.7038029  56.8786986  57.1989099  20.6856504  57.6995867  56.7069368
  21.6257949  56.7541061  57.4239240  17.1611083  54.3931115  58.0412608
  17.6939420  53.6319404  57.8111916  16.6325164  54.1004767  58.7836762
   8.3966628  51.8224712  46.3894851   9.2341850  52.2321720  46.1728559
   8.5744896  50.8824154  46.3595045  13.2582523  44.1836774  47.9138031
  13.8326275  43.9611956  47.1811224  13.8453506  44.2525469  48.6666632
  19.5784475  60.0494825  41.4763079  18.9046173  60.3526522  42.0848037
  19.9650297  60.8523906  41.1268536  21.5256836  56.8892999  47.7831368
  21.8179810  57.4498056  47.0643734  22.0355456  57.1821560  48.5384528
   8.4192800  49.1615427  47.0605585   8.2217199  48.5684788  46.3356651
   7.8639463  48.8567637  47.7781524  17.5480717  52.9818657  40.4178461
  17.1100147  52.2654516  39.9584099  18.2891158  53.2094772  39.8563553
  16.4890461  57.6673350  48.8724822  16.4466640  57.8934197  47.9433354
  17.4053160  57.4336725  49.0210623  19.9356095  48.1357418  55.7705451
  20.2905482  48.3628891  56.6299917  20.5828226  48.4675795  55.1482706
  13.8295958  45.2433949  52.5551792  14.4695337  45.1022708  51.8574755
  12.9973488  44.9568462  52.1790394  14.6056262  54.5436379  48.6686784
  15.3996860  54.0486700  48.4669359  13.8947954  54.0154243  48.3054490
  19.4251106  56.9254475  53.0199152  19.4788128  57.4945411  53.7876868
  18.5565888  57.0956360  52.6553189  10.9139025  48.6879461  44.7446537
   9.9836613  48.6263917  44.9616499  11.0096497  48.1655414  43.9483178
  10.8324574  45.2134274  47.3324779  11.0931392  46.1279607  47.2233939
  11.6541747  44.7458717  47.4821391  12.3049500  46.6272031  54.5023603
  12.9772553  46.4189393  53.8536252  11.4779286  46.4294117  54.0628835
  18.2075072  43.2533972  56.5189264  17.5602987  43.9523922  56.4253740
  18.9776087  43.6870116  56.8865512  21.6153870  53.5182824  59.5939817
  21.4639376  53.2893376  58.6769901  21.6058549  54.4753426  59.6071162
  18.3839206  51.0914737  54.5786084  19.3131266  51.2425897  54.4055051
  17.9630236  51.1798758  53.7234730  17.1827538  55.1165401  52.3484621
  17.0438623  54.7484186  53.2210560  16.3942134  55.6313041  52.1768579
  17.7775690  60.2174498  43.6910158  17.9527445  59.7462541  44.5055781
  17.0908478  60.8440264  43.9191419  18.7332753  54.4947004  49.7373459
  18.3982585  54.4547774  50.6331109  18.2336699  53.8291720  49.2643869
  12.7076997  49.9014634  55.2626040  12.5696795  49.1694873  55.8637579
  13.6181920  49.8123534  54.9810228  15.3359298  49.6134593  54.7509720
  16.0458916  48.9727786  54.7096338  15.2928606  49.8647488  55.6735901
  23.3246076  56.5501947  57.6716299  23.2658622  55.8661167  57.0046882
  23.7265595  57.2920937  57.2196925  14.0488231  46.5999811  56.5705359
  13.5125589  46.1490550  57.2226956  13.4604940  46.7345720  55.8275824
  12.3436775  63.3663861  50.4650018  12.5833373  63.9982385  51.1429037
  11.5005971  63.0151901  50.7515377  23.3263483  54.5141531  55.9030279
  22.4390262  54.1767452  56.0256678  23.8962035  53.7824562  56.1399044
   4.9792631  50.8465622  49.2273330   5.6663670  50.5327352  48.6394346
   4.8240759  51.7506987  48.9540582   9.7827353  45.7355819  53.6558354
   9.6985541  45.1281489  52.9208764   8.9610059  46.2264837  53.6567850
  16.8564637  59.1742983  52.8691522  16.7834808  59.9797955  53.3810827
  16.4142030  59.3734949  52.0439543  16.6454416  58.4114753  46.3794344
  15.8621938  58.9536433  46.4732568  17.3447162  58.9288733  46.7788585
  19.3163320  59.0729817  55.0249681  20.0291293  59.7077282  54.9525582
  18.8253349  59.1693683  54.2089683  14.3675234  56.8224261  55.8455252
  15.0684693  57.4560744  55.9984646  13.8970349  57.1638992  55.0850891
  19.1283694  59.4128561  47.7735972  19.3106088  58.5950217  48.2363725
  19.9516680  59.6296253  47.3360862  19.4625859  58.3396746  45.0351021
  19.9913626  57.8289201  44.4221183  19.7254079  58.0239277  45.8996554
  18.2164093  50.1188679  60.1573839  17.5404730  50.0182808  60.8276214
  19.0391727  49.9627893  60.6209836   9.9642952  56.3560616  52.7786354
  10.5496389  55.6104303  52.9114258   9.7667790  56.6664572  53.6623018
  12.8181607  59.3911863  47.7948797  12.1491982  59.8757991  47.3112837
  12.6794477  59.6381083  48.7092175   4.5560607  48.9266216  51.4990797
   4.5944706  48.3929806  52.2927916   4.0500900  48.4001421  50.8801775
  16.9586876  61.4255606  54.3931455  17.5105184  61.5887228  55.1580540
  17.2993069  62.0160044  53.7211480  11.9351369  43.7730756  54.9953340
  11.9992695  44.6345587  54.5830737  11.8718489  43.1604758  54.2625698
  11.4103642  45.8453889  58.6426374  12.0375680  45.4630966  59.2563898
  10.5531560  45.6268091  59.0082066  21.8097750  56.2516864  60.2480109
  22.3537654  56.8646822  59.7535064  21.2284595  56.8096442  60.7647122
   8.1869184  47.6530318  44.5744729   8.4822625  46.7440996  44.5211782
   7.2857220  47.6318057  44.2525731  20.0955263  59.3737582  51.3795137
  19.9706403  58.5727322  50.8706083  20.7534354  59.8683775  50.8909107
  11.7163431  45.7286315  50.5572277  10.9950017  46.3422282  50.4179751
  12.5056687  46.2644079  50.4788923  22.1590171  57.1746602  53.0074687
  21.2120507  57.0551953  52.9353014  22.5072945  56.2869100  53.0900949
  14.5189745  43.0640741  56.8312929  15.0424147  43.3103038  57.5939238
  14.3002078  43.8960776  56.4116066   9.9157026  45.3344416  44.6984054
   9.5869732  44.4541795  44.5159160  10.2696397  45.2792084  45.5860443
  19.1636605  56.9699318  49.2079039  19.0161567  56.0416026  49.3886610
  19.9890098  56.9919409  48.7236115  22.7670727  57.7927877  50.2943912
  23.6917274  57.5870738  50.1568363  22.5986030  57.5444278  51.2033254
  15.7242290  44.0054436  54.5162600  15.3839110  43.2062249  54.9183280
  15.0181296  44.3056147  53.9439433  16.3758762  41.0903749  52.9689923
  17.1984831  40.6164227  52.8468813  16.6196825  41.8694232  53.4688609
  17.6119854  45.2062757  52.8715918  17.3537632  46.1279828  52.8700249
  17.0804894  44.8093192  53.5616382  22.5566043  58.3113544  45.6506004
  22.7302920  57.7459967  44.8979856  23.0494934  59.1114439  45.4685494
   8.3743003  50.3228214  53.7169562   7.8296471  51.0988022  53.8489837
   9.2522352  50.6699018  53.5588684   9.1609024  49.4498110  56.6099719
   8.4190760  49.5980745  57.1964350   8.8401769  49.7106375  55.7466469
  17.1052687  58.9914088  56.4080109  17.4139814  58.7463235  57.2802809
  17.9028169  59.1960727  55.9198980  17.1273299  61.1451998  48.6385486
  16.6878289  60.6528376  49.3318343  17.8781416  60.6024965  48.3977561
   9.6065638  57.3363539  48.6410114  10.4323658  57.0367310  48.2608758
   9.2559690  56.5671161  49.0899903  14.5747171  56.6890007  50.7107788
  13.9527181  56.0260712  50.4110015  15.2452038  56.7151139  50.0281435
   7.8074243  55.2549865  49.5999048   6.9706151  54.8272039  49.4183049
   7.7797889  55.4482308  50.5369839  14.6471699  45.1671795  60.3040294
  14.6959854  46.0433918  59.9218063  15.1894213  44.6249188  59.7311937
  14.1360678  55.2393930  44.1866248  14.2848799  55.9229395  43.5332921
  14.9427122  55.2199020  44.7015704  16.8770987  45.9203167  57.0586652
  16.0074297  46.2136733  56.7869241  17.1130468  46.5043612  57.7793916
  11.8913311  51.2659108  45.1927317  11.6459353  50.3621438  45.3907527
  12.0609226  51.2676258  44.2506795  19.5810021  42.1382784  54.5752073
  20.0991965  42.8743811  54.2498561  19.2265154  42.4446777  55.4098832
  17.6356084  57.7342061  41.6577996  17.0630051  58.3532248  41.2048467
  18.2088877  58.2841422  42.1917918  17.9041575  53.1220619  60.4594705
  18.8244584  53.2999218  60.6534752  17.8691158  52.1776665  60.3074404
   7.1223740  48.3159213  49.3847980   6.8026524  47.4624521  49.0922354
   6.5757168  48.5307791  50.1405947  10.9003647  51.0321654  53.1017486
  11.1189657  51.9638762  53.1205520  11.3129421  50.6729629  53.8872290
  15.7731513  46.6054860  62.4920235  15.6728240  47.5549217  62.4232326
  15.5553055  46.2773099  61.6196305   6.9912000  51.9362125  51.3541101
   6.2975471  51.5216077  50.8411056   7.7384991  51.9782661  50.7574520
  15.6362783  50.0351999  61.3085297  15.1529864  50.8352359  61.5149186
  15.7223722  50.0459944  60.3552741   8.9048742  51.8680378  49.2307116
   8.8819430  51.9668066  48.2788999   9.2149379  52.7145529  49.5524282
  11.5636120  53.9256533  53.3453731  12.5179374  53.8940476  53.2783662
  11.3648644  53.4647157  54.1603956  12.1535502  52.4957649  55.9124528
  12.9728391  52.9901728  55.9359366  12.4272310  51.5789618  55.8842096
   9.9186349  59.4676153  50.3623928   9.7840817  58.7076554  49.7961926
   9.5018411  60.1917053  49.8952717  13.0755475  60.3645470  50.5742371
  12.9587859  61.3090902  50.4721061  12.2547921  60.0619032  50.9628170
   7.4070417  46.8295783  56.6116725   8.0529280  46.3194737  57.1003950
   7.1987568  47.5664465  57.1860151  19.9323809  53.8976631  62.1108866
  20.8014968  54.0717283  61.7495501  19.4530560  54.7171048  61.9884595
  15.8563591  59.7704718  50.4508378  14.9059222  59.7706580  50.3372750
  16.1596077  59.0237453  49.9344413  11.7467908  43.9763400  60.7091740
  12.6099369  43.6200205  60.9195064  11.1733318  43.6377295  61.3967144
  24.2592806  67.4128161  47.4412556  23.6957672  67.3218098  46.6728844
  24.1445201  66.5928066  47.9215049  21.8057238  68.9079353  50.2796777
  22.5978530  68.5670178  49.8643076  22.0453889  69.0174328  51.1998930
  29.8392365  71.0799129  42.7527021  29.1880345  71.6653209  42.3661035
  30.6336728  71.6105324  42.8122059  23.7647992  68.1688266  43.1514155
  24.5378868  67.6217253  43.0127031  24.1173391  69.0332515  43.3628617
  25.6033035  69.4964648  56.3581055  25.3122901  70.4010279  56.2427721
  26.2390019  69.5381176  57.0725124  26.5289242  66.8741497  52.9482414
  27.1252814  66.6497519  52.2339377  26.5864213  66.1326242  53.5507862
  31.3167630  68.7689561  43.2896005  30.6813463  68.8424187  44.0016910
  30.9865037  69.3583160  42.6115085  25.8210559  66.2309038  42.9856980
  25.7046817  65.5553942  43.6538065  25.9312819  65.7441412  42.1689133
  24.0135401  65.6339861  49.3867553  23.0885898  65.5016075  49.5945245
  24.2619815  66.4134080  49.8837495  27.7836808  63.1766743  42.6711685
  27.6636433  63.6223793  43.5097165  27.0889396  63.5252060  42.1125223
  21.3744212  65.2773134  50.2211342  21.5036594  65.5307613  51.1350754
  20.6941664  65.8700842  49.9015997  25.5443700  75.9470384  46.3201816
  25.4667729  76.8978209  46.3990297  24.9405343  75.6016257  46.9776742
  33.4821874  63.6488216  43.4992019  34.3939730  63.8815602  43.3239716
  32.9731521  64.2325260  42.9367098  26.2907302  65.9283703  58.5381150
  27.0321986  66.4668747  58.2615974  25.5844287  66.5549992  58.6952702
  27.6419418  68.3688442  48.1555685  28.1057764  68.6476145  47.3660308
  27.3776216  67.4671887  47.9728776  24.5343499  67.9159924  51.0935449
  25.1044856  68.3447192  50.4552933  25.1251611  67.6342508  51.7919634
  26.5788304  64.4911595  44.9645251  27.2812347  64.9432638  45.4319177
  26.2468933  63.8495413  45.5925144  25.0268666  63.0823351  59.3396460
  24.3967326  63.7639632  59.5731857  24.9204753  62.9706433  58.3949598
  20.3213638  62.7495147  50.2662384  19.5312692  63.0052676  49.7902495
  20.8124885  63.5643485  50.3714425  22.2728383  63.1139727  47.2245861
  21.4759547  63.2258421  47.7429357  22.0453976  63.4526379  46.3586751
  28.1034051  69.6384430  55.1728376  28.1678484  70.1004837  56.0086547
  27.3944975  69.0081795  55.3010685  18.6051341  63.0025638  52.6977375
  18.8559379  63.8872648  52.9634951  19.1410889  62.8230239  51.9252467
  27.8182069  71.3052537  45.0407356  27.6827743  72.1504073  45.4692204
  28.3591881  71.5071815  44.2773290  21.2711466  68.8227975  45.6135281
  21.7835987  69.6171226  45.7640846  21.9234179  68.1254266  45.5468882
  23.0806351  71.9393732  47.6958034  23.2572979  72.8611696  47.5079018
  23.8763184  71.6252151  48.1252414  22.3658707  63.9858363  57.5720197
  22.2512222  63.0843621  57.8727296  21.5103225  64.2322060  57.2205014
  24.2037666  73.4571905  53.6968376  24.7545091  73.3288969  52.9245370
  23.3649142  73.7566794  53.3463269  28.0004837  69.7223033  58.0412608
  28.5333174  68.9611321  57.8111916  27.4718918  69.4296685  58.7836762
  19.2360383  67.1516630  46.3894851  20.0735605  67.5613638  46.1728559
  19.4138651  66.2116072  46.3595045  31.1324815  64.8191710  42.0778684
  30.6171438  65.5896315  42.3167072  30.8602123  64.1456846  42.7011746
  36.1059089  67.5724065  44.0131858  35.3288532  67.2335224  43.5687020
  36.7850570  67.5776688  43.3386823  29.3657550  68.8509026  45.5531420
  28.8378912  68.1161785  45.2404657  28.8645053  69.6283702  45.3071388
  24.0976278  59.5128692  47.9138031  24.6720030  59.2903873  47.1811224
  24.6847260  59.5817386  48.6666632  24.4245865  61.5433153  41.9333916
  23.5883177  61.8807839  42.2543191  24.2850634  61.4082133  40.9961053
  26.3998945  56.3869941  46.6413101  25.7463358  56.0718958  46.0169715
  26.3579419  55.7645681  47.3672923  27.5110150  66.6689236  38.5566393
  26.6037212  66.4378489  38.7557542  28.0081182  65.8726855  38.7440374
  30.4178229  75.3786743  41.4763079  29.7439928  75.6818440  42.0848037
  30.8044051  76.1815823  41.1268536  28.6898384  66.7701831  43.0790383
  27.7809603  66.4860864  43.1762852  28.7193467  67.1900909  42.2193690
  33.9217651  70.3808420  46.8481550  33.4679978  69.5399330  46.9046741
  33.2911618  71.0169819  47.1856330  32.3650590  72.2184917  47.7831368
  32.6573565  72.7789974  47.0643734  32.8749211  72.5113478  48.5384528
  19.2586554  64.4907345  47.0605585  19.0610954  63.8976706  46.3356651
  18.7033218  64.1859555  47.7781524  28.3874471  68.3110574  40.4178461
  27.9493901  67.5946433  39.9584099  29.1284912  68.5386689  39.8563553
  25.1775638  63.0007511  46.9390557  24.3643503  63.3001682  47.3455749
  25.6734632  62.6063200  47.6565039  27.3284215  72.9965268  48.8724822
  27.2860394  73.2226114  47.9433354  28.2446914  72.7628643  49.0210623
  24.6689712  60.5725867  52.5551792  25.3089092  60.4314626  51.8574755
  23.8367243  60.2860380  52.1790394  25.4450016  69.8728297  48.6686784
  26.2390615  69.3778617  48.4669359  24.7341709  69.3446160  48.3054490
  30.2644861  72.2546393  53.0199152  30.3181883  72.8237329  53.7876868
  29.3959642  72.4248278  52.6553189  21.7532780  64.0171379  44.7446537
  20.8230368  63.9555834  44.9616499  21.8490252  63.4947332  43.9483178
  21.6718329  60.5426192  47.3324779  21.9325146  61.4571525  47.2233939
  22.4935501  60.0750634  47.4821391  23.1443254  61.9563949  54.5023603
  23.8166308  61.7481311  53.8536252  22.3173041  61.7586035  54.0628835
  28.0221292  70.4457319  52.3484621  27.8832378  70.0776103  53.2210560
  27.2335888  70.9604958  52.1768579  28.6169444  75.5466416  43.6910158
  28.7921200  75.0754459  44.5055781  27.9302232  76.1732182  43.9191419
  29.5726507  69.8238922  49.7373459  29.2376340  69.7839692  50.6331109
  29.0730453  69.1583638  49.2643869  23.5470751  65.2306552  55.2626040
  23.4090549  64.4986791  55.8637579  24.4575675  65.1415452  54.9810228
  32.5085699  67.1694956  40.0110519  31.8914870  66.4441784  39.9143572
  32.0402187  67.9304316  39.6677593  26.1753052  64.9426511  54.7509720
  26.8852671  64.3019703  54.7096338  26.1322360  65.1939406  55.6735901
  23.1830529  78.6955778  50.4650018  23.4227128  79.3274302  51.1429037
  22.3399726  78.3443818  50.7515377  15.8186385  66.1757540  49.2273330
  16.5057425  65.8619270  48.6394346  15.6634514  67.0798905  48.9540582
  20.6221107  61.0647737  53.6558354  20.5379296  60.4573406  52.9208764
  19.8003814  61.5556755  53.6567850  27.6958391  74.5034901  52.8691522
  27.6228563  75.3089872  53.3810827  27.2535784  74.7026867  52.0439543
  30.1557075  74.4021735  55.0249681  30.8685047  75.0369200  54.9525582
  29.6647104  74.4985601  54.2089683  31.8774602  68.3072987  46.5966972
  30.9430881  68.4274450  46.4271677  32.0551270  67.4045454  46.3326982
  25.2068988  72.1516178  55.8455252  25.9078448  72.7852661  55.9984646
  24.7364103  72.4930910  55.0850891  33.3323384  70.4934128  44.1303159
  33.6083228  70.3790723  45.0397033  32.4627883  70.0951613  44.0915332
  29.9677448  74.7420479  47.7735972  30.1499843  73.9242135  48.2363725
  30.7910434  74.9588171  47.3360862  30.3019614  73.6688664  45.0351021
  30.8307380  73.1581119  44.4221183  30.5647833  73.3531194  45.8996554
  20.8036706  71.6852533  52.7786354  21.3890143  70.9396221  52.9114258
  20.6061545  71.9956490  53.6623018  23.6575362  74.7203781  47.7948797
  22.9885737  75.2049908  47.3112837  23.5188231  74.9673001  48.7092175
  15.3954361  64.2558133  51.4990797  15.4338461  63.7221724  52.2927916
  14.8894654  63.7293339  50.8801775  27.7980630  76.7547524  54.3931455
  28.3498938  76.9179146  55.1580540  28.1386824  77.3451962  53.7211480
  22.7745123  59.1022674  54.9953340  22.8386450  59.9637505  54.5830737
  22.7112244  58.4896676  54.2625698  22.2497396  61.1745807  58.6426374
  22.8769435  60.7922884  59.2563898  21.3925315  60.9560008  59.0082066
  19.0262939  62.9822236  44.5744729  19.3216380  62.0732914  44.5211782
  18.1250975  62.9609975  44.2525731  30.9349018  74.7029500  51.3795137
  30.8100157  73.9019240  50.8706083  31.5928109  75.1975693  50.8909107
  22.5557186  61.0578232  50.5572277  21.8343772  61.6714200  50.4179751
  23.3450442  61.5935997  50.4788923  32.9983926  72.5038520  53.0074687
  32.0514261  72.3843871  52.9353014  33.3466699  71.6161018  53.0900949
  20.7550780  60.6636333  44.6984054  20.4263487  59.7833712  44.5159160
  21.1090151  60.6084002  45.5860443  30.0030359  72.2991236  49.2079039
  29.8555322  71.3707943  49.3886610  30.8283853  72.3211327  48.7236115
  23.8692604  60.9509303  45.0659532  24.2088676  61.4795224  44.3438140
  24.3164724  61.2889709  45.8418098  33.6064481  73.1219795  50.2943912
  34.5311029  72.9162656  50.1568363  33.4379784  72.8736196  51.2033254
  25.8560751  59.4483925  43.2652824  26.5769113  59.8265177  42.7616541
  25.2326055  60.1672801  43.3687802  29.9991874  60.1529074  44.2011157
  30.2155488  61.0353712  43.8999985  29.5185941  59.7615287  43.4716799
  24.7391095  63.1114787  50.7781901  24.5935676  63.4255090  51.6706183
  24.2616299  63.7299687  50.2252800  33.3959797  73.6405462  45.6506004
  33.5696675  73.0751885  44.8979856  33.8888689  74.4406357  45.4685494
  19.2136757  65.6520131  53.7169562  18.6690225  66.4279939  53.8489837
  20.0916107  65.9990936  53.5588684  26.0024374  58.9831715  46.0950361
  26.1240285  58.0548361  46.2941249  25.7126416  58.9970401  45.1828676
  34.3834970  72.9572227  42.7502902  35.0785874  73.5778919  42.9690217
  34.7258120  72.1067578  43.0255280  20.0002779  64.7790028  56.6099719
  19.2584515  64.9272663  57.1964350  19.6795523  65.0398293  55.7466469
  36.2826393  70.4071932  44.2790233  36.8077717  70.7459205  43.5539553
  36.1948745  69.4718947  44.0953367  27.9446442  74.3206006  56.4080109
  28.2533568  74.0755153  57.2802809  28.7421924  74.5252644  55.9198980
  27.9667054  76.4743915  48.6385486  27.5272044  75.9820294  49.3318343
  28.7175171  75.9316883  48.3977561  20.4459393  72.6655456  48.6410114
  21.2717413  72.3659228  48.2608758  20.0953445  71.8963079  49.0899903
  25.4140926  72.0181924  50.7107788  24.7920935  71.3552630  50.4110015
  26.0845793  72.0443056  50.0281435  18.6467998  70.5841783  49.5999048
  17.8099906  70.1563957  49.4183049  18.6191643  70.7774226  50.5369839
  24.9754433  70.5685848  44.1866248  25.1242553  71.2521312  43.5332921
  25.7820876  70.5490938  44.7015704  22.7307066  66.5951025  45.1927317
  22.4853108  65.6913355  45.3907527  22.9002980  66.5968176  44.2506795
  22.0002713  62.3279383  42.6913479  21.3071958  62.4023738  42.0353514
  21.7554465  61.5639727  43.2134995  28.4749838  73.0633978  41.6577996
  27.9023805  73.6824165  41.2048467  29.0482632  73.6133340  42.1917918
  31.6947098  73.3471128  42.7886578  32.6277771  73.2816690  42.9919453
  31.6070311  74.1827395  42.3301110  34.3235115  72.6636999  39.7490525
  34.2448746  72.3296862  40.6426283  35.1444781  73.1558767  39.7481998
  28.8596637  64.3994791  38.9994048  29.8055741  64.2700999  39.0682466
  28.4810882  63.6609453  39.4763476  28.7435329  68.4512537  60.4594705
  29.6638339  68.6291136  60.6534752  28.7084912  67.5068583  60.3074404
  17.9617494  63.6451131  49.3847980  17.6420279  62.7916439  49.0922354
  17.4150922  63.8599709  50.1405947  21.7397402  66.3613572  53.1017486
  21.9583412  67.2930680  53.1205520  22.1523176  66.0021546  53.8872290
  17.8305754  67.2654042  51.3541101  17.1369226  66.8507995  50.8411056
  18.5778745  67.3074579  50.7574520  26.4756537  65.3643916  61.3085297
  25.9923619  66.1644277  61.5149186  26.5617476  65.3751861  60.3552741
  19.7442497  67.1972296  49.2307116  19.7213185  67.2959983  48.2788999
  20.0543133  68.0437447  49.5524282  22.4029875  69.2548451  53.3453731
  23.3573128  69.2232393  53.2783662  22.2042398  68.7939075  54.1603956
  22.9929257  67.8249567  55.9124528  23.8122146  68.3193646  55.9359366
  23.2666065  66.9081535  55.8842096  20.7580103  74.7968071  50.3623928
  20.6234571  74.0368471  49.7961926  20.3412166  75.5208970  49.8952717
  31.8939066  69.9804994  39.3700504  32.5974917  70.1854997  39.9858159
  31.1701715  70.5481756  39.6349587  23.9149229  75.6937388  50.5742371
  23.7981613  76.6382820  50.4721061  23.0941676  75.3910949  50.9628170
  33.8025764  70.4187523  41.4198964  34.6371368  69.9868722  41.2376439
  33.6410107  70.2469537  42.3475858  33.4571656  66.9219637  42.7855303
  33.4020460  66.7563908  41.8443747  32.8317711  67.6295670  42.9417493
  18.2464171  62.1587701  56.6116725  18.8923035  61.6486655  57.1003950
  18.0381322  62.8956383  57.1860151  24.9403743  76.3465650  53.7898300
  25.8430990  76.3789260  54.1064794  24.7141114  75.4166100  53.8044635
  26.6957345  75.0996636  50.4508378  25.7452976  75.0998498  50.3372750
  26.9989832  74.3529371  49.9344413  22.5861662  59.3055318  60.7091740
  23.4493124  58.9492123  60.9195064  22.0127073  58.9669213  61.3967144
  42.4310039  80.9357174  51.5154141  43.0688449  80.8163922  50.8117481
  42.3130882  81.8838018  51.5742093  39.2399745  80.8884603  51.4515665
  38.9018257  80.7725667  50.5636200  40.1089513  80.4875768  51.4316671
  35.0986561  82.7420079  47.4412556  34.5351426  82.6510016  46.6728844
  34.9838956  81.9219983  47.9215049  39.7219528  82.0419454  57.4101871
  39.7108169  81.6472253  56.5382374  39.8840168  81.3085527  58.0035642
  32.6450993  84.2371271  50.2796777  33.4372285  83.8962095  49.8643076
  32.8847643  84.3466246  51.1998930  40.6786120  86.4091047  42.7527021
  40.0274099  86.9945127  42.3661035  41.4730482  86.9397242  42.8122059
  34.6041747  83.4980184  43.1514155  35.3772623  82.9509171  43.0127031
  34.9567146  84.3624433  43.3628617  36.4426789  84.8256566  56.3581055
  36.1516655  85.7302197  56.2427721  37.0783774  84.8673094  57.0725124
  37.3682996  82.2033415  52.9482414  37.9646568  81.9789437  52.2339377
  37.4257968  81.4618160  53.5507862  36.9408025  79.6572850  40.7832605
  37.1933545  79.1354371  40.0216068  36.0032584  79.4938995  40.8859289
  41.9851307  78.6608628  48.5907349  42.7714397  78.2428051  48.2397766
  42.2490012  79.5654720  48.7588997  42.1561385  84.0981479  43.2896005
  41.5207218  84.1716105  44.0016910  41.8258791  84.6875077  42.6115085
  47.3859735  78.5983862  49.4940327  48.1184907  78.0283078  49.7278157
  46.6299090  78.2105462  49.9346833  36.6604313  81.5600956  42.9856980
  36.5440571  80.8845859  43.6538065  36.7706573  81.0733330  42.1689133
  39.0035854  81.0211103  46.6903670  38.6394062  80.4941724  47.4016591
  39.8602970  80.6309572  46.5170155  38.6441341  76.0501003  41.6865018
  38.8115744  76.9181239  42.0535489  38.4538510  76.2128284  40.7626307
  41.4016674  84.5117982  53.3530848  41.1017398  85.4143020  53.2446656
  41.0567734  84.2450165  54.2052001  34.8529156  80.9631778  49.3867553
  33.9279652  80.8307993  49.5945245  35.1013569  81.7425998  49.8837495
  38.6230562  78.5058660  42.6711685  38.5030187  78.9515711  43.5097165
  37.9283151  78.8543978  42.1125223  32.2137967  80.6065052  50.2211342
  32.3430348  80.8599531  51.1350754  31.5335418  81.1992760  49.9015997
  36.3837454  91.2762302  46.3201816  36.3061484  92.2270127  46.3990297
  35.7799098  90.9308174  46.9776742  44.3215628  78.9780133  43.4992019
  45.2333484  79.2107520  43.3239716  43.8125275  79.5617178  42.9367098
  37.1301056  81.2575621  58.5381150  37.8715741  81.7960665  58.2615974
  36.4238042  81.8841909  58.6952702  42.6056396  83.4004761  57.1353312
  43.0139752  82.9587172  56.3907944  41.8833657  82.8257389  57.3887504
  38.9587466  78.3377368  54.5086868  39.8048661  78.7616782  54.6521517
  38.8986104  77.6810992  55.2025432  42.9285211  83.9605952  50.8905600
  42.2994073  84.1251666  50.1881668  42.5410873  84.3747561  51.6616564
  46.8074443  84.8960390  48.2449964  46.1225481  85.2759291  47.6946997
  46.8918292  85.5055716  48.9781912  44.0625374  82.5420349  54.8445308
  44.2742269  83.1852109  54.1679689  44.0155122  81.7082665  54.3767238
  38.4813172  83.6980360  48.1555685  38.9451518  83.9768063  47.3660308
  38.2169971  82.7963804  47.9728776  35.3737254  83.2451841  51.0935449
  35.9438611  83.6739110  50.4552933  35.9645365  82.9634426  51.7919634
  37.4182059  79.8203512  44.9645251  38.1206102  80.2724556  45.4319177
  37.0862687  79.1787331  45.5925144  31.1607393  78.0787065  50.2662384
  30.3706446  78.3344593  49.7902495  31.6518640  78.8935403  50.3714425
  45.1771202  85.4192304  53.0167665  45.9988646  85.0172491  52.7350347
  45.1733605  85.3160538  53.9683781  33.1122138  78.4431644  47.2245861
  32.3153301  78.5550338  47.7429357  32.8847730  78.7818296  46.3586751
  38.9427806  84.9676347  55.1728376  39.0072238  85.4296755  56.0086547
  38.2338729  84.3373712  55.3010685  29.4445095  78.3317555  52.6977375
  29.6953134  79.2164565  52.9634951  29.9804644  78.1522157  51.9252467
  53.2677195  81.7631053  49.3652636  52.5140904  81.1938451  49.2096641
  53.4024736  81.7293717  50.3123271  38.6575823  86.6344455  45.0407356
  38.5221498  87.4795991  45.4692204  39.1985636  86.8363733  44.2773290
  32.1105221  84.1519893  45.6135281  32.6229741  84.9463143  45.7640846
  32.7627933  83.4546183  45.5468882  33.9200105  87.2685649  47.6958034
  34.0966734  88.1903614  47.5079018  34.7156939  86.9544068  48.1252414
  33.2052462  79.3150281  57.5720197  33.0905977  78.4135538  57.8727296
  32.3496980  79.5613978  57.2205014  40.2844300  87.2568021  59.1707698
  39.8408154  86.4704400  58.8528602  40.9461513  87.4447172  58.5051589
  35.0431421  88.7863823  53.6968376  35.5938846  88.6580886  52.9245370
  34.2042897  89.0858712  53.3463269  42.3825538  87.5370821  57.1989099
  42.3644013  88.3579702  56.7069368  43.3045458  87.4124897  57.4239240
  38.8398592  85.0514951  58.0412608  39.3726929  84.2903239  57.8111916
  38.3112673  84.7588603  58.7836762  30.0754137  82.4808547  46.3894851
  30.9129359  82.8905556  46.1728559  30.2532405  81.5407989  46.3595045
  41.9718569  80.1483628  42.0778684  41.4565193  80.9188233  42.3167072
  41.6995878  79.4748764  42.7011746  39.5565680  74.9933329  47.1363923
  38.7007277  74.6040179  46.9569561  39.9692632  75.0725289  46.2763708
  46.9452844  82.9015983  44.0131858  46.1682286  82.5627142  43.5687020
  47.6244325  82.9068606  43.3386823  41.7604873  78.0210720  43.9038466
  41.4555008  78.3356869  44.7548609  42.7135315  78.0992140  43.9465799
  40.2051304  84.1800943  45.5531420  39.6772666  83.4453703  45.2404657
  39.7038807  84.9575620  45.3071388  45.1844151  82.3749964  50.6698466
  44.5267825  83.0649225  50.7578595  45.9884550  82.7646396  51.0132452
  34.9370032  74.8420610  47.9138031  35.5113784  74.6195791  47.1811224
  35.5241015  74.9109304  48.6666632  43.9949609  80.7294336  48.7202408
  44.5081491  81.3624328  49.2224117  44.6450833  80.1295532  48.3545768
  35.2639619  76.8725071  41.9333916  34.4276931  77.2099757  42.2543191
  35.1244389  76.7374050  40.9961053  38.3503905  81.9981154  38.5566393
  37.4430966  81.7670407  38.7557542  38.8474937  81.2018773  38.7440374
  41.2571984  90.7078661  41.4763079  40.5833682  91.0110358  42.0848037
  41.6437806  91.5107741  41.1268536  40.4730440  78.2043792  50.9660748
  39.5553002  78.4258739  50.8082436  40.8890584  78.2790103  50.1072455
  41.2565488  79.6035208  46.0963428  42.0037307  80.1156605  45.7870550
  41.5257077  79.2819260  46.9567822  39.5292138  82.0993748  43.0790383
  38.6203357  81.8152781  43.1762852  39.5587222  82.5192827  42.2193690
  44.7611406  85.7100338  46.8481550  44.3073733  84.8691248  46.9046741
  44.1305372  86.3461736  47.1856330  43.2044345  87.5476835  47.7831368
  43.4967319  88.1081892  47.0643734  43.7142965  87.8405396  48.5384528
  30.0980308  79.8199263  47.0605585  29.9004708  79.2268623  46.3356651
  29.5426972  79.5151473  47.7781524  38.0777032  79.7122369  49.1800178
  38.1325642  78.7596205  49.1042655  37.2668234  79.8681808  49.6641476
  39.2268226  83.6402492  40.4178461  38.7887656  82.9238351  39.9584099
  39.9678667  83.8678607  39.8563553  36.0169392  78.3299429  46.9390557
  35.2037258  78.6293599  47.3455749  36.5128386  77.9355118  47.6565039
  38.1677970  88.3257186  48.8724822  38.1254149  88.5518032  47.9433354
  39.0840669  88.0920560  49.0210623  41.6143604  78.7941253  55.7705451
  41.9692991  79.0212726  56.6299917  42.2615735  79.1259630  55.1482706
  47.3441341  81.9159689  46.4754780  47.2059239  82.1061285  45.5475969
  46.9877559  82.6779072  46.9322831  47.3710720  83.9836216  51.4866051
  47.8047227  83.8911505  52.3349105  48.0842301  83.9593717  50.8486067
  36.2843771  85.2020215  48.6686784  37.0784369  84.7070535  48.4669359
  35.5735463  84.6738078  48.3054490  41.1038615  87.5838310  53.0199152
  41.1575637  88.1529247  53.7876868  40.2353397  87.7540195  52.6553189
  32.5926534  79.3463296  44.7446537  31.6624122  79.2847752  44.9616499
  32.6884006  78.8239249  43.9483178  32.5112083  75.8718109  47.3324779
  32.7718901  76.7863443  47.2233939  33.3329256  75.4042552  47.4821391
  48.2326270  84.0259917  54.0198937  48.4262160  84.9305727  54.2658212
  48.1326888  83.5667336  54.8537522  43.2941379  84.1766660  59.5939817
  43.1426885  83.9477211  58.6769901  43.2846058  85.1337261  59.6071162
  40.0626715  81.7498572  54.5786084  40.9918775  81.9009732  54.4055051
  39.6417745  81.8382593  53.7234730  38.8615047  85.7749237  52.3484621
  38.7226132  85.4068021  53.2210560  38.0729643  86.2896876  52.1768579
  39.4563199  90.8758333  43.6910158  39.6314954  90.4046376  44.5055781
  38.7695987  91.5024099  43.9191419  40.4120262  85.1530839  49.7373459
  40.0770094  85.1131609  50.6331109  39.9124208  84.4875555  49.2643869
  34.3864506  80.5598469  55.2626040  34.2484304  79.8278708  55.8637579
  35.2969429  80.4707370  54.9810228  43.3479454  82.4986874  40.0110519
  42.7308624  81.7733702  39.9143572  42.8795942  83.2596234  39.6677593
  37.0146806  80.2718429  54.7509720  37.7246425  79.6311621  54.7096338
  36.9716115  80.5231324  55.6735901  45.0033585  87.2085782  57.6716299
  44.9446131  86.5245002  57.0046882  45.4053104  87.9504772  57.2196925
  34.0224284  94.0247696  50.4650018  34.2620882  94.6566220  51.1429037
  33.1793480  93.6735736  50.7515377  35.1377999  76.7172298  39.1331823
  34.2607466  76.5961099  38.7694070  35.6135752  75.9258376  38.8810712
  45.0050992  85.1725366  55.9030279  44.1177771  84.8351288  56.0256678
  45.5749544  84.4408397  56.1399044  26.6580140  81.5049458  49.2273330
  27.3451179  81.1911188  48.6394346  26.5028268  82.4090822  48.9540582
  31.4614862  76.3939654  53.6558354  31.3773050  75.7865324  52.9208764
  30.6397568  76.8848673  53.6567850  38.5352146  89.8326818  52.8691522
  38.4622317  90.6381790  53.3810827  38.0929539  90.0318784  52.0439543
  38.3241925  89.0698588  46.3794344  37.5409447  89.6120269  46.4732568
  39.0234671  89.5872568  46.7788585  40.9950829  89.7313652  55.0249681
  41.7078802  90.3661117  54.9525582  40.5040858  89.8277518  54.2089683
  42.7168356  83.6364905  46.5966972  41.7824635  83.7566368  46.4271677
  42.8945025  82.7337372  46.3326982  38.2173544  77.0210601  48.7500234
  37.8471332  76.4681641  49.4381139  38.7132637  76.4168734  48.1975234
  46.1040908  79.4782224  47.1317007  46.5701360  80.3110216  47.0577309
  46.5548408  79.0127206  47.8362265  36.0462743  87.4808096  55.8455252
  36.7472202  88.1144579  55.9984646  35.5757858  87.8222827  55.0850891
  44.1717139  85.8226046  44.1303159  44.4476983  85.7082640  45.0397033
  43.3021637  85.4243531  44.0915332  43.8464029  80.0352703  53.6707802
  43.1935479  80.2828611  53.0160255  44.2244409  79.2216842  53.3370279
  40.8071203  90.0712397  47.7735972  40.9893597  89.2534052  48.2363725
  41.6304189  90.2880089  47.3360862  41.1413368  88.9980582  45.0351021
  41.6701135  88.4873036  44.4221183  41.4041588  88.6823112  45.8996554
  31.6430461  87.0144451  52.7786354  32.2283898  86.2688139  52.9114258
  31.4455299  87.3248408  53.6623018  34.4969116  90.0495698  47.7948797
  33.8279491  90.5341826  47.3112837  34.3581986  90.2964919  48.7092175
  26.2348116  79.5850051  51.4990797  26.2732215  79.0513642  52.2927916
  25.7288409  79.0585257  50.8801775  38.6374385  92.0839442  54.3931455
  39.1892693  92.2471063  55.1580540  38.9780578  92.6743880  53.7211480
  43.4885259  86.9100699  60.2480109  44.0325163  87.5230658  59.7535064
  42.9072104  87.4680278  60.7647122  29.8656693  78.3114153  44.5744729
  30.1610134  77.4024832  44.5211782  28.9644729  78.2901893  44.2525731
  41.7742772  90.0321417  51.3795137  41.6493911  89.2311157  50.8706083
  42.4321863  90.5267611  50.8909107  33.3950940  76.3870150  50.5572277
  32.6737526  77.0006118  50.4179751  34.1844196  76.9227915  50.4788923
  43.8377680  87.8330437  53.0074687  42.8908016  87.7135789  52.9353014
  44.1860454  86.9452936  53.0900949  31.5944535  75.9928251  44.6984054
  31.2657241  75.1125630  44.5159160  31.9483906  75.9375920  45.5860443
  40.8424114  87.6283154  49.2079039  40.6949076  86.6999861  49.3886610
  41.6677607  87.6503244  48.7236115  34.7086358  76.2801221  45.0659532
  35.0482431  76.8087142  44.3438140  35.1558478  76.6181627  45.8418098
  44.4458236  88.4511712  50.2943912  45.3704783  88.2454574  50.1568363
  44.2773539  88.2028114  51.2033254  36.6954505  74.7775842  43.2652824
  37.4162868  75.1557095  42.7616541  36.0719809  75.4964719  43.3687802
  35.5784849  78.4406705  50.7781901  35.4329430  78.7547008  51.6706183
  35.1010053  79.0591605  50.2252800  37.4381232  75.4309253  50.8262791
  37.4242801  74.5350346  50.4895089  38.1553660  75.4379916  51.4601077
  44.2353552  88.9697380  45.6506004  44.4090429  88.4043802  44.8979856
  44.7282443  89.7698275  45.4685494  30.0530512  80.9812049  53.7169562
  29.5083980  81.7571857  53.8489837  30.9309861  81.3282853  53.5588684
  36.8418128  74.3123633  46.0950361  36.9634039  73.3840279  46.2941249
  36.5520171  74.3262319  45.1828676  50.0892943  81.7333803  47.2696303
  50.5324089  80.9841128  46.8715427  49.2119453  81.7243939  46.8870035
  45.2228724  88.2864144  42.7502902  45.9179629  88.9070837  42.9690217
  45.5651874  87.4359495  43.0255280  30.8396533  80.1081945  56.6099719
  30.0978269  80.2564581  57.1964350  30.5189278  80.3690211  55.7466469
  47.1220147  85.7363850  44.2790233  47.6471471  86.0751123  43.5539553
  47.0342500  84.8010865  44.0953367  38.7840196  89.6497923  56.4080109
  39.0927323  89.4047070  57.2802809  39.5815678  89.8544562  55.9198980
  38.8060808  91.8035833  48.6385486  38.3665798  91.3112212  49.3318343
  39.5568925  91.2608801  48.3977561  31.2853147  87.9947374  48.6410114
  32.1111167  87.6951146  48.2608758  30.9347199  87.2254996  49.0899903
  36.2534680  87.3473842  50.7107788  35.6314690  86.6844547  50.4110015
  36.9239547  87.3734974  50.0281435  29.4861752  85.9133700  49.5999048
  28.6493660  85.4855875  49.4183049  29.4585398  86.1066144  50.5369839
  46.9311928  83.2189220  56.8974159  46.9809933  83.0539227  57.8389682
  46.8225852  82.3516479  56.5072040  35.8148187  85.8977766  44.1866248
  35.9636308  86.5813230  43.5332921  36.6214631  85.8782856  44.7015704
  49.6325808  83.2039041  49.6618751  50.4672699  83.6428845  49.8256311
  49.7684936  82.7277694  48.8426997  46.6817314  80.7618776  55.6096239
  47.1571435  80.9546422  54.8015090  45.7582879  80.8177962  55.3639622
  33.5700820  81.9242943  45.1927317  33.3246862  81.0205273  45.3907527
  33.7396735  81.9260094  44.2506795  32.8396468  77.6571301  42.6913479
  32.1465713  77.7315656  42.0353514  32.5948220  76.8931644  43.2134995
  39.3143593  88.3925896  41.6577996  38.7417560  89.0116083  41.2048467
  39.8876386  88.9425258  42.1917918  42.5340853  88.6763046  42.7886578
  43.4671526  88.6108608  42.9919453  42.4464065  89.5119313  42.3301110
  45.1628869  87.9928916  39.7490525  45.0842501  87.6588780  40.6426283
  45.9838536  88.4850684  39.7481998  39.6990391  79.7286709  38.9994048
  40.6449496  79.5992917  39.0682466  39.3204636  78.9901371  39.4763476
  53.6783610  81.9206663  52.0972881  54.4086999  81.6591951  52.6580584
  53.0690556  81.1835385  52.1374949  39.5829084  83.7804455  60.4594705
  40.5032093  83.9583054  60.6534752  39.5478667  82.8360500  60.3074404
  37.8833308  77.6536685  38.9348933  36.9764764  77.3569798  39.0111647
  38.1609289  77.3566503  38.0683220  28.8011249  78.9743049  49.3847980
  28.4814033  78.1208357  49.0922354  28.2544677  79.1891627  50.1405947
  32.5791156  81.6905489  53.1017486  32.7977166  82.6222597  53.1205520
  32.9916930  81.3313464  53.8872290  36.6532093  74.5123620  39.0760912
  37.5151257  74.8378519  39.3356730  36.8382437  73.7255116  38.5633978
  28.6699509  82.5945960  51.3541101  27.9762980  82.1799913  50.8411056
  29.4172500  82.6366497  50.7574520  37.3150292  80.6935834  61.3085297
  36.8317373  81.4936194  61.5149186  37.4011231  80.7043779  60.3552741
  30.5836251  82.5264214  49.2307116  30.5606939  82.6251901  48.2788999
  30.8936888  83.3729365  49.5524282  33.2423629  84.5840369  53.3453731
  34.1966883  84.5524311  53.2783662  33.0436153  84.1230993  54.1603956
  33.8323011  83.1541485  55.9124528  34.6515900  83.6485564  55.9359366
  34.1059819  82.2373453  55.8842096  31.5973858  90.1259988  50.3623928
  31.4628326  89.3660389  49.7961926  31.1805920  90.8500888  49.8952717
  42.7332821  85.3096912  39.3700504  43.4368671  85.5146914  39.9858159
  42.0095470  85.8773674  39.6349587  43.5630631  81.0606773  45.4902774
  43.5065833  81.5175325  44.6510406  44.1158974  80.2997458  45.3125617
  51.6847775  79.5892578  48.8224185  51.1247333  79.6585768  49.5955747
  51.0791278  79.4133563  48.1023681  34.7542984  91.0229305  50.5742371
  34.6375368  91.9674738  50.4721061  33.9335430  90.7202867  50.9628170
  44.6419518  85.7479441  41.4198964  45.4765122  85.3160640  41.2376439
  44.4803861  85.5761455  42.3475858  44.2965411  82.2511554  42.7855303
  44.2414214  82.0855826  41.8443747  43.6711466  82.9587587  42.9417493
  29.0857926  77.4879619  56.6116725  29.7316789  76.9778573  57.1003950
  28.8775077  78.2248300  57.1860151  41.6111318  84.5560466  62.1108866
  42.4802477  84.7301118  61.7495501  41.1318069  85.3754883  61.9884595
  37.6061536  71.7519663  42.3640621  37.5940206  72.6961503  42.5208892
  38.4984958  71.5689809  42.0700083  35.7797498  91.6757567  53.7898300
  36.6824745  91.7081177  54.1064794  35.5534868  90.7458018  53.8044635
  37.5351100  90.4288554  50.4508378  36.5846731  90.4290415  50.3372750
  37.8383586  89.6821288  49.9344413  53.2703793  96.2649092  51.5154141
  53.9082203  96.1455839  50.8117481  53.1524636  97.2129936  51.5742093
  50.0793500  96.2176520  51.4515665  49.7412011  96.1017585  50.5636200
  50.9483268  95.8167685  51.4316671  45.9380315  98.0711997  47.4412556
  45.3745181  97.9801934  46.6728844  45.8232710  97.2511901  47.9215049
  50.5613283  97.3711372  57.4101871  50.5501923  96.9764170  56.5382374
  50.7233922  96.6377445  58.0035642  43.4844747  99.5663188  50.2796777
  44.2766039  99.2254013  49.8643076  43.7241398  99.6758163  51.1998930
  51.5179874 101.7382964  42.7527021  50.8667854 102.3237045  42.3661035
  52.3124237 102.2689159  42.8122059  45.4435501  98.8272102  43.1514155
  46.2166377  98.2801089  43.0127031  45.7960900  99.6916351  43.3628617
  47.2820544 100.1548484  56.3581055  46.9910410 101.0594115  56.2427721
  47.9177528 100.1965011  57.0725124  48.2076751  97.5325332  52.9482414
  48.8040323  97.3081355  52.2339377  48.2651722  96.7910078  53.5507862
  47.7801779  94.9864768  40.7832605  48.0327300  94.4646289  40.0216068
  46.8426338  94.8230913  40.8859289  52.8245062  93.9900546  48.5907349
  53.6108151  93.5719969  48.2397766  53.0883766  94.8946638  48.7588997
  52.9955139  99.4273396  43.2896005  52.3600972  99.5008023  44.0016910
  52.6652546 100.0166995  42.6115085  58.2253489  93.9275779  49.4940327
  58.9578661  93.3574996  49.7278157  57.4692845  93.5397380  49.9346833
  47.4998068  96.8892874  42.9856980  47.3834326  96.2137777  43.6538065
  47.6100328  96.4025248  42.1689133  49.8429609  96.3503021  46.6903670
  49.4787816  95.8233642  47.4016591  50.6996725  95.9601490  46.5170155
  55.7478909  87.6397353  53.9534936  55.4162234  88.5092764  53.7296151
  55.1524523  87.3233637  54.6328966  49.4835096  91.3792920  41.6865018
  49.6509498  92.2473157  42.0535489  49.2932265  91.5420202  40.7626307
  52.2410429  99.8409899  53.3530848  51.9411152 100.7434938  53.2446656
  51.8961488  99.5742082  54.2052001  45.6922910  96.2923696  49.3867553
  44.7673407  96.1599910  49.5945245  45.9407324  97.0717915  49.8837495
  55.6407573  92.3592439  51.0328286  54.7324450  92.2907848  50.7387047
  55.5895169  92.8364384  51.8610111  49.4624317  93.8350578  42.6711685
  49.3423942  94.2807629  43.5097165  48.7676905  94.1835896  42.1125223
  43.0531721  95.9356970  50.2211342  43.1824103  96.1891449  51.1350754
  42.3729173  96.5284678  49.9015997  49.7148439  93.7782085  58.9763183
  48.9381773  94.3376005  58.9666048  50.3539002  94.2638868  59.4978053
  57.5069219  90.5608878  52.8106160  56.8643599  90.8541411  52.1645954
  57.0024148  90.4461798  53.6159356  55.1609383  94.3072051  43.4992019
  56.0727239  94.5399438  43.3239716  54.6519030  94.8909095  42.9367098
  47.9694811  96.5867538  58.5381150  48.7109495  97.1252582  58.2615974
  47.2631796  97.2133827  58.6952702  53.4450150  98.7296679  57.1353312
  53.8533507  98.2879089  56.3907944  52.7227412  98.1549306  57.3887504
  49.7981221  93.6669286  54.5086868  50.6442416  94.0908699  54.6521517
  49.7379858  93.0102910  55.2025432  53.7678965  99.2897870  50.8905600
  53.1387828  99.4543584  50.1881668  53.3804627  99.7039479  51.6616564
  57.6468197 100.2252307  48.2449964  56.9619235 100.6051209  47.6946997
  57.7312046 100.8347634  48.9781912  52.9480666  91.3273654  56.1668042
  52.7041598  92.0815715  55.6302318  53.2240596  91.7059002  57.0015289
  54.9019129  97.8712266  54.8445308  55.1136024  98.5144026  54.1679689
  54.8548877  97.0374583  54.3767238  52.5045358  90.4830087  51.7481880
  51.6429837  90.7811341  52.0398617  52.5307792  90.7000486  50.8162912
  49.3206927  99.0272278  48.1555685  49.7845273  99.3059981  47.3660308
  49.0563725  98.1255722  47.9728776  46.2131008  98.5743759  51.0935449
  46.7832365  99.0031028  50.4552933  46.8039120  98.2926344  51.7919634
  48.2575813  95.1495430  44.9645251  48.9599856  95.6016474  45.4319177
  47.9256442  94.5079249  45.5925144  46.7056175  93.7407187  59.3396460
  46.0754835  94.4223467  59.5731857  46.5992262  93.6290268  58.3949598
  42.0001147  93.4078983  50.2662384  41.2100201  93.6636511  49.7902495
  42.4912394  94.2227320  50.3714425  56.0164957 100.7484222  53.0167665
  56.8382400 100.3464409  52.7350347  56.0127359 100.6452456  53.9683781
  43.9515892  93.7723562  47.2245861  43.1547056  93.8842256  47.7429357
  43.7241485  94.1110214  46.3586751  49.7821560 100.2968265  55.1728376
  49.8465993 100.7588672  56.0086547  49.0732484  99.6665630  55.3010685
  40.2838850  93.6609473  52.6977375  40.5346888  94.5456483  52.9634951
  40.8198398  93.4814075  51.9252467  64.1070950  97.0922970  49.3652636
  63.3534658  96.5230368  49.2096641  64.2418491  97.0585635  50.3123271
  49.4969578 101.9636373  45.0407356  49.3615252 102.8087908  45.4692204
  50.0379390 102.1655650  44.2773290  45.9836917  88.0427952  61.7021711
  45.5903863  87.4894151  62.3769355  46.8003058  88.3538531  62.0928229
  42.9498975  99.4811811  45.6135281  43.4623496 100.2755061  45.7640846
  43.6021688  98.7838101  45.5468882  48.9004878  89.4585832  59.2941968
  49.6414592  90.0592985  59.2146430  49.1322801  88.7163469  58.7360010
  44.0446216  94.6442199  57.5720197  43.9299731  93.7427456  57.8727296
  43.1890734  94.8905896  57.2205014  51.1238054 102.5859939  59.1707698
  50.6801908 101.7996318  58.8528602  51.7855268 102.7739090  58.5051589
  53.2219292 102.8662739  57.1989099  53.2037767 103.6871620  56.7069368
  54.1439212 102.7416814  57.4239240  49.6792346 100.3806869  58.0412608
  50.2120683  99.6195157  57.8111916  49.1506427 100.0880520  58.7836762
  52.8462041  85.4866934  53.5706249  52.5026311  86.3768576  53.4945360
  53.2141004  85.2968592  52.7075834  40.9147892  97.8100465  46.3894851
  41.7523114  98.2197473  46.1728559  41.0926160  96.8699907  46.3595045
  52.8112324  95.4775546  42.0778684  52.2958947  96.2480150  42.3167072
  52.5389632  94.8040682  42.7011746  50.3959435  90.3225246  47.1363923
  49.5401031  89.9332097  46.9569561  50.8086387  90.4017207  46.2763708
  51.9258582  87.8571590  51.5355483  51.4223377  87.8201725  50.7223288
  52.2189188  88.7664332  51.5952139  48.1701468  87.9410319  50.5421664
  49.0354464  87.7453128  50.1827554  48.2378976  87.7120671  51.4691021
  57.7846598  98.2307900  44.0131858  57.0076041  97.8919060  43.5687020
  58.4638079  98.2360523  43.3386823  52.5998627  93.3502638  43.9038466
  52.2948763  93.6648787  44.7548609  53.5529069  93.4284058  43.9465799
  51.0445059  99.5092861  45.5531420  50.5166421  98.7745621  45.2404657
  50.5432562 100.2867537  45.3071388  56.0237905  97.7041881  50.6698466
  55.3661579  98.3941143  50.7578595  56.8278304  98.0938313  51.0132452
  45.7763787  90.1712527  47.9138031  46.3507538  89.9487709  47.1811224
  46.3634769  90.2401222  48.6666632  54.8343364  96.0586254  48.7202408
  55.3475246  96.6916246  49.2224117  55.4844588  95.4587450  48.3545768
  46.1033374  92.2016988  41.9333916  45.2670686  92.5391675  42.2543191
  45.9638143  92.0665968  40.9961053  48.0786454  87.0453776  46.6413101
  47.4250867  86.7302793  46.0169715  48.0366928  86.4229517  47.3672923
  49.1897659  97.3273071  38.5566393  48.2824721  97.0962325  38.7557542
  49.6868691  96.5310691  38.7440374  51.3124195  93.5335710  50.9660748
  50.3946756  93.7550657  50.8082436  51.7284338  93.6082020  50.1072455
  52.0959242  94.9327125  46.0963428  52.8431061  95.4448523  45.7870550
  52.3650832  94.6111178  46.9567822  50.3685893  97.4285666  43.0790383
  49.4597112  97.1444699  43.1762852  50.3980976  97.8484745  42.2193690
  55.6005160 101.0392256  46.8481550  55.1467487 100.1983165  46.9046741
  54.9699127 101.6753654  47.1856330  54.5438080  91.9684242  48.0782218
  53.8060836  91.4561628  48.4092460  54.7964853  91.5284623  47.2665495
  54.0438099 102.8768752  47.7831368  54.3361074 103.4373809  47.0643734
  54.5536720 103.1697313  48.5384528  54.6449707  84.7460494  48.6723987
  54.9508584  83.8857857  48.3849902  55.3702312  85.3378114  48.4722981
  40.9374063  95.1491180  47.0605585  40.7398463  94.5560541  46.3356651
  40.3820727  94.8443390  47.7781524  48.9170787  95.0414287  49.1800178
  48.9719396  94.0888123  49.1042655  48.1061989  95.1973726  49.6641476
  50.0661980  98.9694410  40.4178461  49.6281410  98.2530269  39.9584099
  50.8072421  99.1970525  39.8563553  46.8563147  93.6591346  46.9390557
  46.0431012  93.9585517  47.3455749  47.3522141  93.2647035  47.6565039
  52.4537358  94.1233171  55.7705451  52.8086746  94.3504644  56.6299917
  53.1009489  94.4551548  55.1482706  58.1835095  97.2451607  46.4754780
  58.0452994  97.4353203  45.5475969  57.8271314  98.0070990  46.9322831
  46.3477221  91.2309702  52.5551792  46.9876601  91.0898461  51.8574755
  45.5154752  90.9444215  52.1790394  58.2104475  99.3128134  51.4866051
  58.6440981  99.2203423  52.3349105  58.9236055  99.2885634  50.8486067
  47.1237525 100.5312132  48.6686784  47.9178124 100.0362453  48.4669359
  46.4129218 100.0029996  48.3054490  51.9432370 102.9130228  53.0199152
  51.9969392 103.4821164  53.7876868  51.0747151 103.0832113  52.6553189
  43.4320289  94.6755214  44.7446537  42.5017877  94.6139670  44.9616499
  43.5277761  94.1531167  43.9483178  43.3505838  91.2010027  47.3324779
  43.6112655  92.1155360  47.2233939  44.1723010  90.7334470  47.4821391
  44.8230763  92.6147784  54.5023603  45.4953816  92.4065146  53.8536252
  43.9960550  92.4169870  54.0628835  59.0720024  99.3551834  54.0198937
  59.2655914 100.2597645  54.2658212  58.9720643  98.8959254  54.8537522
  50.7256335  89.2409725  56.5189264  50.0784250  89.9399675  56.4253740
  51.4957350  89.6745869  56.8865512  54.1335133  99.5058577  59.5939817
  53.9820639  99.2769129  58.6769901  54.1239812 100.4629179  59.6071162
  50.9020469  97.0790490  54.5786084  51.8312529  97.2301650  54.4055051
  50.4811499  97.1674511  53.7234730  49.7008801 101.1041154  52.3484621
  49.5619887 100.7359939  53.2210560  48.9123397 101.6188794  52.1768579
  51.2514016 100.4822757  49.7373459  50.9163849 100.4423527  50.6331109
  50.7517962  99.8167473  49.2643869  45.2258260  95.8890387  55.2626040
  45.0878058  95.1570626  55.8637579  46.1363184  95.7999287  54.9810228
  54.1873208  97.8278791  40.0110519  53.5702379  97.1025620  39.9143572
  53.7189696  98.5888152  39.6677593  47.8540561  95.6010346  54.7509720
  48.5640180  94.9603539  54.7096338  47.8109869  95.8523241  55.6735901
  55.8427340 102.5377700  57.6716299  55.7839886 101.8536920  57.0046882
  56.2446858 103.2796690  57.2196925  46.5669495  92.5875564  56.5705359
  46.0306852  92.1366303  57.2226956  45.9786203  92.7221473  55.8275824
  45.9771754  92.0464216  39.1331823  45.1001220  91.9253017  38.7694070
  46.4529507  91.2550294  38.8810712  55.8444747 100.5017284  55.9030279
  54.9571526 100.1643206  56.0256678  56.4143298  99.7700315  56.1399044
  37.4973894  96.8341375  49.2273330  38.1844934  96.5203105  48.6394346
  37.3422023  97.7382740  48.9540582  42.3008616  91.7231572  53.6558354
  42.2166805  91.1157242  52.9208764  41.4791323  92.2140590  53.6567850
  52.4732330  90.2085136  49.0228549  52.9701030  89.4555098  48.7029619
  51.7019312  90.2449452  48.4571758  60.3262087  95.9125501  50.6646841
  60.3151964  96.7950217  50.2940774  59.4579467  95.5597052  50.4701378
  53.5562111  98.9656823  46.5966972  52.6218389  99.0858285  46.4271677
  53.7338779  98.0629290  46.3326982  49.0567299  92.3502519  48.7500234
  48.6865086  91.7973559  49.4381139  49.5526391  91.7460652  48.1975234
  56.9434662  94.8074142  47.1317007  57.4095114  95.6402134  47.0577309
  57.3942163  94.3419124  47.8362265  55.0110893 101.1517963  44.1303159
  55.2870737 101.0374558  45.0397033  54.1415392 100.7535448  44.0915332
  54.9151325  87.1754729  51.1707908  54.0014405  87.4058956  51.3390115
  55.3444426  87.2593173  52.0221940  54.6857783  95.3644621  53.6707802
  54.0329234  95.6120528  53.0160255  55.0638163  94.5508759  53.3370279
  50.7345356  96.1064432  60.1573839  50.0585993  96.0058561  60.8276214
  51.5572990  95.9503646  60.6209836  37.0741870  94.9141969  51.4990797
  37.1125970  94.3805560  52.2927916  36.5682163  94.3877174  50.8801775
  44.4532632  89.7606509  54.9953340  44.5173959  90.6221340  54.5830737
  44.3899753  89.1480511  54.2625698  43.9284905  91.8329642  58.6426374
  44.5556944  91.4506719  59.2563898  43.0712824  91.6143844  59.0082066
  54.3279014 102.2392617  60.2480109  54.8718918 102.8522575  59.7535064
  53.7465858 102.7972195  60.7647122  40.7050448  93.6406071  44.5744729
  41.0003889  92.7316749  44.5211782  39.8038484  93.6193810  44.2525731
  44.2344695  91.7162068  50.5572277  43.5131281  92.3298035  50.4179751
  45.0237951  92.2519832  50.4788923  54.6771435 103.1622355  53.0074687
  53.7301770 103.0427706  52.9353014  55.0254208 102.2744853  53.0900949
  47.0371008  89.0516494  56.8312929  47.5605410  89.2978791  57.5939238
  46.8183342  89.8836529  56.4116066  42.4338289  91.3220169  44.6984054
  42.1050996  90.4417548  44.5159160  42.7877660  91.2667837  45.5860443
  51.6817868 102.9575071  49.2079039  51.5342831 102.0291779  49.3886610
  52.5071362 102.9795162  48.7236115  45.5480113  91.6093138  45.0659532
  45.8876185  92.1379060  44.3438140  45.9952233  91.9473545  45.8418098
  48.2423553  89.9930189  54.5162600  47.9020374  89.1938002  54.9183280
  47.5362560  90.2931900  53.9439433  48.8940025  87.0779502  52.9689923
  49.7166094  86.6039980  52.8468813  49.1378089  87.8569985  53.4688609
  47.5348260  90.1067760  43.2652824  48.2556622  90.4849013  42.7616541
  46.9113564  90.8256637  43.3687802  51.6779383  90.8112909  44.2011157
  51.8942997  91.6937547  43.8999985  51.1973450  90.4199122  43.4716799
  46.4178604  93.7698622  50.7781901  46.2723185  94.0838925  51.6706183
  45.9403808  94.3883523  50.2252800  48.2774987  90.7601170  50.8262791
  48.2636556  89.8642264  50.4895089  48.9947415  90.7671834  51.4601077
  50.1301118  91.1938510  52.8715918  49.8718895  92.1155581  52.8700249
  49.5986158  90.7968945  53.5616382  55.0747306 104.2989298  45.6506004
  55.2484184 103.7335720  44.8979856  55.5676198 105.0990192  45.4685494
  40.8924266  96.3103967  53.7169562  40.3477734  97.0863775  53.8489837
  41.7703616  96.6574771  53.5588684  47.6811883  89.6415550  46.0950361
  47.8027794  88.7132197  46.2941249  47.3913925  89.6554236  45.1828676
  50.5503073  87.3270461  49.2317081  50.5724770  87.3909794  48.2769060
  50.9671132  86.4874970  49.4257587  60.9286697  97.0625720  47.2696303
  61.3717843  96.3133046  46.8715427  60.0513208  97.0535857  46.8870035
  56.0622479 103.6156062  42.7502902  56.7573383 104.2362755  42.9690217
  56.4045629 102.7651413  43.0255280  41.6790288  95.4373863  56.6099719
  40.9372024  95.5856498  57.1964350  41.3583032  95.6982128  55.7466469
  57.9613902 101.0655767  44.2790233  58.4865226 101.4043040  43.5539553
  57.8736254 100.1302783  44.0953367  47.1652962  91.1547548  60.3040294
  47.2141118  92.0309671  59.9218063  47.7075476  90.6124941  59.7311937
  57.6507808 101.6988671  59.5841431  56.8603352 101.6812810  59.0445930
  57.4141163 102.2376965  60.3390467  57.7705683  98.5481137  56.8974159
  57.8203688  98.3831145  57.8389682  57.6619606  97.6808397  56.5072040
  46.6541942 101.2269683  44.1866248  46.8030062 101.9105148  43.5332921
  47.4608385 101.2074773  44.7015704  55.0609445  94.5312066  58.2133466
  55.9619308  94.3918530  57.9217464  55.1357420  94.6966520  59.1531643
  49.3952251  91.9078920  57.0586652  48.5255560  92.2012486  56.7869241
  49.6311731  92.4919365  57.7793916  59.2723880 100.9678079  57.1416181
  58.9808688 101.3308060  57.9779642  58.6596011 100.2545087  56.9629513
  60.4719562  98.5330959  49.6618751  61.3066454  98.9720763  49.8256311
  60.6078691  98.0569612  48.8426997  57.5211068  96.0910694  55.6096239
  57.9965190  96.2838340  54.8015090  56.5976633  96.1469879  55.3639622
  44.4094575  97.2534861  45.1927317  44.1640617  96.3497191  45.3907527
  44.5790489  97.2552011  44.2506795  52.0991285  88.1258537  54.5752073
  52.6173228  88.8619564  54.2498561  51.7446417  88.4322530  55.4098832
  43.6790222  92.9863218  42.6913479  42.9859467  93.0607573  42.0353514
  43.4341974  92.2223562  43.2134995  52.3503879  84.5458820  50.0952969
  52.6305632  83.8782009  50.7213396  53.1354486  84.7387915  49.5827633
  56.2212737  92.9676454  53.8424544  57.1730160  93.0674551  53.8636768
  56.0516187  92.1754722  54.3522629  54.2427117  90.0532037  54.0283945
  53.6477049  90.3337050  53.3330434  53.9576813  90.5425938  54.8000686
  56.0022624 103.3220834  39.7490525  55.9236255 102.9880698  40.6426283
  56.8232290 103.8142602  39.7481998  58.7000815  96.1882573  52.9566844
  58.6677135  95.2498574  53.1426528  59.3101438  96.2666610  52.2232669
  50.5384146  95.0578626  38.9994048  51.4843250  94.9284834  39.0682466
  50.1598391  94.3193288  39.4763476  58.8495303  92.9793617  53.0025127
  58.3334352  92.1952073  52.8155056  59.7335252  92.6512333  53.1671647
  56.5106030  86.7234632  48.9620940  56.3130851  86.4149721  49.8464272
  57.1205736  87.4496271  49.0918870  64.5177365  97.2498580  52.0972881
  65.2480753  96.9883868  52.6580584  63.9084310  96.5127302  52.1374949
  62.5992662  95.3906443  52.6947332  61.8725825  95.2562408  52.0863824
  62.1839949  95.6983271  53.5004050  50.4222838  99.1096373  60.4594705
  51.3425848  99.2874972  60.6534752  50.3872421  98.1652418  60.3074404
  48.7227063  92.9828603  38.9348933  47.8158518  92.6861715  39.0111647
  49.0003044  92.6858421  38.0683220  39.6405003  94.3034966  49.3847980
  39.3207788  93.4500274  49.0922354  39.0938431  94.5183544  50.1405947
  43.4184911  97.0197407  53.1017486  43.6370921  97.9514515  53.1205520
  43.8310685  96.6605382  53.8872290  50.3389129  87.5265492  45.0893175
  49.5289857  87.1812577  45.4648421  51.0273546  87.2173036  45.6780786
  52.2679677  86.6043539  46.7117471  52.8210715  87.0238993  47.3707494
  52.5049763  85.6779287  46.7540427  48.2912776  92.5930613  62.4920235
  48.1909503  93.5424970  62.4232326  48.0734318  92.2648852  61.6196305
  47.4925847  89.8415538  39.0760912  48.3545011  90.1670436  39.3356730
  47.6776192  89.0547034  38.5633978  39.5093263  97.9237878  51.3541101
  38.8156735  97.5091830  50.8411056  40.2566254  97.9658414  50.7574520
  55.6458484  88.7144064  46.2196135  55.0657153  89.3728868  45.8374188
  55.3794417  87.8921409  45.8083553  54.0962050  88.1149122  48.4217456
  54.5961829  88.2265657  47.6131775  54.7397658  87.8110175  49.0618264
  48.1544046  96.0227752  61.3085297  47.6711128  96.8228112  61.5149186
  48.2404985  96.0335697  60.3552741  41.4230006  97.8556131  49.2307116
  41.4000694  97.9543819  48.2788999  41.7330642  98.7021282  49.5524282
  44.0817384  99.9132286  53.3453731  45.0360637  99.8816229  53.2783662
  43.8829907  99.4522910  54.1603956  44.6716766  98.4833403  55.9124528
  45.4909655  98.9777481  55.9359366  44.9453573  97.5665371  55.8842096
  54.4283362  90.8744155  45.2752484  53.5409217  91.1593805  45.0572678
  54.8437351  90.7137918  44.4279761  57.7797898  90.8990676  48.9906823
  58.5558288  91.3887128  49.2631440  57.0546032  91.3248730  49.4478692
  60.2170457  91.6118295  50.0480764  60.8114948  91.3714031  49.3374072
  60.2897040  90.8925426  50.6754300  53.5726575 100.6388829  39.3700504
  54.2762426 100.8438832  39.9858159  52.8489224 101.2065591  39.6349587
  54.4024386  96.3898691  45.4902774  54.3459587  96.8467242  44.6510406
  54.9552728  95.6289375  45.3125617  58.2129192  92.1788423  46.3152893
  57.9566126  91.7785058  47.1461101  57.5882060  92.8932217  46.1903033
  62.5241529  94.9184496  48.8224185  61.9641087  94.9877685  49.5955747
  61.9185033  94.7425480  48.1023681  55.4813273 101.0771359  41.4198964
  56.3158877 100.6452557  41.2376439  55.3197616 100.9053372  42.3475858
  55.1359165  97.5803472  42.7855303  55.0807969  97.4147743  41.8443747
  54.5105220  98.2879505  42.9417493  39.9251680  92.8171536  56.6116725
  40.5710544  92.3070490  57.1003950  39.7168831  93.5540218  57.1860151
  52.4505072  99.8852384  62.1108866  53.3196232 100.0593036  61.7495501
  51.9711824 100.7046801  61.9884595  48.4455290  87.0811581  42.3640621
  48.4333960  88.0253421  42.5208892  49.3378712  86.8981726  42.0700083
  52.2607410  83.6754358  46.6186558  51.4939806  83.1212844  46.7643241
  52.6718115  83.7476226  47.4800710  44.2649171  89.9639153  60.7091740
  45.1280633  89.6075958  60.9195064  43.6914582  89.6253048  61.3967144
  66.5872664 102.9689271  53.9534936  66.2555989 103.8384682  53.7296151
  65.9918277 102.6525555  54.6328966  66.4801327 107.6884357  51.0328286
  65.5718205 107.6199766  50.7387047  66.4288923 108.1656302  51.8610111
  68.3462974 105.8900796  52.8106160  67.7037354 106.1833329  52.1645954
  67.8417902 105.7753716  53.6159356  63.7874420 106.6565572  56.1668042
  63.5435352 107.4107632  55.6302318  64.0634351 107.0350919  57.0015289
  63.3439112 105.8122005  51.7481880  62.4823591 106.1103258  52.0398617
  63.3701547 106.0292404  50.8162912  56.8230672 103.3719870  61.7021711
  56.4297617 102.8186069  62.3769355  57.6396812 103.6830449  62.0928229
  59.7398633 104.7877749  59.2941968  60.4808346 105.3884902  59.2146430
  59.9716556 104.0455387  58.7360010  63.6855796 100.8158852  53.5706249
  63.3420065 101.7060494  53.4945360  64.0534758 100.6260510  52.7075834
  61.2353189 105.6517164  47.1363923  60.3794786 105.2624014  46.9569561
  61.6480141 105.7309125  46.2763708  62.7652336 103.1863507  51.5355483
  62.2617132 103.1493642  50.7223288  63.0582943 104.0956250  51.5952139
  59.0095222 103.2702237  50.5421664  59.8748219 103.0745046  50.1827554
  59.0772731 103.0412589  51.4691021  56.6157541 105.5004445  47.9138031
  57.1901293 105.2779626  47.1811224  57.2028524 105.5693139  48.6666632
  58.9180209 102.3745694  46.6413101  58.2644621 102.0594711  46.0169715
  58.8760683 101.7521434  47.3672923  65.3831834 107.2976159  48.0782218
  64.6454591 106.7853546  48.4092460  65.6358608 106.8576541  47.2665495
  65.4843461 100.0752411  48.6723987  65.7902338  99.2149775  48.3849902
  66.2096066 100.6670032  48.4722981  61.5650090 104.5701643  56.5189264
  60.9178005 105.2691592  56.4253740  62.3351105 105.0037787  56.8865512
  63.3126085 105.5377053  49.0228549  63.8094784 104.7847016  48.7029619
  62.5413066 105.5741370  48.4571758  57.8764763 104.3808412  56.8312929
  58.3999165 104.6270708  57.5939238  57.6577096 105.2128447  56.4116066
  59.0817308 105.3222107  54.5162600  58.7414128 104.5229920  54.9183280
  58.3756314 105.6223818  53.9439433  59.7333780 102.4071419  52.9689923
  60.5559849 101.9331897  52.8468813  59.9771843 103.1861903  53.4688609
  62.5173137 106.1404827  44.2011157  62.7336751 107.0229465  43.8999985
  62.0367204 105.7491040  43.4716799  59.1168741 106.0893088  50.8262791
  59.1030310 105.1934181  50.4895089  59.8341169 106.0963752  51.4601077
  58.5205637 104.9707468  46.0950361  58.6421548 104.0424114  46.2941249
  58.2307680 104.9846154  45.1828676  61.3896828 102.6562379  49.2317081
  61.4118524 102.7201712  48.2769060  61.8064887 101.8166887  49.4257587
  62.9385039 103.4550455  54.5752073  63.4566983 104.1911482  54.2498561
  62.5840172 103.7614448  55.4098832  63.1897633  99.8750737  50.0952969
  63.4699387  99.2073926  50.7213396  63.9748240 100.0679833  49.5827633
  65.0820871 105.3823955  54.0283945  64.4870803 105.6628967  53.3330434
  64.7970568 105.8717856  54.8000686  67.3499785 102.0526550  48.9620940
  67.1524606 101.7441638  49.8464272  67.9599490 102.7788189  49.0918870
  61.1782883 102.8557410  45.0893175  60.3683611 102.5104495  45.4648421
  61.8667300 102.5464954  45.6780786  63.1073431 101.9335457  46.7117471
  63.6604470 102.3530910  47.3707494  63.3443518 101.0071205  46.7540427
  58.3319602 105.1707456  39.0760912  59.1938766 105.4962354  39.3356730
  58.5169946 104.3838952  38.5633978  66.4852238 104.0435982  46.2196135
  65.9050908 104.7020786  45.8374188  66.2188171 103.2213327  45.8083553
  64.9355805 103.4441040  48.4217456  65.4355583 103.5557574  47.6131775
  65.5791413 103.1402093  49.0618264  65.2677116 106.2036073  45.2752484
  64.3802971 106.4885723  45.0572678  65.6831106 106.0429836  44.4279761
  68.6191653 106.2282593  48.9906823  69.3952043 106.7179046  49.2631440
  67.8939787 106.6540648  49.4478692  59.2849045 102.4103499  42.3640621
  59.2727715 103.3545339  42.5208892  60.1772467 102.2273644  42.0700083
  63.1001164  99.0046275  46.6186558  62.3333560  98.4504762  46.7643241
  63.5111869  99.0768144  47.4800710   9.9128777  11.9543544  38.2399447
  10.5507187  11.8350291  37.5362787   9.7949620  12.9024388  38.2987399
   6.7218483  11.9070972  38.1760972   6.3836995  11.7912037  37.2881507
   7.5908251  11.5062137  38.1561978   7.2038266  13.0605824  44.1347177
   7.1926907  12.6658622  43.2627681   7.3658905  12.3271896  44.7280949
   8.1604857  17.4277416  29.4772328   7.5092837  18.0131497  29.0906341
   8.9549220  17.9583611  29.5367365   2.0860485  14.5166553  29.8759462
   2.8591361  13.9695540  29.7372338   2.4385883  15.3810803  30.0873923
   3.9245527  15.8442936  43.0826361   3.6335393  16.7488567  42.9673028
   4.5602512  15.8859463  43.7970431   4.8501734  13.2219784  39.6727721
   5.4465306  12.9975807  38.9584684   4.9076706  12.4804530  40.2753169
   9.4670045   9.6794998  35.3152655  10.2533134   9.2614421  34.9643072
   9.7308750  10.5841090  35.4834304   9.6380123  15.1167848  30.0141312
   9.0025956  15.1902475  30.7262217   9.3077529  15.7061447  29.3360391
  14.8678472   9.6170231  36.2185634  15.6003644   9.0469448  36.4523463
  14.1117828   9.2291832  36.6592139   6.4854592  12.0397473  33.4148976
   6.1212799  11.5128094  34.1261898   7.3421708  11.6495942  33.2415462
   8.8835412  15.5304351  40.0776155   8.5836135  16.4329390  39.9691962
   8.5386472  15.2636534  40.9297308  12.2832556   8.0486891  37.7573592
  11.3749433   7.9802300  37.4632353  12.2320152   8.5258836  38.5855418
   3.8656192  22.2948672  33.0447123   3.7880222  23.2456497  33.1235603
   3.2617836  21.9494544  33.7022049  14.1494202   6.2503330  39.5351466
  13.5068583   6.5435863  38.8891261  13.6449131   6.1356250  40.3404663
  11.8034366   9.9966503  30.2237326  12.7152222  10.2293890  30.0485023
  11.2944013  10.5803547  29.6612404   4.6119794  12.2761990  45.2626457
   5.3534478  12.8147034  44.9861280   3.9056780  12.9028279  45.4198008
  10.0875134  14.4191131  43.8598618  10.4958490  13.9773541  43.1153250
   9.3652395  13.8443758  44.1132811  10.4103948  14.9792321  37.6150907
   9.7812811  15.1438036  36.9126975  10.0229610  15.3933931  38.3861871
  14.2893180  15.9146759  34.9695271  13.6044218  16.2945661  34.4192304
  14.3737030  16.5242086  35.7027219  11.5444112  13.5606718  41.5690614
  11.7561007  14.2038478  40.8924995  11.4973860  12.7269035  41.1012544
   5.9631910  14.7166729  34.8800992   6.4270256  14.9954432  34.0905615
   5.6988708  13.8150174  34.6974083   2.8555991  14.2638211  37.8180755
   3.4257348  14.6925479  37.1798240   3.4464103  13.9820796  38.5164941
  12.6589940  16.4378674  39.7412972  13.4807384  16.0358861  39.4595653
  12.6552343  16.3346908  40.6929087   6.4246543  15.9862717  41.8973682
   6.4890976  16.4483124  42.7331854   5.7157467  15.3560082  42.0255992
  20.7495933  12.7817422  36.0897943  19.9959641  12.2124820  35.9341948
  20.8843474  12.7480087  37.0368578   6.1394561  17.6530824  31.7652662
   6.0040236  18.4982360  32.1937510   6.6804373  17.8550102  31.0018596
   1.4018843  18.2872019  34.4203341   1.5785471  19.2089983  34.2324325
   2.1975677  17.9730438  34.8497721   7.7663037  18.2754391  45.8953005
   7.3226892  17.4890770  45.5773909   8.4280251  18.4633541  45.2296895
   2.5250159  19.8050193  40.4213683   3.0757584  19.6767256  39.6490677
   1.6861634  20.1045082  40.0708576   9.8644275  18.5557191  43.9234406
   9.8462751  19.3766072  43.4314675  10.7864195  18.4311266  44.1484547
   6.3217330  16.0701320  44.7657914   6.8545666  15.3089609  44.5357222
   5.7931411  15.7774972  45.5082069   9.4537307  11.1669997  28.8023991
   8.9383931  11.9374602  29.0412378   9.1814616  10.4935134  29.4257052
  14.4271581  13.9202352  30.7377165  13.6501024  13.5813512  30.2932327
  15.1063062  13.9254975  30.0632130   9.2423610   9.0397090  30.6283772
   8.9373746   9.3543239  31.4793915  10.1954053   9.1178509  30.6711105
   7.6870042  15.1987313  32.2776726   7.1591404  14.4640072  31.9649964
   7.1857545  15.9761989  32.0316695  12.6662888  13.3936333  37.3943773
  12.0086563  14.0835595  37.4823901  13.4703288  13.7832765  37.7377759
  11.4768347  11.7480706  35.4447714  11.9900229  12.3810698  35.9469424
  12.1269571  11.1481902  35.0791074   8.7390721  21.7265030  28.2008385
   8.0652420  22.0296727  28.8093343   9.1256543  22.5294111  27.8513842
   8.7384226  10.6221577  32.8208735   9.4856045  11.1342975  32.5115857
   9.0075815  10.3005630  33.6813129   7.0110876  13.1180118  29.8035689
   6.1022095  12.8339151  29.9008159   7.0405960  13.5379197  28.9438996
  12.2430143  16.7286708  33.5726857  11.7892470  15.8877617  33.6292047
  11.6124110  17.3648106  33.9101637  10.6863083  18.5663204  34.5076675
  10.9786057  19.1268261  33.7889041  11.1961703  18.8591765  35.2629834
   5.6496708  19.3443555  35.5970128   5.6072887  19.5704402  34.6678660
   6.5659407  19.1106930  35.7455929   9.0962342   9.8127623  42.4950757
   9.4511729  10.0399096  43.3545223   9.7434473  10.1446000  41.8728013
  14.8260078  12.9346059  33.2000086  14.6877977  13.1247655  32.2721276
  14.4696297  13.6965442  33.6568138  14.8529458  15.0022586  38.2111358
  15.2865965  14.9097875  39.0594412  15.5661039  14.9780086  37.5731374
   3.7662509  16.2206584  35.3932091   4.5603107  15.7256904  35.1914666
   3.0554201  15.6924447  35.0299797   8.5857353  18.6024680  39.7444459
   8.6394375  19.1715616  40.5122174   7.7172134  18.7726565  39.3798496
  15.7145008  15.0446286  40.7444243  15.9080898  15.9492097  40.9903518
  15.6145626  14.5853705  41.5782828  10.7760116  15.1953029  46.3185124
  10.6245623  14.9663581  45.4015208  10.7664796  16.1523631  46.3316469
   7.5445453  12.7684942  41.3031390   8.4737513  12.9196101  41.1300358
   7.1236483  12.8568963  40.4480037   6.3433785  16.7935606  39.0729928
   6.2044870  16.4254391  39.9455866   5.5548381  17.3083246  38.9013886
   6.9381936  21.8944703  30.4155465   7.1133692  21.4232746  31.2301087
   6.2514725  22.5210469  30.6436725   7.8939000  16.1717209  36.4618766
   7.5588832  16.1317979  37.3576416   7.3942945  15.5061925  35.9889176
  12.4852323  18.2272152  44.3961606  12.4264869  17.5431372  43.7292189
  12.8871841  18.9691142  43.9442232   1.5043022  25.0434066  37.1895325
   1.7439620  25.6752590  37.8674343   0.6612218  24.6922106  37.4760684
  12.4869730  16.1911736  42.6275586  11.5996509  15.8537657  42.7501984
  13.0568281  15.4594767  42.8644351   6.0170884  20.8513188  39.5936829
   5.9441055  21.6568159  40.1056133   5.5748277  21.0505154  38.7684850
   5.8060663  20.0884958  33.1039650   5.0228185  20.6306638  33.1977875
   6.5053408  20.6058938  33.5033891  16.9687071  11.6019953  37.3892147
  16.9576947  12.4844668  37.0186080  16.1004450  11.2491504  37.1946684
   8.4769567  20.7500022  41.7494987   9.1897539  21.3847487  41.6770889
   7.9859596  20.8463888  40.9334989  10.1987094  14.6551275  33.3212279
   9.2643373  14.7752737  33.1516983  10.3763763  13.7523741  33.0572289
  13.5859645  10.4968594  33.8562313  14.0520098  11.3296586  33.7822616
  14.0367146  10.0313576  34.5607572   3.5281481  18.4994465  42.5700558
   4.2290940  19.1330948  42.7229952   3.0576596  18.8409197  41.8096197
  11.6535877  16.8412415  30.8548465  11.9295720  16.7269010  31.7642339
  10.7840375  16.4429900  30.8160638  11.3282767  11.0539073  40.3953109
  10.6754217  11.3014980  39.7405561  11.7063147  10.2403211  40.0615586
   8.2889941  21.0898766  34.4981279   8.4712335  20.2720422  34.9609031
   9.1122927  21.3066458  34.0606169   8.6232106  20.0166951  31.7596327
   9.1519872  19.5059406  31.1466489   8.8860326  19.7009481  32.6241860
   7.3770340  11.7958884  46.8819146   6.7010977  11.6953013  47.5521521
   8.1997974  11.6398098  47.3455143   1.9787854  21.0682068  34.5194103
   1.3098229  21.5528196  34.0358143   1.8400724  21.3151288  35.4337482
   6.1193123  23.1025811  41.1176762   6.6711431  23.2657433  41.8825847
   6.4599316  23.6930249  40.4456786  10.9703997  17.9287069  46.9725416
  11.5143901  18.5417027  46.4780371  10.3890842  18.4866647  47.4892429
   9.2561510  21.0507787  38.1040444   9.1312649  20.2497527  37.5951389
   9.9140601  21.5453980  37.6154414  11.3196418  18.8516807  39.7319994
  10.3726754  18.7322158  39.6598321  11.6679191  17.9639305  39.8146255
   8.3242852  18.6469523  35.9324346   8.1767814  17.7186231  36.1131916
   9.1496345  18.6689614  35.4481421  11.9276973  19.4698082  37.0189219
  12.8523521  19.2640943  36.8813670  11.7592277  19.2214483  37.9278560
  11.7172290  19.9883749  32.3751310  11.8909167  19.4230172  31.6225163
  12.2101181  20.7884644  32.1930800  17.5711681  12.7520172  33.9941610
  18.0142827  12.0027498  33.5960733  16.6938191  12.7430309  33.6115342
  12.7047462  19.3050514  29.4748209  13.3998367  19.9257207  29.6935523
  13.0470612  18.4545865  29.7500586  14.6038885  16.7550219  31.0035539
  15.1290209  17.0937492  30.2784859  14.5161238  15.8197235  30.8198674
   6.2658934  20.6684293  43.1325416   6.5746060  20.4233440  44.0048116
   7.0634416  20.8730931  42.6444286   6.2879546  22.8222203  35.3630793
   5.8484536  22.3298581  36.0563649   7.0387663  22.2795170  35.1222868
   3.7353418  18.3660212  37.4353094   3.1133427  17.7030917  37.1355322
   4.4058285  18.3921344  36.7526742  14.2932791  17.3883123  46.3086737
  13.5028335  17.3707262  45.7691237  14.0566146  17.9271417  47.0635774
  14.4130666  14.2375589  43.6219466  14.4628671  14.0725597  44.5634989
  14.3044590  13.3702848  43.2317347   3.2966925  16.9164135  30.9111555
   3.4455045  17.5999599  30.2578228   4.1033368  16.8969225  31.4261010
  11.7034429  10.2206517  44.9378773  12.6044291  10.0812982  44.6462770
  11.7782403  10.3860972  45.8776950  15.9148863  16.6572531  43.8661487
  15.6233671  17.0202511  44.7024948  15.3020994  15.9439539  43.6874819
  17.1144545  14.2225411  36.3864058  17.9491437  14.6615215  36.5501618
  17.2503674  13.7464064  35.5672303  14.1636051  11.7805146  42.3341545
  14.6390173  11.9732792  41.5260397  13.2401617  11.8364331  42.0884929
   6.7962331  19.4112266  28.3823302   6.2236298  20.0302453  27.9293774
   7.3695124  19.9611627  28.9163224  12.8637720   8.6570906  40.5669851
  13.8155143   8.7569003  40.5882075  12.6941171   7.8649174  41.0767935
  10.0159590  19.6949416  29.5131884  10.9490263  19.6294977  29.7164760
   9.9282803  20.5305682  29.0546417  12.6447607  19.0115286  26.4735832
  12.5661238  18.6775150  27.3671590  13.4657274  19.5037054  26.4727304
  15.3425798  11.8777025  39.6812151  15.3102118  10.9393026  39.8671834
  15.9526422  11.9561062  38.9477976  15.4920287   8.6688069  39.7270434
  14.9759335   7.8846525  39.5400363  16.3760235   8.3406785  39.8916953
  21.1602348  12.9393032  38.8218187  21.8905736  12.6778320  39.3825891
  20.5509293  12.2021754  38.8620255  19.2417645  11.0800895  39.4192639
  18.5150809  10.9456860  38.8109130  18.8264932  11.3877723  40.2249357
   7.0647822  14.7990824  47.1840012   7.9850831  14.9769423  47.3780058
   7.0297405  13.8546870  47.0319711   0.7242367  15.6026738  40.0699037
   1.6785620  15.5710681  40.0028969   0.5254891  15.1417362  40.8849263
  14.4222881   6.5885128  35.7152130  15.1983272   7.0781580  35.9876746
  13.6971016   7.0143182  36.1723999  16.8595440   7.3012747  36.7726070
  17.4539931   7.0608483  36.0619378  16.9322024   6.5819877  37.3999607
  10.2151559  16.3283281  26.0945810  10.9187409  16.5333284  26.7103466
   9.4914208  16.8960043  26.3594894  11.0449369  12.0793143  32.2148081
  10.9884570  12.5361694  31.3755713  11.5977711  11.3183827  32.0370923
  14.8554175   7.8682875  33.0398200  14.5991109   7.4679510  33.8706408
  14.2307043   8.5826668  32.9148339  19.1666513  10.6078948  35.5469491
  18.6066071  10.6772137  36.3201053  18.5610016  10.4319932  34.8268988
   2.2361722  22.0415675  37.2987678   2.1194106  22.9861107  37.1966368
   1.4154168  21.7389236  37.6873477  12.1238256  16.7665811  28.1444270
  12.9583860  16.3347009  27.9621745  11.9622599  16.5947824  29.0721165
  11.7784148  13.2697924  29.5100610  11.7232952  13.1042195  28.5689054
  11.1530204  13.9773957  29.6662799   9.0930056  15.5746836  48.8354172
   9.9621215  15.7487488  48.4740807   8.6136807  16.3941253  48.7129902
   3.2616236  22.6943937  40.5143606   4.1643482  22.7267547  40.8310101
   3.0353606  21.7644388  40.5289942   5.0169838  21.4474923  37.1753685
   4.0665469  21.4476785  37.0618057   5.3202324  20.7007658  36.6589719
  20.7522531  27.2835462  38.2399447  21.3900941  27.1642209  37.5362787
  20.6343374  28.2316306  38.2987399  17.5612238  27.2362890  38.1760972
  17.2230749  27.1203955  37.2881507  18.4302006  26.8354055  38.1561978
  13.4199053  29.0898366  34.1657863  12.8563918  28.9988303  33.3974151
  13.3051448  28.2698271  34.6460355  18.0432021  28.3897742  44.1347177
  18.0320661  27.9950540  43.2627681  18.2052660  27.6563814  44.7280949
  10.9663485  30.5849558  37.0042083  11.7584777  30.2440382  36.5888383
  11.2060135  30.6944533  37.9244237  12.9254239  29.8458471  29.8759462
  13.6985115  29.2987458  29.7372338  13.2779638  30.7102720  30.0873923
  14.7639282  31.1734853  43.0826361  14.4729148  32.0780484  42.9673028
  15.3996266  31.2151381  43.7970431  15.6895489  28.5511702  39.6727721
  16.2859061  28.3267724  38.9584684  15.7470460  27.8096447  40.2753169
  15.2620517  26.0051137  27.5077912  15.5146038  25.4832658  26.7461375
  14.3245076  25.8417283  27.6104596  20.3063800  25.0086916  35.3152655
  21.0926889  24.5906339  34.9643072  20.5702504  25.9133008  35.4834304
  25.7072227  24.9462149  36.2185634  26.4397399  24.3761366  36.4523463
  24.9511583  24.5583749  36.6592139  14.9816806  27.9079243  29.7102287
  14.8653064  27.2324147  30.3783371  15.0919066  27.4211617  28.8934440
  17.3248347  27.3689390  33.4148976  16.9606554  26.8420011  34.1261898
  18.1815462  26.9787859  33.2415462  23.2297647  18.6583723  40.6780242
  22.8980972  19.5279134  40.4541457  22.6343261  18.3420007  41.3574273
  16.9653834  22.3979290  28.4110325  17.1328236  23.2659526  28.7780796
  16.7751003  22.5606572  27.4871614  19.7229167  30.8596269  40.0776155
  19.4229890  31.7621308  39.9691962  19.3780226  30.5928452  40.9297308
  13.1741648  27.3110066  36.1112859  12.2492145  27.1786280  36.3190551
  13.4226061  28.0904285  36.6082802  23.1226311  23.3778809  37.7573592
  22.2143188  23.3094217  37.4632353  23.0713906  23.8550754  38.5855418
  16.9443054  24.8536947  29.3956992  16.8242680  25.2993998  30.2342472
  16.2495643  25.2022265  28.8370530  10.5350459  26.9543339  36.9456649
  10.6642840  27.2077818  37.8596060   9.8547911  27.5471047  36.6261304
  14.7049947  37.6240589  33.0447123  14.6273976  38.5748414  33.1235603
  14.1011590  37.2786462  33.7022049  17.1967176  24.7968455  45.7008490
  16.4200510  25.3562375  45.6911354  17.8357739  25.2825238  46.2223360
  24.9887957  21.5795247  39.5351466  24.3462337  21.8727781  38.8891261
  24.4842885  21.4648168  40.3404663  22.6428121  25.3258421  30.2237326
  23.5545977  25.5585807  30.0485023  22.1337768  25.9095465  29.6612404
  15.4513549  27.6053908  45.2626457  16.1928233  28.1438952  44.9861280
  14.7450534  28.2320197  45.4198008  20.9268888  29.7483048  43.8598618
  21.3352244  29.3065459  43.1153250  20.2046150  29.1735676  44.1132811
  17.2799958  24.6855655  41.2332175  18.1261154  25.1095069  41.3766824
  17.2198596  24.0289280  41.9270738  21.2497703  30.3084239  37.6150907
  20.6206565  30.4729953  36.9126975  20.8623365  30.7225849  38.3861871
  20.4299404  22.3460024  42.8913349  20.1860336  23.1002084  42.3547624
  20.7059334  22.7245371  43.7260596  19.9864095  21.5016457  38.4727186
  19.1248574  21.7997710  38.7643924  20.0126530  21.7186855  37.5408219
  16.8025665  30.0458647  34.8800992  17.2664010  30.3246350  34.0905615
  16.5382463  29.1442092  34.6974083  13.6949746  29.5930129  37.8180755
  14.2651103  30.0217397  37.1798240  14.2857858  29.3112713  38.5164941
  15.7394551  26.1681800  31.6890557  16.4418594  26.6202843  32.1564484
  15.4075179  25.5265618  32.3170450  14.1874912  24.7593556  46.0641767
  13.5573573  25.4409837  46.2977163  14.0811000  24.6476638  45.1194905
   9.4819885  24.4265352  36.9907691   8.6918939  24.6822881  36.5147801
   9.9731132  25.2413690  37.0959731  11.4334630  24.7909931  33.9491168
  10.6365793  24.9028626  34.4674663  11.2060222  25.1296584  33.0832058
  17.2640298  31.3154635  41.8973682  17.3284730  31.7775042  42.7331854
  16.5551222  30.6852000  42.0255992   7.7657588  24.6795843  39.4222682
   8.0165626  25.5642853  39.6880258   8.3017136  24.5000444  38.6497773
  31.5889687  28.1109340  36.0897943  30.8353396  27.5416738  35.9341948
  31.7237229  28.0772004  37.0368578  16.9788315  32.9822742  31.7652662
  16.8433990  33.8274278  32.1937510  17.5198128  33.1842020  31.0018596
  13.4655655  19.0614322  48.4267018  13.0722601  18.5080521  49.1014662
  14.2821795  19.3724900  48.8173535  10.4317713  30.4998180  32.3380588
  10.9442233  31.2941430  32.4886152  11.0840426  29.8024471  32.2714189
  12.2412598  33.6163936  34.4203341  12.4179226  34.5381901  34.2324325
  13.0369431  33.3022356  34.8497721  16.3823616  20.4772201  46.0187274
  17.1233329  21.0779354  45.9391737  16.6141539  19.7349839  45.4605317
  11.5264954  25.6628568  44.2965504  11.4118469  24.7613826  44.5972603
  10.6709472  25.9092265  43.9450320  18.6056792  33.6046309  45.8953005
  18.1620646  32.8182687  45.5773909  19.2674005  33.7925459  45.2296895
  13.3643913  35.1342110  40.4213683  13.9151338  35.0059174  39.6490677
  12.5255389  35.4336999  40.0708576  17.1611084  31.3993238  44.7657914
  17.6939421  30.6381526  44.5357222  16.6325165  31.1066890  45.5082069
  20.3280779  16.5053304  40.2951556  19.9845048  17.3954946  40.2190667
  20.6959742  16.3154962  39.4321141   8.3966630  28.8286834  33.1140158
   9.2341852  29.2383843  32.8973866   8.5744897  27.8886277  33.0840352
  20.2931062  26.4961915  28.8023991  19.7777685  27.2666520  29.0412378
  20.0208370  25.8227051  29.4257052  17.8778173  21.3411616  33.8609229
  17.0219769  20.9518466  33.6814868  18.2905125  21.4203577  33.0009015
  19.4077319  18.8757959  38.2600789  18.9042115  18.8388094  37.4468594
  19.7007926  19.7850702  38.3197446  15.6520205  18.9596689  37.2666971
  16.5173202  18.7639498  36.9072860  15.7197714  18.7307041  38.1936328
  20.0817365  24.3689007  30.6283772  19.7767500  24.6835156  31.4793915
  21.0347807  24.4470427  30.6711105  18.5263797  30.5279231  32.2776726
  17.9985158  29.7931990  31.9649964  18.0251299  31.3053907  32.0316695
  23.5056643  28.7228251  37.3943773  22.8480317  29.4127512  37.4823901
  24.3097042  29.1124683  37.7377759  13.2582524  21.1898897  34.6383338
  13.8326276  20.9674078  33.9056531  13.8453507  21.2587591  35.3911939
  22.3162102  27.0772624  35.4447714  22.8293983  27.7102616  35.9469424
  22.9663325  26.4773819  35.0791074  13.5852111  23.2203358  28.6579223
  12.7489424  23.5578044  28.9788498  13.4456881  23.0852338  27.7206360
  15.5605192  18.0640146  33.3658407  14.9069604  17.7489163  32.7415022
  15.5185666  17.4415886  34.0918230  16.6716397  28.3459441  25.2811699
  15.7643459  28.1148694  25.4802848  17.1687429  27.5497060  25.4685681
  19.5784476  37.0556948  28.2008385  18.9046175  37.3588645  28.8093343
  19.9650298  37.8586028  27.8513842  18.7942932  24.5522079  37.6906055
  17.8765494  24.7737026  37.5327743  19.2103076  24.6268390  36.8317762
  19.5777980  25.9513495  32.8208735  20.3249799  26.4634892  32.5115857
  19.8469570  25.6297548  33.6813129  17.8504630  28.4472036  29.8035689
  16.9415850  28.1631069  29.9008159  17.8799714  28.8671114  28.9438996
  22.0256817  22.9870611  34.8027524  21.2879574  22.4747997  35.1337767
  22.2783591  22.5470993  33.9910801  22.1268445  15.7646863  35.3969294
  22.4327321  14.9044227  35.1095209  22.8521049  16.3564483  35.1968288
   8.4192801  26.1677550  33.7850892   8.2217201  25.5746911  33.0601958
   7.8639465  25.8629760  34.5026830  16.3989524  26.0600656  35.9045485
  16.4538134  25.1074493  35.8287961  15.5880726  26.2160095  36.3886783
  17.5480718  29.9880779  27.1423768  17.1100148  29.2716638  26.6829405
  18.2891159  30.2156894  26.5808859  14.3381884  24.6777716  33.6635864
  13.5249750  24.9771887  34.0701056  14.8340879  24.2833405  34.3810346
  16.4890462  34.6735473  35.5970128  16.4466641  34.8996319  34.6678660
  17.4053161  34.4398848  35.7455929  19.9356096  25.1419541  42.4950757
  20.2905484  25.3691014  43.3545223  20.5828227  25.4737917  41.8728013
  13.8295959  22.2496072  39.2797099  14.4695338  22.1084831  38.5820062
  12.9973490  21.9630585  38.9035700  14.6056263  31.5498502  35.3932091
  15.3996861  31.0548822  35.1914666  13.8947955  31.0216365  35.0299797
  10.9139026  25.6941584  31.4691844   9.9836615  25.6326039  31.6861806
  11.0096498  25.1717536  30.6728485  10.8324576  22.2196397  34.0570085
  11.0931393  23.1341730  33.9479246  11.6541748  21.7520839  34.2066698
  12.3049501  23.6334154  41.2268910  12.9772554  23.4251516  40.5781559
  11.4779287  23.4356240  40.7874142  18.2075073  20.2596095  43.2434571
  17.5602988  20.9586044  43.1499047  18.9776088  20.6932239  43.6110819
  21.6153871  30.5244947  46.3185124  21.4639377  30.2955498  45.4015208
  21.6058550  31.4815548  46.3316469  18.3839207  28.0976860  41.3031390
  19.3131267  28.2488019  41.1300358  17.9630237  28.1860880  40.4480037
  17.1827539  32.1227524  39.0729928  17.0438625  31.7546308  39.9455866
  16.3942135  32.6375163  38.9013886  17.7775691  37.2236620  30.4155465
  17.9527447  36.7524664  31.2301087  17.0908479  37.8502387  30.6436725
  18.7332754  31.5009127  36.4618766  18.3982587  31.4609897  37.3576416
  18.2336700  30.8353843  35.9889176  12.7076998  26.9076757  41.9871347
  12.5696796  26.1756996  42.5882886  13.6181922  26.8185657  41.7055535
  21.6691946  28.8465161  26.7355825  21.0521116  28.1211989  26.6388878
  21.2008434  29.6074521  26.3922900  15.3359299  26.6196716  41.4755027
  16.0458917  25.9789908  41.4341645  15.2928607  26.8709611  42.3981207
  14.0488233  23.6061934  43.2950666  13.5125590  23.1552672  43.9472262
  13.4604941  23.7407843  42.5521130  12.3436776  40.3725983  37.1895325
  12.5833374  41.0044507  37.8674343  11.5005973  40.0214023  37.4760684
  13.4590492  23.0650585  25.8577130  12.5819958  22.9439386  25.4939376
  13.9348245  22.2736664  25.6056018   4.9792632  27.8527745  35.9518637
   5.6663672  27.5389475  35.3639652   4.8240761  28.7569110  35.6785888
   9.7827354  22.7417942  40.3803661   9.6985543  22.1343611  39.6454071
   8.9610060  23.2326960  40.3813157  16.8564638  36.1805106  39.5936829
  16.7834810  36.9860077  40.1056133  16.4142031  36.3797071  38.7684850
  16.6454418  35.4176876  33.1039650  15.8621940  35.9598556  33.1977875
  17.3447163  35.9350855  33.5033891  19.9551068  21.2271505  35.7473856
  20.4519767  20.4741467  35.4274926  19.1838049  21.2635822  35.1817065
  27.8080825  26.9311871  37.3892147  27.7970702  27.8136586  37.0186080
  26.9398205  26.5783421  37.1946684  21.0380849  29.9843192  33.3212279
  20.1037127  30.1044655  33.1516983  21.2157517  29.0815659  33.0572289
  16.5386037  23.3688888  35.4745540  16.1683824  22.8159928  36.1626446
  17.0345129  22.7647022  34.9220540  24.4253400  25.8260512  33.8562313
  24.8913852  26.6588503  33.7822616  24.8760900  25.3605493  34.5607572
  14.3675235  33.8286383  42.5700558  15.0684695  34.4622866  42.7229952
  13.8970350  34.1701115  41.8096197  22.3970063  18.1941099  37.8953215
  21.4833142  18.4245325  38.0635421  22.8263164  18.2779543  38.7467247
  22.1676521  26.3830991  40.3953109  21.5147971  26.6306898  39.7405561
  22.5456901  25.5695129  40.0615586  19.1283695  36.4190684  34.4981279
  19.3106090  35.6012340  34.9609031  19.9516681  36.6358376  34.0606169
  18.2164094  27.1250802  46.8819146  17.5404731  27.0244931  47.5521521
  19.0391728  26.9690015  47.3455143   9.9642953  33.3622738  39.5031661
  10.5496390  32.6166426  39.6359565   9.7667792  33.6726695  40.3868325
  12.8181608  36.3973986  34.5194103  12.1491984  36.8820113  34.0358143
  12.6794478  36.6443206  35.4337482   4.5560608  25.9328338  38.2236104
   4.5944707  25.3991929  39.0173222   4.0500901  25.4063544  37.6047081
  11.9351370  20.7792879  41.7198646  11.9992697  21.6407710  41.3076044
  11.8718491  20.1666881  40.9871005  11.4103643  22.8516011  45.3671681
  12.0375682  22.4693089  45.9809205  10.5531562  22.6330213  45.7327373
   8.1869186  24.6592441  31.2990035   8.4822627  23.7503119  31.2457089
   7.2857221  24.6380180  30.9771038  11.7163433  22.7348437  37.2817584
  10.9950018  23.3484405  37.1425057  12.5056688  23.2706202  37.2034230
  14.5189746  20.0702864  43.5558236  15.0424148  20.3165160  44.3184545
  14.3002079  20.9022898  43.1361373   9.9157027  22.3406538  31.4229361
   9.5869733  21.4603917  31.2404467  10.2696398  22.2854207  32.3105750
  19.1636606  33.9761441  35.9324346  19.0161568  33.0478148  36.1131916
  19.9890100  33.9981532  35.4481421  13.0298850  22.6279508  31.7904838
  13.3694923  23.1565429  31.0683447  13.4770971  22.9659914  32.5663405
  22.7670728  34.7990000  37.0189219  23.6917275  34.5932861  36.8813670
  22.5986031  34.5506401  37.9278560  15.7242291  21.0116559  41.2407906
  15.3839111  20.2124372  41.6428586  15.0181297  21.3118270  40.6684740
  16.3758763  18.0965871  39.6935229  17.1984832  17.6226349  39.5714120
  16.6196826  18.8756355  40.1933916  15.0166997  21.1254130  29.9898131
  15.7375360  21.5035382  29.4861848  14.3932302  21.8443006  30.0933109
  19.1598120  21.8299279  30.9256463  19.3761735  22.7123916  30.6245292
  18.6792187  21.4385492  30.1962105  13.8997342  24.7884992  37.5027208
  13.7541922  25.1025295  38.3951489  13.4222545  25.4069892  36.9498107
  15.7593725  21.7787540  37.5508098  15.7455293  20.8828633  37.2140395
  16.4766153  21.7858204  38.1846384  17.6119855  22.2124880  39.5961225
  17.3537633  23.1341951  39.5945555  17.0804896  21.8155315  40.2861689
   8.3743004  27.3290336  40.4414869   7.8296472  28.1050144  40.5735143
   9.2522354  27.6761141  40.2833991  15.1630621  20.6601920  32.8195668
  15.2846532  19.7318566  33.0186555  14.8732663  20.6740606  31.9073983
  18.0321811  18.3456830  35.9562387  18.0543508  18.4096164  35.0014367
  18.4489870  17.5061339  36.1502894  28.4105435  28.0812090  33.9941610
  28.8536581  27.3319415  33.5960733  27.5331946  28.0722226  33.6115342
   9.1609026  26.4560232  43.3345026   8.4190762  26.6042868  43.9209656
   8.8401770  26.7168498  42.4711775  17.1052688  35.9976211  43.1325416
  17.4139815  35.7525357  44.0048116  17.9028170  36.2022849  42.6444286
  17.1273300  38.1514120  35.3630793  16.6878291  37.6590499  36.0563649
  17.8781417  37.6087088  35.1222868   9.6065639  34.3425661  35.3655421
  10.4323659  34.0429433  34.9854064   9.2559691  33.5733284  35.8145209
  14.5747173  33.6952129  37.4353094  13.9527182  33.0322834  37.1355322
  15.2452039  33.7213261  36.7526742   7.8074244  32.2611988  36.3244354
   6.9706153  31.8334162  36.1428355   7.7797890  32.4544431  37.2615145
  14.6471700  22.1733917  47.0285600  14.6959856  23.0496040  46.6463370
  15.1894214  21.6311310  46.4557243  22.5428183  25.5498435  44.9378773
  23.4438046  25.4104900  44.6462770  22.6176158  25.7152890  45.8776950
  16.8770988  22.9265290  43.7831959  16.0074298  23.2198856  43.5114547
  17.1130469  23.5105735  44.5039223  25.0029806  27.1097063  42.3341545
  25.4783927  27.3024710  41.5260397  24.0795371  27.1656249  42.0884929
  11.8913312  28.2721230  31.9172624  11.6459354  27.3683560  32.1152834
  12.0609227  28.2738381  30.9752102  19.5810022  19.1444907  41.2997379
  20.0991966  19.8805934  40.9743868  19.2265155  19.4508900  42.1344138
  11.1608960  24.0049588  29.4158785  10.4678205  24.0793943  28.7598821
  10.9160712  23.2409932  29.9380302  19.8322616  15.5645189  36.8198276
  20.1124370  14.8968378  37.4458702  20.6173223  15.7574285  36.3072940
  17.6356085  34.7404183  28.3823302  17.0630052  35.3594370  27.9293774
  18.2088879  35.2903545  28.9163224  23.7031475  23.9862823  40.5669851
  24.6548898  24.0860921  40.5882075  23.5334925  23.1941092  41.0767935
  21.7245854  21.0718406  40.7529252  21.1295786  21.3523419  40.0575741
  21.4395551  21.5612307  41.5245993  26.1819553  27.2068943  39.6812151
  26.1495873  26.2684944  39.8671834  26.7920176  27.2852980  38.9477976
  18.0202883  26.0764996  25.7239355  18.9661988  25.9471204  25.7927773
  17.6417128  25.3379658  26.2008783  26.3314041  23.9979986  39.7270434
  25.8153090  23.2138443  39.5400363  27.2153990  23.6698703  39.8916953
  23.9924768  17.7421002  35.6866247  23.7949589  17.4336090  36.5709578
  24.6024474  18.4682641  35.8164176  31.9996102  28.2684950  38.8218187
  32.7299491  28.0070238  39.3825891  31.3903048  27.5313672  38.8620255
  30.0811400  26.4092812  39.4192639  29.3544563  26.2748777  38.8109130
  29.6658686  26.7169641  40.2249357  17.9041576  30.1282742  47.1840012
  18.8244585  30.3061341  47.3780058  17.8691159  29.1838787  47.0319711
  16.2045801  24.0014972  25.6594240  15.2977256  23.7048085  25.7356954
  16.4821782  23.7044790  24.7928526   7.1223741  25.3221336  36.1093286
   6.8026525  24.4686644  35.8167660   6.5757169  25.5369914  36.8651254
  10.9003649  28.0383777  39.8262793  11.1189658  28.9700885  39.8450827
  11.3129422  27.6791751  40.6117597  17.8207866  18.5451862  31.8138481
  17.0108595  18.1998947  32.1893727  18.5092283  18.2359406  32.4026093
  19.7498415  17.6229909  33.4362778  20.3029453  18.0425362  34.0952801
  19.9868501  16.6965657  33.4785734  15.7731514  23.6116982  49.2165542
  15.6728241  24.5611339  49.1477633  15.5553056  23.2835221  48.3441612
  14.9744585  20.8601908  25.8006219  15.8363749  21.1856806  26.0602036
  15.1594929  20.0733403  25.2879285   6.9912001  28.9424247  38.0786408
   6.2975472  28.5278200  37.5656362   7.7384992  28.9844784  37.4819827
  23.1277222  19.7330434  32.9441442  22.5475891  20.3915238  32.5619495
  22.8613154  18.9107779  32.5328860  21.5780788  19.1335492  35.1462762
  22.0780566  19.2452026  34.3377081  22.2216396  18.8296545  35.7863571
  15.6362784  27.0414121  48.0330603  15.1529866  27.8414481  48.2394492
  15.7223723  27.0522066  47.0798047   8.9048744  28.8742501  35.9552423
   8.8819432  28.9730188  35.0034306   9.2149380  29.7207652  36.2769589
  11.5636121  30.9318656  40.0699037  12.5179375  30.9002598  40.0028969
  11.3648645  30.4709280  40.8849263  12.1535504  29.5019772  42.6369835
  12.9728393  29.9963851  42.6604672  12.4272311  28.5851740  42.6087402
  21.9102100  21.8930524  31.9997790  21.0227955  22.1780175  31.7817985
  22.3256089  21.7324288  31.1525067  25.2616636  21.9177045  35.7152130
  26.0377026  22.4073498  35.9876746  24.5364770  22.3435100  36.1723999
  27.6989195  22.6304665  36.7726070  28.2933685  22.3900401  36.0619378
  27.7715778  21.9111795  37.3999607   9.9186350  36.4738276  37.0869235
   9.7840818  35.7138676  36.5207233   9.5018412  37.1979175  36.6198024
  21.0545313  31.6575199  26.0945810  21.7581163  31.8625202  26.7103466
  20.3307962  32.2251961  26.3594894  25.6947929  23.1974792  33.0398200
  25.4384864  22.7971428  33.8706408  25.0700797  23.9118586  32.9148339
  30.0060267  25.9370865  35.5469491  29.4459825  26.0064055  36.3201053
  29.4003771  25.7611850  34.8268988  13.0755476  37.3707593  37.2987678
  12.9587860  38.3153025  37.1966368  12.2547922  37.0681154  37.6873477
   7.4070418  23.8357906  43.3362032   8.0529281  23.3256860  43.8249257
   7.1987569  24.5726588  43.9105457  19.9323810  30.9038753  48.8354172
  20.8014970  31.0779406  48.4740807  19.4530561  31.7233170  48.7129902
  15.9274028  18.0997951  29.0885928  15.9152698  19.0439790  29.2454199
  16.8197450  17.9168096  28.7945389  14.1009990  38.0235854  40.5143606
  15.0037237  38.0559465  40.8310101  13.8747360  37.0936305  40.5289942
  19.7426148  14.6940727  33.3431865  18.9758544  14.1399214  33.4888547
  20.1536853  14.7662596  34.2046017  11.7467909  20.9825523  47.4337046
  12.6099370  20.6262328  47.6440371  11.1733319  20.6439418  48.1212450
  27.0439555  39.3306890  25.6594240  26.1371011  39.0340003  25.7356954
  27.3215536  39.0336708  24.7928526  30.5819902  30.0232645  33.3431865
  29.8152298  29.4691132  33.4888547  30.9930607  30.0954514  34.2046017
  35.0986562  59.7482202  34.1657863  34.5351427  59.6572139  33.3974151
  34.9838957  58.9282106  34.6460355  40.6786121  63.4153169  29.4772328
  40.0274101  64.0007250  29.0906341  41.4730484  63.9459364  29.5367365
  34.6041748  60.5042306  29.8759462  35.3772624  59.9571294  29.7372338
  34.9567147  61.3686556  30.0873923  42.1561386  61.1043601  30.0141312
  41.5207219  61.1778228  30.7262217  41.8258792  61.6937200  29.3360391
  36.3837456  68.2824425  33.0447123  36.3061485  69.2332250  33.1235603
  35.7799099  67.9370297  33.7022049  38.4813174  60.7042483  34.8800992
  38.9451519  60.9830186  34.0905615  38.2169972  59.8025927  34.6974083
  38.9427807  61.9738470  41.8973682  39.0072239  62.4358877  42.7331854
  38.2338731  61.3435835  42.0255992  38.6575824  63.6406578  31.7652662
  38.5221499  64.4858113  32.1937510  39.1985637  63.8425855  31.0018596
  32.1105222  61.1582016  32.3380588  32.6229742  61.9525266  32.4886152
  32.7627935  60.4608306  32.2714189  33.9200107  64.2747772  34.4203341
  34.0966735  65.1965737  34.2324325  34.7156940  63.9606191  34.8497721
  35.0431422  65.7925946  40.4213683  35.5938847  65.6643009  39.6490677
  34.2042898  66.0920835  40.0708576  41.9718571  57.1545750  28.8023991
  41.4565194  57.9250355  29.0412378  41.6995879  56.4810887  29.4257052
  46.9452845  59.9078105  30.7377165  46.1682288  59.5689265  30.2932327
  47.6244326  59.9130728  30.0632130  40.2051306  61.1863066  32.2776726
  39.6772667  60.4515825  31.9649964  39.7038808  61.9637742  32.0316695
  38.3503906  59.0043276  25.2811699  37.4430968  58.7732530  25.4802848
  38.8474938  58.2080895  25.4685681  41.2571985  67.7140783  28.2008385
  40.5833684  68.0172480  28.8093343  41.6437807  68.5169864  27.8513842
  39.5292139  59.1055871  29.8035689  38.6203359  58.8214904  29.9008159
  39.5587223  59.5254950  28.9438996  44.7611407  62.7162461  33.5726857
  44.3073734  61.8753370  33.6292047  44.1305373  63.3523859  33.9101637
  43.2044346  64.5538957  34.5076675  43.4967320  65.1144014  33.7889041
  43.7142967  64.8467518  35.2629834  39.2268227  60.6464615  27.1423768
  38.7887657  59.9300474  26.6829405  39.9678668  60.8740730  26.5808859
  38.1677971  65.3319308  35.5970128  38.1254150  65.5580155  34.6678660
  39.0840670  65.0982683  35.7455929  36.2843772  62.2082337  35.3932091
  37.0784370  61.7132657  35.1914666  35.5735464  61.6800200  35.0299797
  38.8615048  62.7811359  39.0729928  38.7226134  62.4130144  39.9455866
  38.0729644  63.2958999  38.9013886  39.4563200  67.8820456  30.4155465
  39.6314956  67.4108499  31.2301087  38.7695988  68.5086222  30.6436725
  43.3479455  59.5048996  26.7355825  42.7308625  58.7795825  26.6388878
  42.8795943  60.2658357  26.3922900  34.0224285  71.0309819  37.1895325
  34.2620883  71.6628343  37.8674343  33.1793482  70.6797859  37.4760684
  38.5352147  66.8388941  39.5936829  38.4622319  67.6443912  40.1056133
  38.0929540  67.0380907  38.7684850  38.3241927  66.0760711  33.1039650
  37.5409449  66.6182391  33.1977875  39.0234672  66.5934691  33.5033891
  36.0462744  64.4870218  42.5700558  36.7472204  65.1206701  42.7229952
  35.5757859  64.8284950  41.8096197  44.1717140  62.8288168  30.8548465
  44.4476984  62.7144763  31.7642339  43.3021639  62.4305653  30.8160638
  40.8071204  67.0774519  34.4981279  40.9893599  66.2596175  34.9609031
  41.6304190  67.2942211  34.0606169  41.1413369  66.0042704  31.7596327
  41.6701136  65.4935159  31.1466489  41.4041589  65.6885234  32.6241860
  31.6430462  64.0206574  39.5031661  32.2283899  63.2750261  39.6359565
  31.4455301  64.3310530  40.3868325  34.4969117  67.0557821  34.5194103
  33.8279493  67.5403949  34.0358143  34.3581987  67.3027041  35.4337482
  38.6374386  69.0901564  41.1176762  39.1892694  69.2533186  41.8825847
  38.9780579  69.6806002  40.4456786  40.8424115  64.6345276  35.9324346
  40.6949077  63.7061984  36.1131916  41.6677608  64.6565367  35.4481421
  44.2353553  65.9759502  32.3751310  44.4090431  65.4105925  31.6225163
  44.7282444  66.7760397  32.1930800  45.2228726  65.2926267  29.4748209
  45.9179630  65.9132960  29.6935523  45.5651876  64.4421618  29.7500586
  47.1220149  62.7425972  31.0035539  47.6471473  63.0813245  30.2784859
  47.0342501  61.8072988  30.8198674  38.7840197  66.6560046  43.1325416
  39.0927324  66.4109193  44.0048116  39.5815679  66.8606684  42.6444286
  38.8060809  68.8097956  35.3630793  38.3665800  68.3174334  36.0563649
  39.5568926  68.2670923  35.1222868  31.2853148  65.0009497  35.3655421
  32.1111168  64.7013268  34.9854064  30.9347200  64.2317119  35.8145209
  36.2534682  64.3535965  37.4353094  35.6314691  63.6906670  37.1355322
  36.9239548  64.3797097  36.7526742  29.4861753  62.9195823  36.3244354
  28.6493662  62.4917997  36.1428355  29.4585399  63.1128266  37.2615145
  35.8148188  62.9039888  30.9111555  35.9636309  63.5875352  30.2578228
  36.6214632  62.8844978  31.4261010  39.3143594  65.3988019  28.3823302
  38.7417561  66.0178206  27.9293774  39.8876388  65.9487380  28.9163224
  42.5340854  65.6825169  29.5131884  43.4671527  65.6170730  29.7164760
  42.4464067  66.5181436  29.0546417  45.1628870  64.9991039  26.4735832
  45.0842502  64.6650903  27.3671590  45.9838537  65.4912807  26.4727304
  39.6990392  56.7348831  25.7239355  40.6449497  56.6055039  25.7927773
  39.3204637  55.9963493  26.2008783  31.5973859  67.1322111  37.0869235
  31.4628327  66.3722512  36.5207233  31.1805921  67.8563011  36.6198024
  42.7332822  62.3159034  26.0945810  43.4368672  62.5209037  26.7103466
  42.0095471  62.8835796  26.3594894  34.7542985  68.0291428  37.2987678
  34.6375369  68.9736860  37.1966368  33.9335431  67.7264989  37.6873477
  44.6419520  62.7541564  28.1444270  45.4765124  62.3222762  27.9621745
  44.4803863  62.5823577  29.0721165  44.2965412  59.2573677  29.5100610
  44.2414216  59.0917948  28.5689054  43.6711467  59.9649710  29.6662799
  35.7797499  68.6819690  40.5143606  36.6824746  68.7143300  40.8310101
  35.5534869  67.7520141  40.5289942  37.5351101  67.4350676  37.1753685
  36.5846732  67.4352538  37.0618057  37.8383587  66.6883411  36.6589719
  45.9380317  75.0774119  34.1657863  45.3745182  74.9864056  33.3974151
  45.8232712  74.2574024  34.6460355  43.4844749  76.5725311  37.0042083
  44.2766041  76.2316135  36.5888383  43.7241399  76.6820286  37.9244237
  51.5179875  78.7445087  29.4772328  50.8667855  79.3299167  29.0906341
  52.3124238  79.2751282  29.5367365  45.4435503  75.8334224  29.8759462
  46.2166379  75.2863211  29.7372338  45.7960901  76.6978473  30.0873923
  47.7801780  71.9926890  27.5077912  48.0327301  71.4708411  26.7461375
  46.8426339  71.8293036  27.6104596  52.8245063  70.9962669  35.3152655
  53.6108152  70.5782092  34.9643072  53.0883768  71.9008761  35.4834304
  52.9955141  76.4335519  30.0141312  52.3600974  76.5070145  30.7262217
  52.6652547  77.0229118  29.3360391  58.2253490  70.9337902  36.2185634
  58.9578662  70.3637119  36.4523463  57.4692846  70.5459502  36.6592139
  47.4998069  73.8954996  29.7102287  47.3834327  73.2199900  30.3783371
  47.6100329  73.4087370  28.8934440  49.8429610  73.3565143  33.4148976
  49.4787817  72.8295764  34.1261898  50.6996726  72.9663612  33.2415462
  49.4835097  68.3855043  28.4110325  49.6509499  69.2535279  28.7780796
  49.2932266  68.5482325  27.4871614  52.2410430  76.8472022  40.0776155
  51.9411153  77.7497061  39.9691962  51.8961490  76.5804205  40.9297308
  45.6922912  73.2985819  36.1112859  44.7673408  73.1662033  36.3190551
  45.9407325  74.0780038  36.6082802  55.6407574  69.3654562  37.7573592
  54.7324451  69.2969970  37.4632353  55.5895170  69.8426507  38.5855418
  49.4624318  70.8412700  29.3956992  49.3423943  71.2869751  30.2342472
  48.7676906  71.1898018  28.8370530  43.0531723  72.9419092  36.9456649
  43.1824104  73.1953571  37.8596060  42.3729174  73.5346800  36.6261304
  47.2231210  83.6116342  33.0447123  47.1455240  84.5624167  33.1235603
  46.6192854  83.2662215  33.7022049  57.5069220  67.5671000  39.5351466
  56.8643601  67.8603534  38.8891261  57.0024149  67.4523921  40.3404663
  55.1609384  71.3134174  30.2237326  56.0727240  71.5461560  30.0485023
  54.6519031  71.8971218  29.6612404  53.7678966  76.2959992  37.6150907
  53.1387829  76.4605706  36.9126975  53.3804628  76.7101602  38.3861871
  57.6468198  77.2314430  34.9695271  56.9619236  77.6113331  34.4192304
  57.7312048  77.8409757  35.7027219  54.9019130  74.8774389  41.5690614
  55.1136025  75.5206149  40.8924995  54.8548878  74.0436706  41.1012544
  49.3206928  76.0334400  34.8800992  49.7845274  76.3122103  34.0905615
  49.0563726  75.1317845  34.6974083  48.2575814  72.1557553  31.6890557
  48.9599858  72.6078596  32.1564484  47.9256443  71.5141371  32.3170450
  56.0164958  77.7546344  39.7412972  56.8382402  77.3526532  39.4595653
  56.0127361  77.6514579  40.6929087  43.9515894  70.7785684  33.9491168
  43.1547057  70.8904379  34.4674663  43.7241486  71.1172337  33.0832058
  40.2838851  70.6671596  39.4222682  40.5346890  71.5518606  39.6880258
  40.8198400  70.4876197  38.6497773  49.4969579  78.9698495  31.7652662
  49.3615254  79.8150031  32.1937510  50.0379391  79.1717773  31.0018596
  42.9498976  76.4873933  32.3380588  43.4623497  77.2817183  32.4886152
  43.6021689  75.7900224  32.2714189  44.7593861  79.6039690  34.4203341
  44.9360489  80.5257654  34.2324325  45.5550695  79.2898109  34.8497721
  51.1238055  79.5922062  45.8953005  50.6801909  78.8058440  45.5773909
  51.7855269  79.7801212  45.2296895  45.8825176  81.1217863  40.4213683
  46.4332602  80.9934927  39.6490677  45.0436652  81.4212752  40.0708576
  53.2219293  79.8724862  43.9234406  53.2037769  80.6933743  43.4314675
  54.1439213  79.7478937  44.1484547  40.9147893  74.8162588  33.1140158
  41.7523115  75.2259596  32.8973866  41.0926161  73.8762030  33.0840352
  52.8112325  72.4837668  28.8023991  52.2958949  73.2542273  29.0412378
  52.5389634  71.8102804  29.4257052  50.3959436  67.3287369  33.8609229
  49.5401033  66.9394219  33.6814868  50.8086388  67.4079330  33.0009015
  57.7846599  75.2370023  30.7377165  57.0076042  74.8981182  30.2932327
  58.4638080  75.2422646  30.0632130  52.5998628  70.3564760  30.6283772
  52.2948764  70.6710909  31.4793915  53.5529071  70.4346180  30.6711105
  51.0445060  76.5154984  32.2776726  50.5166422  75.7807743  31.9649964
  50.5432563  77.2929660  32.0316695  56.0237906  74.7104004  37.3943773
  55.3661581  75.4003265  37.4823901  56.8278305  75.1000436  37.7377759
  54.8343365  73.0648377  35.4447714  55.3475247  73.6978369  35.9469424
  55.4844589  72.4649572  35.0791074  46.1033375  69.2079111  28.6579223
  45.2670687  69.5453797  28.9788498  45.9638145  69.0728091  27.7206360
  48.0786456  64.0515899  33.3658407  47.4250868  63.7364916  32.7415022
  48.0366930  63.4291639  34.0918230  49.1897660  74.3335194  25.2811699
  48.2824722  74.1024447  25.4802848  49.6868692  73.5372813  25.4685681
  52.0965739  83.0432701  28.2008385  51.4227438  83.3464398  28.8093343
  52.4831561  83.8461781  27.8513842  52.0959244  71.9389248  32.8208735
  52.8431063  72.4510645  32.5115857  52.3650833  71.6173301  33.6813129
  50.3685894  74.4347789  29.8035689  49.4597113  74.1506822  29.9008159
  50.3980978  74.8546867  28.9438996  55.6005161  78.0454378  33.5726857
  55.1467488  77.2045288  33.6292047  54.9699128  78.6815777  33.9101637
  54.5438081  68.9746364  34.8027524  53.8060838  68.4623750  35.1337767
  54.7964854  68.5346746  33.9910801  54.0438101  79.8830875  34.5076675
  54.3361075  80.4435932  33.7889041  54.5536721  80.1759436  35.2629834
  40.9374064  72.1553303  33.7850892  40.7398464  71.5622664  33.0601958
  40.3820728  71.8505513  34.5026830  48.9170788  72.0476409  35.9045485
  48.9719398  71.0950246  35.8287961  48.1061990  72.2035848  36.3886783
  50.0661982  75.9756532  27.1423768  49.6281412  75.2592391  26.6829405
  50.8072423  76.2032647  26.5808859  46.8563148  70.6653469  33.6635864
  46.0431013  70.9647640  34.0701056  47.3522142  70.2709158  34.3810346
  49.0071726  80.6611226  35.5970128  48.9647904  80.8872072  34.6678660
  49.9234425  80.4274601  35.7455929  58.1835096  74.2513729  33.2000086
  58.0452995  74.4415325  32.2721276  57.8271315  75.0133112  33.6568138
  58.2104476  76.3190256  38.2111358  58.6440983  76.2265546  39.0594412
  58.9236057  76.2947757  37.5731374  47.1237526  77.5374255  35.3932091
  47.9178125  77.0424575  35.1914666  46.4129219  77.0092118  35.0299797
  51.9432371  79.9192351  39.7444459  51.9969393  80.4883287  40.5122174
  51.0747152  80.0894236  39.3798496  43.4320290  71.6817337  31.4691844
  42.5017878  71.6201792  31.6861806  43.5277762  71.1593290  30.6728485
  43.3505839  68.2072150  34.0570085  43.6112656  69.1217483  33.9479246
  44.1723011  67.7396592  34.2066698  59.0720026  76.3613957  40.7444243
  59.2655916  77.2659768  40.9903518  58.9720644  75.9021376  41.5782828
  54.1335134  76.5120700  46.3185124  53.9820641  76.2831252  45.4015208
  54.1239814  77.4691301  46.3316469  49.7008802  78.1103277  39.0729928
  49.5619888  77.7422061  39.9455866  48.9123399  78.6250916  38.9013886
  50.2956954  83.2112373  30.4155465  50.4708710  82.7400417  31.2301087
  49.6089742  83.8378140  30.6436725  51.2514018  77.4884880  36.4618766
  50.9163850  77.4485650  37.3576416  50.7517963  76.8229596  35.9889176
  54.1873209  74.8340914  26.7355825  53.5702380  74.1087742  26.6388878
  53.7189698  75.5950274  26.3922900  55.8427341  79.5439822  44.3961606
  55.7839887  78.8599043  43.7292189  56.2446859  80.2858812  43.9442232
  44.8618040  86.3601736  37.1895325  45.1014638  86.9920260  37.8674343
  44.0187236  86.0089776  37.4760684  45.9771755  69.0526338  25.8577130
  45.1001221  68.9315139  25.4939376  46.4529508  68.2612417  25.6056018
  55.8444748  77.5079406  42.6275586  54.9571527  77.1705328  42.7501984
  56.4143299  76.7762438  42.8644351  37.4973895  73.8403498  35.9518637
  38.1844935  73.5265228  35.3639652  37.3422024  74.7444863  35.6785888
  49.3745902  82.1680859  39.5936829  49.3016073  82.9735830  40.1056133
  48.9323295  82.3672824  38.7684850  49.1635681  81.4052629  33.1039650
  48.3803203  81.9474309  33.1977875  49.8628426  81.9226608  33.5033891
  52.4732331  67.2147258  35.7473856  52.9701031  66.4617220  35.4274926
  51.7019313  67.2511575  35.1817065  60.3262089  72.9187624  37.3892147
  60.3151965  73.8012339  37.0186080  59.4579468  72.5659175  37.1946684
  51.8344585  82.0667693  41.7494987  52.5472557  82.7015158  41.6770889
  51.3434614  82.1631559  40.9334989  53.5562112  75.9718945  33.3212279
  52.6218391  76.0920408  33.1516983  53.7338780  75.0691412  33.0572289
  56.9434663  71.8136265  33.8562313  57.4095116  72.6464256  33.7822616
  57.3942164  71.3481246  34.5607572  46.8856499  79.8162136  42.5700558
  47.5865958  80.4498619  42.7229952  46.4151614  80.1576868  41.8096197
  55.0110894  78.1580086  30.8548465  55.2870738  78.0436681  31.7642339
  54.1415393  77.7597571  30.8160638  51.6464958  82.4066437  34.4981279
  51.8287353  81.5888093  34.9609031  52.4697945  82.6234129  34.0606169
  51.9807124  81.3334622  31.7596327  52.5094890  80.8227077  31.1466489
  52.2435344  81.0177152  32.6241860  42.4824217  79.3498491  39.5031661
  43.0677654  78.6042179  39.6359565  42.2849055  79.6602448  40.3868325
  45.3362872  82.3849739  34.5194103  44.6673247  82.8695866  34.0358143
  45.1975742  82.6318959  35.4337482  37.0741871  71.9204091  38.2236104
  37.1125971  71.3867682  39.0173222  36.5682164  71.3939297  37.6047081
  49.4768141  84.4193482  41.1176762  50.0286449  84.5825104  41.8825847
  49.8174334  85.0097920  40.4456786  54.3279015  79.2454740  46.9725416
  54.8718919  79.8584698  46.4780371  53.7465860  79.8034318  47.4892429
  40.7050449  70.6468194  31.2990035  41.0003890  69.7378872  31.2457089
  39.8038485  70.6255933  30.9771038  52.6136528  82.3675458  38.1040444
  52.4887667  81.5665197  37.5951389  53.2715619  82.8621651  37.6154414
  54.6771436  80.1684478  39.7319994  53.7301772  80.0489829  39.6598321
  55.0254209  79.2806976  39.8146255  42.4338291  68.3282291  31.4229361
  42.1050997  67.4479670  31.2404467  42.7877661  68.2729960  32.3105750
  51.6817869  79.9637194  35.9324346  51.5342832  79.0353901  36.1131916
  52.5071363  79.9857285  35.4481421  45.5480114  68.6155261  31.7904838
  45.8876186  69.1441182  31.0683447  45.9952234  68.9535667  32.5663405
  55.2851991  80.7865753  37.0189219  56.2098539  80.5808614  36.8813670
  55.1167295  80.5382154  37.9278560  47.5348261  67.1129883  29.9898131
  48.2556623  67.4911135  29.4861848  46.9113565  67.8318759  30.0933109
  51.6779384  67.8175032  30.9256463  51.8942998  68.6999669  30.6245292
  51.1973451  67.4261245  30.1962105  55.0747308  81.3051420  32.3751310
  55.2484185  80.7397843  31.6225163  55.5676199  82.1052315  32.1930800
  40.8924267  73.3166089  40.4414869  40.3477735  74.0925897  40.5735143
  41.7703617  73.6636894  40.2833991  47.6811884  66.6477673  32.8195668
  47.8027795  65.7194319  33.0186555  47.3913926  66.6616359  31.9073983
  56.0622480  80.6218185  29.4748209  56.7573385  81.2424877  29.6935523
  56.4045630  79.7713536  29.7500586  57.9613903  78.0717890  31.0035539
  58.4865227  78.4105163  30.2784859  57.8736256  77.1364905  30.8198674
  49.6233952  81.9851964  43.1325416  49.9321078  81.7401110  44.0048116
  50.4209434  82.1898602  42.6444286  49.6454564  84.1389873  35.3630793
  49.2059554  83.6466252  36.0563649  50.3962681  83.5962841  35.1222868
  42.1246903  80.3301414  35.3655421  42.9504923  80.0305186  34.9854064
  41.7740955  79.5609037  35.8145209  47.0928436  79.6827882  37.4353094
  46.4708445  79.0198587  37.1355322  47.7633303  79.7089014  36.7526742
  40.3255508  78.2487741  36.3244354  39.4887416  77.8209915  36.1428355
  40.2979153  78.4420184  37.2615145  57.6507809  78.7050794  46.3086737
  56.8603353  78.6874933  45.7691237  57.4141164  79.2439087  47.0635774
  57.7705684  75.5543260  43.6219466  57.8203689  75.3893268  44.5634989
  57.6619608  74.6870519  43.2317347  46.6541943  78.2331806  30.9111555
  46.8030063  78.9167270  30.2578228  47.4608386  78.2136896  31.4261010
  55.0609447  71.5374188  44.9378773  55.9619309  71.3980653  44.6462770
  55.1357421  71.7028643  45.8776950  59.2723881  77.9740202  43.8661487
  58.9808689  78.3370182  44.7024948  58.6596012  77.2607210  43.6874819
  60.4719563  75.5393081  36.3864058  61.3066455  75.9782885  36.5501618
  60.6078692  75.0631735  35.5672303  57.5211069  73.0972816  42.3341545
  57.9965191  73.2900463  41.5260397  56.5976635  73.1532002  42.0884929
  44.4094576  74.2596983  31.9172624  44.1640618  73.3559313  32.1152834
  44.5790490  74.2614134  30.9752102  43.6790223  69.9925341  29.4158785
  42.9859468  70.0669696  28.7598821  43.4341975  69.2285685  29.9380302
  50.1537348  80.7279936  28.3823302  49.5811316  81.3470123  27.9293774
  50.7270142  81.2779298  28.9163224  56.2212738  69.9738576  40.5669851
  57.1730161  70.0736674  40.5882075  56.0516189  69.1816845  41.0767935
  53.3734608  81.0117086  29.5131884  54.3065281  80.9462648  29.7164760
  53.2857821  81.8473353  29.0546417  56.0022625  80.3282957  26.4735832
  55.9236256  79.9942820  27.3671590  56.8232292  80.8204725  26.4727304
  58.7000816  73.1944696  39.6812151  58.6677136  72.2560697  39.8671834
  59.3101440  73.2728733  38.9477976  50.5384147  72.0640749  25.7239355
  51.4843252  71.9346957  25.7927773  50.1598392  71.3255411  26.2008783
  58.8495305  69.9855739  39.7270434  58.3334353  69.2014196  39.5400363
  59.7335253  69.6574456  39.8916953  62.5992663  72.3968565  39.4192639
  61.8725827  72.2624530  38.8109130  62.1839950  72.7045394  40.2249357
  48.7227064  69.9890725  25.6594240  47.8158520  69.6923838  25.7356954
  49.0003045  69.6920543  24.7928526  39.6405004  71.3097089  36.1093286
  39.3207789  70.4562397  35.8167660  39.0938433  71.5245667  36.8651254
  43.4184912  74.0259530  39.8262793  43.6370922  74.9576638  39.8450827
  43.8310686  73.6667504  40.6117597  50.3389130  64.5327615  31.8138481
  49.5289858  64.1874700  32.1893727  51.0273547  64.2235159  32.4026093
  52.2679678  63.6105662  33.4362778  52.8210717  64.0301115  34.0952801
  52.5049764  62.6841410  33.4785734  47.4925849  66.8477661  25.8006219
  48.3545013  67.1732559  26.0602036  47.6776193  66.0609156  25.2879285
  39.5093264  74.9300000  38.0786408  38.8156736  74.5153953  37.5656362
  40.2566256  74.9720537  37.4819827  55.6458485  65.7206187  32.9441442
  55.0657154  66.3790991  32.5619495  55.3794418  64.8983532  32.5328860
  54.0962052  65.1211245  35.1462762  54.5961830  65.2327779  34.3377081
  54.7397660  64.8172298  35.7863571  41.4230007  74.8618254  35.9552423
  41.4000695  74.9605941  35.0034306  41.7330644  75.7083405  36.2769589
  44.0817385  76.9194409  40.0699037  45.0360638  76.8878351  40.0028969
  43.8829908  76.4585033  40.8849263  54.4283363  67.8806277  31.9997790
  53.5409218  68.1655928  31.7817985  54.8437352  67.7200041  31.1525067
  57.7797899  67.9052798  35.7152130  58.5558289  68.3949251  35.9876746
  57.0546034  68.3310853  36.1723999  42.4367614  82.4614029  37.0869235
  42.3022082  81.7014429  36.5207233  42.0199676  83.1854928  36.6198024
  53.5726577  77.6450952  26.0945810  54.2762427  77.8500955  26.7103466
  52.8489225  78.2127714  26.3594894  54.4024387  73.3960813  32.2148081
  54.3459588  73.8529365  31.3755713  54.9552729  72.6351498  32.0370923
  58.2129193  69.1850545  33.0398200  57.9566127  68.7847181  33.8706408
  57.5882061  69.8994339  32.9148339  45.5936740  83.3583346  37.2987678
  45.4769124  84.3028778  37.1966368  44.7729186  83.0556907  37.6873477
  55.4813274  78.0833481  28.1444270  56.3158878  77.6514680  27.9621745
  55.3197617  77.9115495  29.0721165  55.1359166  74.5865595  29.5100610
  55.0807970  74.4209866  28.5689054  54.5105222  75.2941628  29.6662799
  48.4455292  64.0873704  29.0885928  48.4333962  65.0315544  29.2454199
  49.3378714  63.9043849  28.7945389  46.6191254  84.0111607  40.5143606
  47.5218500  84.0435218  40.8310101  46.3928624  83.0812058  40.5289942
  48.3744856  82.7642594  37.1753685  47.4240487  82.7644456  37.0618057
  48.6777342  82.0175329  36.6589719  64.1097549  88.6003132  38.2399447
  64.7475959  88.4809880  37.5362787  63.9918392  89.5483976  38.2987399
  60.9187255  88.5530561  38.1760972  60.5805767  88.4371625  37.2881507
  61.7877024  88.1521726  38.1561978  56.7774071  90.4066037  34.1657863
  56.2138936  90.3155974  33.3974151  56.6626466  89.5865941  34.6460355
  61.4007038  89.7065412  44.1347177  61.3895679  89.3118211  43.2627681
  61.5627678  88.9731485  44.7280949  54.3238503  91.9017229  37.0042083
  55.1159795  91.5608053  36.5888383  54.5635153  92.0112204  37.9244237
  62.3573630  94.0737005  29.4772328  61.7061610  94.6591085  29.0906341
  63.1517993  94.6043200  29.5367365  56.2829257  91.1626142  29.8759462
  57.0560133  90.6155129  29.7372338  56.6354656  92.0270391  30.0873923
  58.1214300  92.4902524  43.0826361  57.8304166  93.3948155  42.9673028
  58.7571284  92.5319052  43.7970431  59.0470506  89.8679373  39.6727721
  59.6434079  89.6435395  38.9584684  59.1045478  89.1264118  40.2753169
  58.6195535  87.3218808  27.5077912  58.8721056  86.8000329  26.7461375
  57.6820094  87.1584953  27.6104596  63.6638818  86.3254586  35.3152655
  64.4501907  85.9074009  34.9643072  63.9277522  87.2300678  35.4834304
  63.8348895  91.7627437  30.0141312  63.1994728  91.8362063  30.7262217
  63.5046301  92.3521035  29.3360391  69.0647245  86.2629819  36.2185634
  69.7972417  85.6929036  36.4523463  68.3086601  85.8751420  36.6592139
  58.3391824  89.2246914  29.7102287  58.2228082  88.5491817  30.3783371
  58.4494084  88.7379288  28.8934440  60.6823365  88.6857061  33.4148976
  60.3181572  88.1587682  34.1261898  61.5390480  88.2955530  33.2415462
  66.5872665  79.9751394  40.6780242  66.2555990  80.8446805  40.4541457
  65.9918279  79.6587678  41.3574273  60.3228852  83.7146961  28.4110325
  60.4903254  84.5827197  28.7780796  60.1326021  83.8774242  27.4871614
  63.0804185  92.1763940  40.0776155  62.7804908  93.0788978  39.9691962
  62.7355244  91.9096123  40.9297308  56.5316666  88.6277736  36.1112859
  55.6067163  88.4953951  36.3190551  56.7801079  89.4071956  36.6082802
  66.4801328  84.6946480  37.7573592  65.5718206  84.6261888  37.4632353
  66.4288924  85.1718425  38.5855418  60.3018072  86.1704618  29.3956992
  60.1817698  86.6161669  30.2342472  59.6070661  86.5189936  28.8370530
  53.8925477  88.2711010  36.9456649  54.0217858  88.5245489  37.8596060
  53.2122929  88.8638718  36.6261304  58.0624965  98.9408260  33.0447123
  57.9848994  99.8916085  33.1235603  57.4586608  98.5954132  33.7022049
  60.5542194  86.1136125  45.7008490  59.7775528  86.6730045  45.6911354
  61.1932757  86.5992908  46.2223360  68.3462975  82.8962918  39.5351466
  67.7037355  83.1895451  38.8891261  67.8417903  82.7815838  40.3404663
  66.0003139  86.6426091  30.2237326  66.9120995  86.8753478  30.0485023
  65.4912786  87.2263136  29.6612404  58.8088567  88.9221579  45.2626457
  59.5503251  89.4606623  44.9861280  58.1025552  89.5487867  45.4198008
  64.2843906  91.0650719  43.8598618  64.6927262  90.6233130  43.1153250
  63.5621168  90.4903347  44.1132811  60.6374976  86.0023326  41.2332175
  61.4836171  86.4262739  41.3766824  60.5773614  85.3456950  41.9270738
  64.6072721  91.6251910  37.6150907  63.9781583  91.7897624  36.9126975
  64.2198383  92.0393519  38.3861871  68.4861953  92.5606348  34.9695271
  67.8012991  92.9405249  34.4192304  68.5705802  93.1701674  35.7027219
  63.7874422  83.6627694  42.8913349  63.5435353  84.4169755  42.3547624
  64.0634352  84.0413042  43.7260596  65.7412884  90.2066307  41.5690614
  65.9529780  90.8498067  40.8924995  65.6942633  89.3728623  41.1012544
  63.3439113  82.8184127  38.4727186  62.4823592  83.1165381  38.7643924
  63.3701548  83.0354526  37.5408219  60.1600683  91.3626318  34.8800992
  60.6239028  91.6414021  34.0905615  59.8957481  90.4609762  34.6974083
  57.0524764  90.9097799  37.8180755  57.6226121  91.3385068  37.1798240
  57.6432876  90.6280384  38.5164941  59.0969569  87.4849470  31.6890557
  59.7993612  87.9370514  32.1564484  58.7650197  86.8433289  32.3170450
  57.5449930  86.0761227  46.0641767  56.9148591  86.7577508  46.2977163
  57.4386018  85.9644308  45.1194905  52.8394903  85.7433023  36.9907691
  52.0493957  85.9990551  36.5147801  53.3306150  86.5581361  37.0959731
  66.8558712  93.0838262  39.7412972  67.6776156  92.6818449  39.4595653
  66.8521115  92.9806496  40.6929087  54.7909648  86.1077602  33.9491168
  53.9940811  86.2196296  34.4674663  54.5635240  86.4464254  33.0832058
  60.6215316  92.6322305  41.8973682  60.6859748  93.0942713  42.7331854
  59.9126240  92.0019670  42.0255992  51.1232606  85.9963513  39.4222682
  51.3740644  86.8810523  39.6880258  51.6592154  85.8168115  38.6497773
  74.9464705  89.4277011  36.0897943  74.1928414  88.8584409  35.9341948
  75.0812247  89.3939675  37.0368578  60.3363333  94.2990413  31.7652662
  60.2009008  95.1441949  32.1937510  60.8773146  94.5009691  31.0018596
  56.8230673  80.3781993  48.4267018  56.4297619  79.8248191  49.1014662
  57.6396813  80.6892571  48.8173535  53.7892731  91.8165851  32.3380588
  54.3017251  92.6109101  32.4886152  54.4415444  91.1192141  32.2714189
  55.5987616  94.9331607  34.4203341  55.7754244  95.8549572  34.2324325
  56.3944449  94.6190026  34.8497721  59.7398634  81.7939872  46.0187274
  60.4808347  82.3947025  45.9391737  59.9716557  81.0517510  45.4605317
  54.8839972  86.9796239  44.2965504  54.7693487  86.0781496  44.5972603
  54.0284490  87.2259936  43.9450320  61.9631810  94.9213979  45.8953005
  61.5195664  94.1350358  45.5773909  62.6249023  95.1093130  45.2296895
  56.7218931  96.4509781  40.4213683  57.2726356  96.3226844  39.6490677
  55.8830407  96.7504670  40.0708576  64.0613048  95.2016779  43.9234406
  64.0431523  96.0225660  43.4314675  64.9832968  95.0770855  44.1484547
  60.5186102  92.7160909  44.7657914  61.0514439  91.9549197  44.5357222
  59.9900183  92.4234561  45.5082069  63.6855797  77.8220975  40.2951556
  63.3420066  78.7122616  40.2190667  64.0534760  77.6322632  39.4321141
  51.7541648  90.1454505  33.1140158  52.5916870  90.5551514  32.8973866
  51.9319915  89.2053947  33.0840352  63.6506080  87.8129586  28.8023991
  63.1352703  88.5834190  29.0412378  63.3783388  87.1394722  29.4257052
  61.2353191  82.6579287  33.8609229  60.3794787  82.2686137  33.6814868
  61.6480143  82.7371247  33.0009015  62.7652337  80.1925630  38.2600789
  62.2617133  80.1555765  37.4468594  63.0582944  81.1018373  38.3197446
  59.0095223  80.2764360  37.2666971  59.8748220  80.0807168  36.9072860
  59.0772732  80.0474711  38.1936328  68.6240354  90.5661940  30.7377165
  67.8469797  90.2273100  30.2932327  69.3031835  90.5714564  30.0632130
  63.4392383  85.6856678  30.6283772  63.1342518  86.0002827  31.4793915
  64.3922825  85.7638098  30.6711105  61.8838815  91.8446901  32.2776726
  61.3560176  91.1099661  31.9649964  61.3826317  92.6221578  32.0316695
  66.8631661  90.0395922  37.3943773  66.2055335  90.7295183  37.4823901
  67.6672060  90.4292354  37.7377759  56.6157542  82.5066568  34.6383338
  57.1901294  82.2841749  33.9056531  57.2028525  82.5755262  35.3911939
  65.6737120  88.3940294  35.4447714  66.1869001  89.0270286  35.9469424
  66.3238343  87.7941490  35.0791074  56.9427129  84.5371029  28.6579223
  56.1064442  84.8745715  28.9788498  56.8031899  84.4020008  27.7206360
  58.9180210  79.3807816  33.3658407  58.2644622  79.0656834  32.7415022
  58.8760684  78.7583557  34.0918230  60.0291415  89.6627112  25.2811699
  59.1218477  89.4316365  25.4802848  60.5262447  88.8664731  25.4685681
  62.9359494  98.3724619  28.2008385  62.2621193  98.6756315  28.8093343
  63.3225316  99.1753699  27.8513842  62.1517950  85.8689750  37.6906055
  61.2340512  86.0904697  37.5327743  62.5678094  85.9436060  36.8317762
  62.9352998  87.2681166  32.8208735  63.6824817  87.7802563  32.5115857
  63.2044588  86.9465218  33.6813129  61.2079648  89.7639706  29.8035689
  60.2990868  89.4798739  29.9008159  61.2374732  90.1838785  28.9438996
  66.4398916  93.3746296  33.5726857  65.9861243  92.5337206  33.6292047
  65.8092882  94.0107694  33.9101637  65.3831835  84.3038282  34.8027524
  64.6454592  83.7915668  35.1337767  65.6358609  83.8638664  33.9910801
  64.8831855  95.2122793  34.5076675  65.1754829  95.7727850  33.7889041
  65.3930476  95.5051354  35.2629834  65.4843463  77.0814534  35.3969294
  65.7902339  76.2211897  35.1095209  66.2096067  77.6732154  35.1968288
  51.7767819  87.4845221  33.7850892  51.5792219  86.8914581  33.0601958
  51.2214483  87.1797431  34.5026830  59.7564542  87.3768327  35.9045485
  59.8113152  86.4242163  35.8287961  58.9455744  87.5327766  36.3886783
  60.9055736  91.3048450  27.1423768  60.4675166  90.5884309  26.6829405
  61.6466177  91.5324565  26.5808859  57.6956902  85.9945387  33.6635864
  56.8824768  86.2939557  34.0701056  58.1915896  85.6001076  34.3810346
  59.8465480  95.9903144  35.5970128  59.8041659  96.2163990  34.6678660
  60.7628179  95.7566518  35.7455929  63.2931114  86.4587211  42.4950757
  63.6480502  86.6858684  43.3545223  63.9403245  86.7905588  41.8728013
  69.0228851  89.5805647  33.2000086  68.8846750  89.7707243  32.2721276
  68.6665070  90.3425030  33.6568138  57.1870977  83.5663742  39.2797099
  57.8270356  83.4252501  38.5820062  56.3548508  83.2798256  38.9035700
  69.0498231  91.6482174  38.2111358  69.4834737  91.5557463  39.0594412
  69.7629811  91.6239675  37.5731374  57.9631281  92.8666173  35.3932091
  58.7571879  92.3716493  35.1914666  57.2522973  92.3384036  35.0299797
  62.7826125  95.2484268  39.7444459  62.8363148  95.8175205  40.5122174
  61.9140907  95.4186153  39.3798496  54.2714044  87.0109254  31.4691844
  53.3411633  86.9493710  31.6861806  54.3671516  86.4885207  30.6728485
  54.1899593  83.5364067  34.0570085  54.4506411  84.4509400  33.9479246
  55.0116766  83.0688510  34.2066698  55.6624519  84.9501824  41.2268910
  56.3347572  84.7419187  40.5781559  54.8354305  84.7523910  40.7874142
  69.9113780  91.6905875  40.7444243  70.1049670  92.5951685  40.9903518
  69.8114398  91.2313294  41.5782828  61.5650091  81.5763765  43.2434571
  60.9178006  82.2753715  43.1499047  62.3351106  82.0099909  43.6110819
  64.9728889  91.8412618  46.3185124  64.8214395  91.6123169  45.4015208
  64.9633568  92.7983219  46.3316469  61.7414225  89.4144530  41.3031390
  62.6706285  89.5655690  41.1300358  61.3205255  89.5028551  40.4480037
  60.5402557  93.4395195  39.0729928  60.4013643  93.0713979  39.9455866
  59.7517153  93.9542834  38.9013886  61.1350709  98.5404291  30.4155465
  61.3102465  98.0692334  31.2301087  60.4483497  99.1670057  30.6436725
  62.0907772  92.8176797  36.4618766  61.7557605  92.7777567  37.3576416
  61.5911718  92.1521513  35.9889176  56.0652016  88.2244427  41.9871347
  55.9271814  87.4924666  42.5882886  56.9756940  88.1353328  41.7055535
  65.0266964  90.1632832  26.7355825  64.4096134  89.4379660  26.6388878
  64.5583452  90.9242192  26.3922900  58.6934317  87.9364387  41.4755027
  59.4033935  87.2957579  41.4341645  58.6503625  88.1877282  42.3981207
  66.6821095  94.8731740  44.3961606  66.6233642  94.1890960  43.7292189
  67.0840614  95.6150730  43.9442232  57.4063251  84.9229605  43.2950666
  56.8700608  84.4720343  43.9472262  56.8179959  85.0575513  42.5521130
  55.7011794 101.6893654  37.1895325  55.9408392 102.3212178  37.8674343
  54.8580991 101.3381694  37.4760684  56.8165510  84.3818256  25.8577130
  55.9394976  84.2607057  25.4939376  57.2923263  83.5904334  25.6056018
  66.6838503  92.8371324  42.6275586  65.7965281  92.4997246  42.7501984
  67.2537054  92.1054355  42.8644351  48.3367650  89.1695416  35.9518637
  49.0238690  88.8557146  35.3639652  48.1815778  90.0736780  35.6785888
  53.1402372  84.0585612  40.3803661  53.0560561  83.4511282  39.6454071
  52.3185078  84.5494631  40.3813157  60.0029436  96.7344546  33.1039650
  59.2196958  97.2766227  33.1977875  60.7022181  97.2518526  33.5033891
  63.3126086  82.5439176  35.7473856  63.8094785  81.7909138  35.4274926
  62.5413067  82.5803492  35.1817065  71.1655843  88.2479541  37.3892147
  71.1545719  89.1304257  37.0186080  70.2973223  87.8951092  37.1946684
  62.6738340  97.3959610  41.7494987  63.3866312  98.0307075  41.6770889
  62.1828368  97.4923476  40.9334989  64.3955867  91.3010863  33.3212279
  63.4612145  91.4212326  33.1516983  64.5732535  90.3983330  33.0572289
  59.8961055  84.6856559  35.4745540  59.5258842  84.1327599  36.1626446
  60.3920147  84.0814692  34.9220540  67.7828418  87.1428182  33.8562313
  68.2488870  87.9756174  33.7822616  68.2335918  86.6773164  34.5607572
  57.7250253  95.1454054  42.5700558  58.4259713  95.7790537  42.7229952
  57.2545368  95.4868785  41.8096197  65.8504649  93.4872004  30.8548465
  66.1264493  93.3728598  31.7642339  64.9809148  93.0889488  30.8160638
  65.7545081  79.5108769  37.8953215  64.8408160  79.7412996  38.0635421
  66.1838182  79.5947213  38.7467247  65.5251539  87.6998661  40.3953109
  64.8722989  87.9474569  39.7405561  65.9031919  86.8862799  40.0615586
  62.4858713  97.7358354  34.4981279  62.6681108  96.9180010  34.9609031
  63.3091699  97.9526047  34.0606169  62.8200878  96.6626540  31.7596327
  63.3488645  96.1518994  31.1466489  63.0829098  96.3469070  32.6241860
  61.5739112  88.4418472  46.8819146  60.8979749  88.3412602  47.5521521
  62.3966746  88.2857686  47.3455143  53.3217971  94.6790409  39.5031661
  53.9071408  93.9334097  39.6359565  53.1242810  94.9894366  40.3868325
  56.1756626  97.7141656  34.5194103  55.5067002  98.1987784  34.0358143
  56.0369496  97.9610877  35.4337482  47.9135626  87.2496009  38.2236104
  47.9519725  86.7159600  39.0173222  47.4075919  86.7231215  37.6047081
  60.3161895  99.7485400  41.1176762  60.8680203  99.9117021  41.8825847
  60.6568088 100.3389838  40.4456786  55.2926388  82.0960550  41.7198646
  55.3567715  82.9575381  41.3076044  55.2293508  81.4834551  40.9871005
  54.7678661  84.1683682  45.3671681  55.3950700  83.7860759  45.9809205
  53.9106580  83.9497884  45.7327373  65.1672769  94.5746657  46.9725416
  65.7112673  95.1876616  46.4780371  64.5859614  95.1326236  47.4892429
  51.5444204  85.9760111  31.2990035  51.8397645  85.0670790  31.2457089
  50.6432239  85.9547851  30.9771038  63.4530282  97.6967375  38.1040444
  63.3281422  96.8957115  37.5951389  64.1109373  98.1913569  37.6154414
  55.0738451  84.0516108  37.2817584  54.3525036  84.6652076  37.1425057
  55.8631706  84.5873873  37.2034230  65.5165191  95.4976395  39.7319994
  64.5695526  95.3781747  39.6598321  65.8647964  94.6098893  39.8146255
  57.8764764  81.3870534  43.5558236  58.3999166  81.6332831  44.3184545
  57.6577097  82.2190569  43.1361373  53.2732045  83.6574209  31.4229361
  52.9444751  82.7771588  31.2404467  53.6271416  83.6021878  32.3105750
  62.5211624  95.2929112  35.9324346  62.3736586  94.3645819  36.1131916
  63.3465117  95.3149202  35.4481421  56.3873868  83.9447179  31.7904838
  56.7269941  84.4733100  31.0683447  56.8345989  84.2827585  32.5663405
  66.1245746  96.1157670  37.0189219  67.0492293  95.9100532  36.8813670
  65.9561049  95.8674072  37.9278560  59.0817309  82.3284229  41.2407906
  58.7414129  81.5292042  41.6428586  58.3756315  82.6285940  40.6684740
  59.7333781  79.4133542  39.6935229  60.5559850  78.9394020  39.5714120
  59.9771844  80.1924026  40.1933916  58.3742015  82.4421800  29.9898131
  59.0950378  82.8203053  29.4861848  57.7507320  83.1610677  30.0933109
  62.5173138  83.1466949  30.9256463  62.7336753  84.0291587  30.6245292
  62.0367205  82.7553163  30.1962105  57.2572360  86.1052663  37.5027208
  57.1116940  86.4192966  38.3951489  56.7797563  86.7237563  36.9498107
  59.1168743  83.0955210  37.5508098  59.1030311  82.1996304  37.2140395
  59.8341171  83.1025874  38.1846384  60.9694873  83.5292551  39.5961225
  60.7112651  84.4509621  39.5945555  60.4379914  83.1322985  40.2861689
  65.9141062  96.6343338  32.3751310  66.0877940  96.0689760  31.6225163
  66.4069953  97.4344233  32.1930800  51.7318022  88.6458007  40.4414869
  51.1871490  89.4217815  40.5735143  52.6097372  88.9928811  40.2833991
  58.5205638  81.9769591  32.8195668  58.6421550  81.0486237  33.0186555
  58.2307681  81.9908277  31.9073983  61.3896829  79.6624501  35.9562387
  61.4118526  79.7263834  35.0014367  61.8064888  78.8229010  36.1502894
  71.7680453  89.3979761  33.9941610  72.2111599  88.6487086  33.5960733
  70.8906963  89.3889897  33.6115342  66.9016235  95.9510102  29.4748209
  67.5967139  96.5716795  29.6935523  67.2439385  95.1005453  29.7500586
  52.5184044  87.7727903  43.3345026  51.7765780  87.9210539  43.9209656
  52.1976788  88.0336169  42.4711775  68.8007658  93.4009808  31.0035539
  69.3258982  93.7397081  30.2784859  68.7130010  92.4656823  30.8198674
  60.4627706  97.3143881  43.1325416  60.7714833  97.0693028  44.0048116
  61.2603188  97.5190520  42.6444286  60.4848318  99.4681791  35.3630793
  60.0453309  98.9758170  36.0563649  61.2356435  98.9254759  35.1222868
  52.9640657  95.6593332  35.3655421  53.7898677  95.3597104  34.9854064
  52.6134709  94.8900954  35.8145209  57.9322191  95.0119800  37.4353094
  57.3102200  94.3490505  37.1355322  58.6027057  95.0380932  36.7526742
  51.1649262  93.5779658  36.3244354  50.3281171  93.1501833  36.1428355
  51.1372908  93.7712102  37.2615145  58.0046718  83.4901588  47.0285600
  58.0534873  84.3663711  46.6463370  58.5469232  82.9478981  46.4557243
  68.4901564  94.0342711  46.3086737  67.6997107  94.0166850  45.7691237
  68.2534918  94.5731005  47.0635774  68.6099439  90.8835178  43.6219466
  68.6597444  90.7185185  44.5634989  68.5013362  90.0162437  43.2317347
  57.4935697  93.5623723  30.9111555  57.6423818  94.2459188  30.2578228
  58.3002141  93.5428814  31.4261010  65.9003201  86.8666106  44.9378773
  66.8013064  86.7272571  44.6462770  65.9751176  87.0320561  45.8776950
  60.2346006  84.2432961  43.7831959  59.3649316  84.5366527  43.5114547
  60.4705487  84.8273406  44.5039223  70.1117636  93.3032119  43.8661487
  69.8202444  93.6662100  44.7024948  69.4989767  92.5899128  43.6874819
  71.3113318  90.8684999  36.3864058  72.1460209  91.3074803  36.5501618
  71.4472447  90.3923652  35.5672303  68.3604824  88.4264734  42.3341545
  68.8358945  88.6192380  41.5260397  67.4370389  88.4823920  42.0884929
  55.2488330  89.5888901  31.9172624  55.0034372  88.6851231  32.1152834
  55.4184245  89.5906052  30.9752102  62.9385040  80.4612577  41.2997379
  63.4566984  81.1973604  40.9743868  62.5840173  80.7676571  42.1344138
  54.5183978  85.3217259  29.4158785  53.8253223  85.3961614  28.7598821
  54.2735730  84.5577602  29.9380302  63.1897634  76.8812860  36.8198276
  63.4699388  76.2136049  37.4458702  63.9748241  77.0741956  36.3072940
  60.9931103  96.0571854  28.3823302  60.4205070  96.6762041  27.9293774
  61.5663897  96.6071216  28.9163224  67.0606493  85.3030494  40.5669851
  68.0123916  85.4028592  40.5882075  66.8909943  84.5108763  41.0767935
  65.0820872  82.3886077  40.7529252  64.4870804  82.6691090  40.0575741
  64.7970569  82.8779978  41.5245993  64.2128363  96.3409004  29.5131884
  65.1459036  96.2754566  29.7164760  64.1251576  97.1765271  29.0546417
  66.8416379  95.6574874  26.4735832  66.7630011  95.3234738  27.3671590
  67.6626046  96.1496642  26.4727304  69.5394571  88.5236614  39.6812151
  69.5070891  87.5852614  39.8671834  70.1495194  88.6020650  38.9477976
  61.3777901  87.3932667  25.7239355  62.3237006  87.2638875  25.7927773
  60.9992146  86.6547329  26.2008783  69.6889059  85.3147657  39.7270434
  69.1728108  84.5306114  39.5400363  70.5729008  84.9866374  39.8916953
  67.3499786  79.0588673  35.6866247  67.1524607  78.7503761  36.5709578
  67.9599492  79.7850312  35.8164176  75.3571120  89.5852621  38.8218187
  76.0874509  89.3237909  39.3825891  74.7478066  88.8481342  38.8620255
  73.4386418  87.7260483  39.4192639  72.7119581  87.5916448  38.8109130
  73.0233704  88.0337312  40.2249357  61.2616594  91.4450413  47.1840012
  62.1819603  91.6229012  47.3780058  61.2266177  90.5006458  47.0319711
  59.5620819  85.3182643  25.6594240  58.6552274  85.0215756  25.7356954
  59.8396800  85.0212461  24.7928526  50.4798759  86.6389006  36.1093286
  50.1601543  85.7854315  35.8167660  49.9332187  86.8537585  36.8651254
  54.2578667  89.3551447  39.8262793  54.4764676  90.2868555  39.8450827
  54.6704440  88.9959422  40.6117597  61.1782884  79.8619533  31.8138481
  60.3683613  79.5166618  32.1893727  61.8667301  79.5527076  32.4026093
  63.1073433  78.9397580  33.4362778  63.6604471  79.3593033  34.0952801
  63.3443519  78.0133328  33.4785734  59.1306532  84.9284653  49.2165542
  59.0303259  85.8779010  49.1477633  58.9128074  84.6002892  48.3441612
  58.3319603  82.1769578  25.8006219  59.1938767  82.5024477  26.0602036
  58.5169947  81.3901074  25.2879285  50.3487019  90.2591918  38.0786408
  49.6550490  89.8445871  37.5656362  51.0960010  90.3012454  37.4819827
  66.4852240  81.0498105  32.9441442  65.9050909  81.7082909  32.5619495
  66.2188172  80.2275449  32.5328860  64.9355806  80.4503162  35.1462762
  65.4355584  80.5619697  34.3377081  65.5791414  80.1464215  35.7863571
  58.9937802  88.3581792  48.0330603  58.5104884  89.1582152  48.2394492
  59.0798741  88.3689737  47.0798047  52.2623762  90.1910172  35.9552423
  52.2394450  90.2897859  35.0034306  52.5724398  91.0375323  36.2769589
  54.9211139  92.2486327  40.0699037  55.8754393  92.2170269  40.0028969
  54.7223663  91.7876950  40.8849263  55.5110522  90.8187443  42.6369835
  56.3303411  91.3131521  42.6604672  55.7847329  89.9019411  42.6087402
  65.2677118  83.2098195  31.9997790  64.3802973  83.4947846  31.7817985
  65.6831107  83.0491958  31.1525067  68.6191654  83.2344716  35.7152130
  69.3952044  83.7241169  35.9876746  67.8939788  83.6602770  36.1723999
  71.0564212  83.9472335  36.7726070  71.6508703  83.7068071  36.0619378
  71.1290796  83.2279466  37.3999607  53.2761368  97.7905946  37.0869235
  53.1415836  97.0306347  36.5207233  52.8593430  98.5146846  36.6198024
  64.4120331  92.9742870  26.0945810  65.1156181  93.1792872  26.7103466
  63.6882980  93.5419632  26.3594894  65.2418141  88.7252731  32.2148081
  65.1853343  89.1821282  31.3755713  65.7946484  87.9643416  32.0370923
  69.0522947  84.5142463  33.0398200  68.7959882  84.1139099  33.8706408
  68.4275815  85.2286257  32.9148339  73.3635285  87.2538536  35.5469491
  72.8034843  87.3231725  36.3201053  72.7578789  87.0779521  34.8268988
  56.4330494  98.6875263  37.2987678  56.3162878  99.6320696  37.1966368
  55.6122940  98.3848825  37.6873477  66.3207029  93.4125399  28.1444270
  67.1552633  92.9806597  27.9621745  66.1591372  93.2407413  29.0721165
  65.9752921  89.9157512  29.5100610  65.9201725  89.7501784  28.5689054
  65.3498976  90.6233545  29.6662799  50.7645436  85.1525577  43.3362032
  51.4104299  84.6424531  43.8249257  50.5562587  85.8894258  43.9105457
  63.2898828  92.2206424  48.8354172  64.1589988  92.3947076  48.4740807
  62.8105579  93.0400841  48.7129902  59.2849046  79.4165621  29.0885928
  59.2727716  80.3607461  29.2454199  60.1772468  79.2335767  28.7945389
  57.4585008  99.3403525  40.5143606  58.3612255  99.3727135  40.8310101
  57.2322378  98.4103976  40.5289942  59.2138610  98.0934512  37.1753685
  58.2634241  98.0936373  37.0618057  59.5171096  97.3467246  36.6589719
  63.1001166  76.0108398  33.3431865  62.3333562  75.4566885  33.4888547
  63.5111871  76.0830267  34.2046017  55.1042927  82.2993194  47.4337046
  55.9674388  81.9429999  47.6440371  54.5308337  81.9607089  48.1212450
  71.7581010 103.8822478  38.1760972  71.4199521 103.7663543  37.2881507
  72.6270778 103.4813643  38.1561978  67.6167826 105.7357955  34.1657863
  67.0532691 105.6447892  33.3974151  67.5020221 104.9157859  34.6460355
  72.2400793 105.0357330  44.1347177  72.2289434 104.6410128  43.2627681
  72.4021432 104.3023403  44.7280949  65.1632258 107.2309146  37.0042083
  65.9553550 106.8899971  36.5888383  65.4028908 107.3404121  37.9244237
  67.1223012 106.4918059  29.8759462  67.8953888 105.9447047  29.7372338
  67.4748410 107.3562309  30.0873923  69.8864261 105.1971290  39.6727721
  70.4827833 104.9727313  38.9584684  69.9439232 104.4556036  40.2753169
  74.5032572 101.6546504  35.3152655  75.2895661 101.2365927  34.9643072
  74.7671277 102.5592596  35.4834304  69.1785578 104.5538832  29.7102287
  69.0621836 103.8783735  30.3783371  69.2887838 104.0671205  28.8934440
  71.5217119 104.0148979  33.4148976  71.1575326 103.4879600  34.1261898
  72.3784235 103.6247448  33.2415462  77.4266420  95.3043311  40.6780242
  77.0949744  96.1738722  40.4541457  76.8312033  94.9879595  41.3574273
  71.1622606  99.0438878  28.4110325  71.3297008  99.9119115  28.7780796
  70.9719775  99.2066160  27.4871614  67.3710421 103.9569654  36.1112859
  66.4460917 103.8245868  36.3190551  67.6194834 104.7363873  36.6082802
  77.3195083 100.0238397  37.7573592  76.4111960  99.9553806  37.4632353
  77.2682679 100.5010342  38.5855418  71.1411827 101.4996536  29.3956992
  71.0211452 101.9453587  30.2342472  70.4464415 101.8481854  28.8370530
  64.7319232 103.6002928  36.9456649  64.8611613 103.8537407  37.8596060
  64.0516683 104.1930636  36.6261304  71.3935949 101.4428043  45.7008490
  70.6169283 102.0021963  45.6911354  72.0326512 101.9284826  46.2223360
  79.1856729  98.2254836  39.5351466  78.5431110  98.5187369  38.8891261
  78.6811658  98.1107756  40.3404663  69.6482321 104.2513496  45.2626457
  70.3897005 104.7898540  44.9861280  68.9419307 104.8779785  45.4198008
  71.4768731 101.3315244  41.2332175  72.3229926 101.7554657  41.3766824
  71.4167368 100.6748868  41.9270738  74.6268176  98.9919612  42.8913349
  74.3829108  99.7461672  42.3547624  74.9028107  99.3704960  43.7260596
  74.1832868  98.1476045  38.4727186  73.3217347  98.4457299  38.7643924
  74.2095302  98.3646444  37.5408219  67.8918518 106.2389717  37.8180755
  68.4619875 106.6676985  37.1798240  68.4826630 105.9572302  38.5164941
  69.9363323 102.8141388  31.6890557  70.6387367 103.2662432  32.1564484
  69.6043952 102.1725207  32.3170450  68.3843685 101.4053145  46.0641767
  67.7542345 102.0869425  46.2977163  68.2779773 101.2936226  45.1194905
  63.6788657 101.0724941  36.9907691  62.8887711 101.3282469  36.5147801
  64.1699905 101.8873278  37.0959731  65.6303403 101.4369520  33.9491168
  64.8334566 101.5488214  34.4674663  65.4028995 101.7756172  33.0832058
  61.9626360 101.3255431  39.4222682  62.2134399 102.2102441  39.6880258
  62.4985909 101.1460033  38.6497773  67.6624428  95.7073910  48.4267018
  67.2691373  95.1540109  49.1014662  68.4790568  96.0184489  48.8173535
  64.6286485 107.1457769  32.3380588  65.1411006 107.9401019  32.4886152
  65.2809198 106.4484059  32.2714189  70.5792389  97.1231789  46.0187274
  71.3202102  97.7238943  45.9391737  70.8110311  96.3809427  45.4605317
  65.7233727 102.3088157  44.2965504  65.6087242 101.4073414  44.5972603
  64.8678244 102.5551854  43.9450320  74.5249551  93.1512892  40.2951556
  74.1813821  94.0414534  40.2190667  74.8928514  92.9614550  39.4321141
  62.5935402 105.4746423  33.1140158  63.4310624 105.8843431  32.8973866
  62.7713670 104.5345865  33.0840352  72.0746945  97.9871204  33.8609229
  71.2188542  97.5978055  33.6814868  72.4873897  98.0663165  33.0009015
  73.6046092  95.5217548  38.2600789  73.1010887  95.4847683  37.4468594
  73.8976699  96.4310290  38.3197446  69.8488978  95.6056277  37.2666971
  70.7141975  95.4099086  36.9072860  69.9166487  95.3766629  38.1936328
  74.2786137 101.0148596  30.6283772  73.9736273 101.3294745  31.4793915
  75.2316579 101.0930016  30.6711105  67.4551297  97.8358485  34.6383338
  68.0295049  97.6133667  33.9056531  68.0422279  97.9047180  35.3911939
  67.7820884  99.8662946  28.6579223  66.9458196 100.2037633  28.9788498
  67.6425654  99.7311926  27.7206360  69.7573965  94.7099734  33.3658407
  69.1038377  94.3948751  32.7415022  69.7154439  94.0875475  34.0918230
  72.9911705 101.1981668  37.6906055  72.0734266 101.4196615  37.5327743
  73.4071849 101.2727978  36.8317762  73.7746753 102.5973083  32.8208735
  74.5218572 103.1094481  32.5115857  74.0438342 102.2757136  33.6813129
  76.2225590  99.6330200  34.8027524  75.4848347  99.1207586  35.1337767
  76.4752363  99.1930581  33.9910801  76.3237217  92.4106452  35.3969294
  76.6296094  91.5503815  35.1095209  77.0489822  93.0024072  35.1968288
  62.6161573 102.8137138  33.7850892  62.4185973 102.2206499  33.0601958
  62.0608237 102.5089348  34.5026830  70.5958297 102.7060245  35.9045485
  70.6506907 101.7534081  35.8287961  69.7849499 102.8619684  36.3886783
  68.5350657 101.3237304  33.6635864  67.7218522 101.6231475  34.0701056
  69.0309651 100.9292993  34.3810346  74.1324868 101.7879129  42.4950757
  74.4874256 102.0150602  43.3545223  74.7797000 102.1197506  41.8728013
  68.0264732  98.8955660  39.2797099  68.6664111  98.7544419  38.5820062
  67.1942262  98.6090173  38.9035700  65.1107799 102.3401172  31.4691844
  64.1805387 102.2785628  31.6861806  65.2065271 101.8177125  30.6728485
  65.0293348  98.8655985  34.0570085  65.2900165  99.7801318  33.9479246
  65.8510520  98.3980427  34.2066698  66.5018273 100.2793742  41.2268910
  67.1741327 100.0711104  40.5781559  65.6748060 100.0815828  40.7874142
  72.4043845  96.9055683  43.2434571  71.7571760  97.6045633  43.1499047
  73.1744861  97.3391827  43.6110819  66.9045771 103.5536345  41.9871347
  66.7665568 102.8216584  42.5882886  67.8150694 103.4645245  41.7055535
  69.5328071 103.2656304  41.4755027  70.2427690 102.6249497  41.4341645
  69.4897379 103.5169199  42.3981207  68.2457005 100.2521522  43.2950666
  67.7094362  99.8012261  43.9472262  67.6573714 100.3867431  42.5521130
  67.6559264  99.7110174  25.8577130  66.7788730  99.5898974  25.4939376
  68.1317017  98.9196252  25.6056018  59.1761404 104.4987333  35.9518637
  59.8632444 104.1849063  35.3639652  59.0209533 105.4028698  35.6785888
  63.9796126  99.3877530  40.3803661  63.8954315  98.7803200  39.6454071
  63.1578833  99.8786548  40.3813157  74.1519840  97.8731094  35.7473856
  74.6488540  97.1201056  35.4274926  73.3806822  97.9095410  35.1817065
  70.7354809 100.0148477  35.4745540  70.3652597  99.4619517  36.1626446
  71.2313902  99.4106610  34.9220540  76.5938835  94.8400687  37.8953215
  75.6801915  95.0704914  38.0635421  77.0231937  94.9239131  38.7467247
  72.4132867 103.7710390  46.8819146  71.7373504 103.6704519  47.5521521
  73.2360500 103.6149604  47.3455143  58.7529380 102.5787927  38.2236104
  58.7913480 102.0451517  39.0173222  58.2469673 102.0523132  37.6047081
  66.1320143  97.4252467  41.7198646  66.1961469  98.2867298  41.3076044
  66.0687263  96.8126469  40.9871005  65.6072415  99.4975600  45.3671681
  66.2344454  99.1152677  45.9809205  64.7500334  99.2789802  45.7327373
  62.3837958 101.3052029  31.2990035  62.6791399 100.3962707  31.2457089
  61.4825994 101.2839768  30.9771038  65.9132205  99.3808025  37.2817584
  65.1918791  99.9943993  37.1425057  66.7025461  99.9165790  37.2034230
  68.7158519  96.7162452  43.5558236  69.2392920  96.9624749  44.3184545
  68.4970852  97.5482487  43.1361373  64.1125800  98.9866127  31.4229361
  63.7838506  98.1063506  31.2404467  64.4665170  98.9313795  32.3105750
  67.2267623  99.2739096  31.7904838  67.5663695  99.8025018  31.0683447
  67.6739743  99.6119503  32.5663405  69.9211064  97.6576147  41.2407906
  69.5807884  96.8583960  41.6428586  69.2150070  97.9577858  40.6684740
  70.5727535  94.7425460  39.6935229  71.3953605  94.2685938  39.5714120
  70.8165599  95.5215943  40.1933916  69.2135770  97.7713718  29.9898131
  69.9344132  98.1494971  29.4861848  68.5901074  98.4902595  30.0933109
  73.3566893  98.4758867  30.9256463  73.5730507  99.3583505  30.6245292
  72.8760960  98.0845080  30.1962105  68.0966114 101.4344580  37.5027208
  67.9510695 101.7484883  38.3951489  67.6191318 102.0529481  36.9498107
  69.9562497  98.4247128  37.5508098  69.9424066  97.5288221  37.2140395
  70.6734925  98.4317792  38.1846384  71.8088628  98.8584468  39.5961225
  71.5506406  99.7801539  39.5945555  71.2773668  98.4614903  40.2861689
  62.5711776 103.9749925  40.4414869  62.0265244 104.7509733  40.5735143
  63.4491126 104.3220729  40.2833991  69.3599393  97.3061508  32.8195668
  69.4815304  96.3778155  33.0186555  69.0701435  97.3200194  31.9073983
  72.2290583  94.9916419  35.9562387  72.2512280  95.0555752  35.0014367
  72.6458642  94.1520928  36.1502894  63.3577798 103.1019821  43.3345026
  62.6159534 103.2502456  43.9209656  63.0370542 103.3628086  42.4711775
  68.8440473  98.8193506  47.0285600  68.8928628  99.6955629  46.6463370
  69.3862987  98.2770899  46.4557243  71.0739761  99.5724878  43.7831959
  70.2043070  99.8658444  43.5114547  71.3099241 100.1565323  44.5039223
  66.0882085 104.9180819  31.9172624  65.8428127 104.0143149  32.1152834
  66.2577999 104.9197969  30.9752102  73.7778795  95.7904495  41.2997379
  74.2960739  96.5265522  40.9743868  73.4233928  96.0968488  42.1344138
  65.3577732 100.6509176  29.4158785  64.6646977 100.7253531  28.7598821
  65.1129484  99.8869520  29.9380302  74.0291389  92.2104778  36.8198276
  74.3093143  91.5427967  37.4458702  74.8141996  92.4033873  36.3072940
  75.9214627  97.7177995  40.7529252  75.3264559  97.9983008  40.0575741
  75.6364323  98.2071896  41.5245993  78.1893540  94.3880590  35.6866247
  77.9918362  94.0795679  36.5709578  78.7993246  95.1142229  35.8164176
  61.3192513 101.9680924  36.1093286  60.9995298 101.1146232  35.8167660
  60.7725942 102.1829502  36.8651254  65.0972421 104.6843365  39.8262793
  65.3158431 105.6160473  39.8450827  65.5098195 104.3251340  40.6117597
  72.0176639  95.1911450  31.8138481  71.2077367  94.8458535  32.1893727
  72.7061056  94.8818994  32.4026093  73.9467187  94.2689497  33.4362778
  74.4998226  94.6884951  34.0952801  74.1837273  93.3425245  33.4785734
  69.9700286 100.2576571  49.2165542  69.8697013 101.2070928  49.1477633
  69.7521828  99.9294810  48.3441612  69.1713358  97.5061496  25.8006219
  70.0332522  97.8316394  26.0602036  69.3563702  96.7192992  25.2879285
  61.1880773 105.5883836  38.0786408  60.4944245 105.1737788  37.5656362
  61.9353764 105.6304372  37.4819827  77.3245994  96.3790022  32.9441442
  76.7444663  97.0374826  32.5619495  77.0581927  95.5567367  32.5328860
  75.7749561  95.7795080  35.1462762  76.2749339  95.8911615  34.3377081
  76.4185168  95.4756133  35.7863571  69.8331556 103.6873710  48.0330603
  69.3498638 104.4874070  48.2394492  69.9192495 103.6981655  47.0798047
  63.1017516 105.5202089  35.9552423  63.0788204 105.6189777  35.0034306
  63.4118153 106.3667240  36.2769589  65.7604894 107.5778244  40.0699037
  66.7148147 107.5462187  40.0028969  65.5617417 107.1168868  40.8849263
  66.3504276 106.1479360  42.6369835  67.1697165 106.6423439  42.6604672
  66.6241084 105.2311329  42.6087402  76.1070872  98.5390113  31.9997790
  75.2196727  98.8239763  31.7817985  76.5224861  98.3783876  31.1525067
  79.4585408  98.5636634  35.7152130  80.2345798  99.0533086  35.9876746
  78.7333543  98.9894688  36.1723999  61.6039190 100.4817494  43.3362032
  62.2498054  99.9716448  43.8249257  61.3956341 101.2186176  43.9105457
  70.1242801  94.7457539  29.0885928  70.1121471  95.6899379  29.2454199
  71.0166223  94.5627684  28.7945389  73.9394920  91.3400316  33.3431865
  73.1727316  90.7858802  33.4888547  74.3505625  91.4122184  34.2046017
  65.9436681  97.6285111  47.4337046  66.8068143  97.2721916  47.6440371
  65.3702092  97.2899006  48.1212450  18.0432022   5.3959864  30.8592484
  18.0320663   5.0012662  29.9872988  18.2052661   4.6625937  31.4526255
  14.7639283   8.1796976  29.8071668  14.4729149   9.0842607  29.6918334
  15.3996267   8.2213504  30.5215738  19.7229168   7.8658391  26.8021462
  19.4229891   8.7683430  26.6937269  19.3780228   7.5990575  27.6542615
  15.4513550   4.6116031  31.9871763  16.1928234   5.1501075  31.7106587
  14.7450535   5.2382319  32.1443315  20.9268890   6.7545171  30.5843925
  21.3352246   6.3127582  29.8398557  20.2046151   6.1797799  30.8378118
  22.3837868   5.8960759  28.2935921  22.5954763   6.5392518  27.6170302
  22.3367616   5.0623075  27.8257851  23.4983696   8.7732714  26.4658278
  24.3201139   8.3712901  26.1840960  23.4946098   8.6700948  27.4174394
  17.2640299   8.3216757  28.6218989  17.3284732   8.7837164  29.4577161
  16.5551223   7.6914122  28.7501299  18.6056793  10.6108431  32.6198311
  18.1620647   9.8244810  32.3019216  19.2674007  10.7987582  31.9542202
  13.3643914  12.1404233  27.1458990  13.9151339  12.0121296  26.3735984
  12.5255390  12.4399122  26.7953883  20.7038031  10.8911231  30.6479712
  20.6856507  11.7120112  30.1559982  21.6257951  10.7665306  30.8729854
  17.1611085   8.4055361  31.4903221  17.6939422   7.6443649  31.2602529
  16.6325166   8.1129012  32.2327375  25.6923214   7.3376626  24.9356665
  26.1259720   7.2451915  25.7839719  26.4054795   7.3134126  24.2976681
  19.4251109  10.9378720  26.4689765  19.4788131  11.5069656  27.2367481
  18.5565890  11.1080605  26.1043802  26.5538763   7.3800327  27.4689550
  26.7474653   8.2846137  27.7148825  26.4539382   6.9207746  28.3028135
  21.6153872   7.5307069  33.0430431  21.4639378   7.3017621  32.1260514
  21.6058552   8.4877671  33.0561776  23.3246079  10.5626192  31.1206912
  23.2658625   9.8785412  30.4537496  23.7265597  11.3045182  30.6687538
  23.3263486   8.5265776  29.3520892  22.4390265   8.1891698  29.4747291
  23.8962037   7.7948807  29.5889658  16.8564639  13.1867228  26.3182135
  16.7834811  13.9922200  26.8301440  16.4142032  13.3859194  25.4930157
  19.3163323  13.0854062  28.4740294  20.0291295  13.7201527  28.4016195
  18.8253352  13.1817928  27.6580296  14.3675236  10.8348506  29.2945865
  15.0684696  11.4684989  29.4475259  13.8970351  11.1763237  28.5341504
  18.2164095   4.1312924  33.6064452  17.5404732   4.0307054  34.2766828
  19.0391729   3.9752138  34.0700450  16.9586878  15.4379852  27.8422068
  17.5105186  15.6011473  28.6071154  17.2993072  16.0284290  27.1702093
  21.8097753  10.2641109  33.6970723  22.3537657  10.8771067  33.2025678
  21.2284597  10.8220688  34.2137736  20.0955266  13.3861827  24.8285750
  19.9706405  12.5851567  24.3196696  20.7534357  13.8808021  24.3399720
  22.1590174  11.1870847  26.4565301  21.2120509  11.0676198  26.3843627
  22.5072947  10.2993345  26.5391562  22.7670729  11.8052122  23.7434526
  23.6917277  11.5994984  23.6058977  22.5986032  11.5568523  24.6523867
  17.1052690  13.0038333  29.8570723  17.4139816  12.7587480  30.7293422
  17.9028172  13.2084972  29.3689593  25.1326547   9.7237163  33.0332044
  24.3422091   9.7061302  32.4936543  24.8959902  10.2625457  33.7881081
  25.2524422   6.5729630  30.3464773  25.3022427   6.4079637  31.2880295
  25.1438345   5.7056889  29.9562653  22.5428184   2.5560558  31.6624079
  23.4438047   2.4167023  31.3708077  22.6176159   2.7215013  32.6022257
  26.7542619   8.9926571  30.5906794  26.4627427   9.3556552  31.4270255
  26.1414750   8.2793579  30.4120126  25.0029807   4.1159186  29.0586852
  25.4783929   4.3086832  28.2505703  24.0795372   4.1718372  28.8130236
  26.1819554   4.2131066  26.4057457  26.1495874   3.2747066  26.5917141
  26.7920178   4.2915102  25.6723282  31.9996104   5.2747072  25.5463494
  32.7299492   5.0132361  26.1071197  31.3903049   4.5375794  25.5865562
  30.0811401   3.4154935  26.1437945  29.3544564   3.2810900  25.5354437
  29.6658688   3.7231764  26.9494663  17.9041577   7.1344865  33.9085318
  18.8244587   7.3123464  34.1025365  17.8691160   6.1900910  33.7565018
  19.9323811   7.9100876  35.5599479  20.8014971   8.0841528  35.1986114
  19.4530563   8.7295293  35.4375208  14.1009991  15.0297977  27.2388913
  15.0037238  15.0621587  27.5555408  13.8747362  14.0998428  27.2535249
  31.5916287  19.6189502  24.9644754  32.2294697  19.4996249  24.2608094
  31.4737130  20.5670346  25.0232706  28.4005993  19.5716930  24.9006279
  28.0624505  19.4557995  24.0126813  29.2695761  19.1708095  24.8807285
  24.2592809  21.4252406  20.8903169  23.6957674  21.3342343  20.1219457
  24.1445204  20.6052311  21.3705662  28.8825776  20.7251782  30.8592484
  28.8714417  20.3304580  29.9872988  29.0446416  19.9917854  31.4526255
  21.8057241  22.9203598  23.7287390  22.5978533  22.5794423  23.3133689
  22.0453891  23.0298573  24.6489543  29.8392368  25.0923374  16.2017634
  29.1880347  25.6777455  15.8151648  30.6336730  25.6229569  16.2612672
  23.7647995  22.1812511  16.6004769  24.5378871  21.6341498  16.4617645
  24.1173394  23.0456761  16.8119230  25.6033037  23.5088894  29.8071668
  25.3122903  24.4134524  29.6918334  26.2390022  23.5505421  30.5215738
  26.5289244  20.8865742  26.3973028  27.1252817  20.6621765  25.6829991
  26.5864216  20.1450488  26.9998476  31.1457555  17.3440956  22.0397962
  31.9320645  16.9260379  21.6888379  31.4096260  18.2487048  22.2079610
  31.3167633  22.7813806  16.7386619  30.6813466  22.8548433  17.4507523
  30.9865039  23.3707405  16.0605698  36.5465983  17.2816189  22.9430940
  37.2791155  16.7115406  23.1768770  35.7905338  16.8937789  23.3837446
  28.1642102  19.7043431  20.1394283  27.8000310  19.1774051  20.8507204
  29.0209218  19.3141900  19.9660768  34.0691403  10.9937763  27.4025549
  33.7374728  11.8633174  27.1786764  33.4737016  10.6774047  28.0819579
  30.5622922  23.1950309  26.8021462  30.2623646  24.0975348  26.6937269
  30.2173982  22.9282492  27.6542615  24.0135404  19.6464106  22.8358166
  23.0885900  19.5140320  23.0435858  24.2619817  20.4258325  23.3328109
  33.9620066  15.7132849  24.4818899  33.0536944  15.6448258  24.1877660
  33.9107662  16.1904794  25.3100724  21.3744215  19.2897380  23.6701955
  21.5036596  19.5431858  24.5841367  20.6941666  19.8825088  23.3506610
  25.5443702  29.9594629  19.7692429  25.4667732  30.9102455  19.8480910
  24.9405346  29.6140502  20.4267356  28.0360932  17.1322495  32.4253796
  27.2594266  17.6916415  32.4156661  28.6751495  17.6179278  32.9468666
  35.8281713  13.9149288  26.2596773  35.1856093  14.2081821  25.6136568
  35.3236641  13.8002208  27.0649970  33.4821876  17.6612461  16.9482632
  34.3939732  17.8939848  16.7730330  32.9731523  18.2449505  16.3857711
  26.2907304  19.9407948  31.9871763  27.0321989  20.4792992  31.7106587
  25.5844290  20.5674237  32.1443315  31.7662644  22.0837089  30.5843925
  32.1746000  21.6419499  29.8398557  31.0439906  21.5089716  30.8378118
  28.1193714  17.0209695  27.9577482  28.9654909  17.4449109  28.1012131
  28.0592352  16.3643320  28.6516045  32.0891459  22.6438279  24.3396214
  31.4600321  22.8083993  23.6372282  31.7017121  23.0579889  25.1107178
  35.9680691  23.5792717  21.6940577  35.2831729  23.9591619  21.1437611
  36.0524540  24.1888044  22.4272525  31.2693159  14.6814064  29.6158655
  31.0254091  15.4356124  29.0792931  31.5453090  15.0599411  30.4505902
  33.2231622  21.2252676  28.2935921  33.4348517  21.8684436  27.6170302
  33.1761370  20.3914993  27.8257851  30.8257851  13.8370497  25.1972493
  29.9642330  14.1351750  25.4889231  30.8520286  14.0540896  24.2653526
  27.6419421  22.3812687  21.6046299  28.1057766  22.6600390  20.8150921
  27.3776219  21.4796132  21.4219389  24.5343502  21.9284169  24.5426062
  25.1044859  22.3571437  23.9043547  25.1251613  21.6466754  25.2410248
  26.5788307  18.5035840  18.4135864  27.2812350  18.9556883  18.8809790
  26.2468935  17.8619659  19.0415757  25.0268668  17.0947596  32.7887073
  24.3967329  17.7763877  33.0222470  24.9204756  16.9830678  31.8440212
  20.3213641  16.7619392  23.7152997  19.5312695  17.0176921  23.2393108
  20.8124888  17.5767730  23.8205038  34.3377450  24.1024632  26.4658278
  35.1594894  23.7004819  26.1840960  34.3339853  23.9992866  27.4174394
  22.2728386  17.1263972  20.6736474  21.4759549  17.2382666  21.1919970
  22.0453978  17.4650624  19.8077365  28.1034054  23.6508675  28.6218989
  28.1678486  24.1129082  29.4577161  27.3944977  23.0206040  28.7501299
  18.6051344  17.0149883  26.1467988  18.8559382  17.8996893  26.4125564
  19.1410892  16.8354484  25.3743080  42.4283443  20.4463380  22.8143250
  41.6747152  19.8770778  22.6587254  42.5630984  20.4126045  23.7613884
  27.8182071  25.3176782  18.4897969  27.6827746  26.1628318  18.9182817
  28.3591884  25.5196060  17.7263903  24.3049411  11.3968362  35.1512324
  23.9116356  10.8434561  35.8259969  25.1215551  11.7078941  35.5418842
  21.2711469  22.8352220  19.0625894  21.7835989  23.6295471  19.2131459
  21.9234181  22.1378511  18.9959496  23.0806353  25.9517977  21.1448647
  23.2572982  26.8735941  20.9569631  23.8763187  25.6376396  21.5743027
  27.2217372  12.8126241  32.7432581  27.9627085  13.4133395  32.6637043
  27.4535295  12.0703879  32.1850623  22.3658710  17.9982609  31.0210811
  22.2512225  17.0967866  31.3217909  21.5103228  18.2446305  30.6695627
  29.4450548  25.9400349  32.6198311  29.0014402  25.1536727  32.3019216
  30.1067761  26.1279499  31.9542202  24.2037669  27.4696151  27.1458990
  24.7545094  27.3413214  26.3735984  23.3649145  27.7691040  26.7953883
  31.5431786  26.2203149  30.6479712  31.5250261  27.0412030  30.1559982
  32.4651706  26.0957224  30.8729854  28.0004840  23.7347278  31.4903221
  28.5333177  22.9735567  31.2602529  27.4718921  23.4420930  32.2327375
  31.1674535   8.8407344  27.0196863  30.8238804   9.7308986  26.9435973
  31.5353497   8.6509002  26.1566448  19.2360385  21.1640875  19.8385465
  20.0735607  21.5737883  19.6219172  19.4138653  20.2240317  19.8085659
  31.1324817  18.8315955  15.5269298  30.6171441  19.6020560  15.7657685
  30.8602126  18.1581092  16.1502359  28.7171929  13.6765656  20.5854536
  27.8613525  13.2872507  20.4060175  29.1298880  13.7557617  19.7254322
  30.2471075  11.2111999  24.9846096  29.7435871  11.1742135  24.1713901
  30.5401682  12.1204742  25.0442752  26.4913961  11.2950729  23.9912278
  27.3566958  11.0993538  23.6318167  26.5591470  11.0661081  24.9181634
  36.1059092  21.5848310  17.4622471  35.3288534  21.2459470  17.0177633
  36.7850573  21.5900933  16.7877436  30.9211121  16.7043048  17.3529079
  30.6161256  17.0189197  18.2039222  31.8741563  16.7824467  17.3956412
  29.3657553  22.8633271  19.0022033  28.8378914  22.1286030  18.6895270
  28.8645055  23.6407947  18.7562001  34.3450399  21.0582291  24.1189079
  33.6874073  21.7481553  24.2069208  35.1490798  21.4478723  24.4623066
  33.1555857  19.4126664  22.1693021  33.6687739  20.0456656  22.6714731
  33.8057081  18.8127860  21.8036381  30.4178232  29.3910988  14.9253692
  29.7439930  29.6942685  15.5338650  30.8044054  30.1940069  14.5759149
  29.6336688  16.8876120  24.4151361  28.7159250  17.1091067  24.2573049
  30.0496832  16.9622430  23.5563069  30.4171736  18.2867535  19.5454042
  31.1643555  18.7988932  19.2361164  30.6863325  17.9651588  20.4058435
  28.6898386  20.7826076  16.5280996  27.7809605  20.4985109  16.6253466
  28.7193470  21.2025155  15.6684303  33.9217654  24.3932665  20.2972164
  33.4679981  23.5523575  20.3537354  33.2911620  25.0294064  20.6346944
  32.8650573  15.3224651  21.5272831  32.1273330  14.8102038  21.8583074
  33.1177347  14.8825033  20.7156108  32.3650593  26.2309162  21.2321982
  32.6573567  26.7914219  20.5134347  32.8749213  26.5237723  21.9875141
  32.9662200   8.1000903  22.1214600  33.2721077   7.2398267  21.8340515
  33.6914805   8.6918524  21.9213594  27.2383280  18.3954697  22.6290791
  27.2931890  17.4428533  22.5533268  26.4274482  18.5514136  23.1132090
  25.1775640  17.0131756  20.3881170  24.3643506  17.3125927  20.7946362
  25.6734634  16.6187445  21.1055652  27.3284218  27.0089513  22.3215435
  27.2860397  27.2350360  21.3923967  28.2446917  26.7752888  22.4701236
  30.7749852  17.4773581  29.2196064  31.1299239  17.7045054  30.0790530
  31.4221983  17.8091958  28.5973319  36.5047589  20.5992017  19.9245393
  36.3665487  20.7893613  18.9966582  36.1483808  21.3611399  20.3813444
  24.6689715  14.5850112  26.0042405  25.3089094  14.4438871  25.3065368
  23.8367245  14.2984625  25.6281007  36.5316968  22.6668544  24.9356665
  36.9653475  22.5743833  25.7839719  37.2448549  22.6426044  24.2976681
  25.4450019  23.8852542  22.1177398  26.2390617  23.3902862  21.9159973
  24.7341711  23.3570405  21.7545103  30.2644863  26.2670638  26.4689765
  30.3181886  26.8361574  27.2367481  29.3959645  26.4372523  26.1043802
  23.1443257  15.9688194  27.9514216  23.8166310  15.7605556  27.3026865
  22.3173043  15.7710280  27.5119449  37.3932518  22.7092244  27.4689550
  37.5868408  23.6138055  27.7148825  37.2933136  22.2499663  28.3028135
  29.0468829  12.5950135  29.9679877  28.3996744  13.2940085  29.8744354
  29.8169844  13.0286279  30.3356126  32.4547627  22.8598987  33.0430431
  32.3033133  22.6309539  32.1260514  32.4452306  23.8169588  33.0561776
  29.2232963  20.4330900  28.0276697  30.1525023  20.5842059  27.8545664
  28.8023993  20.5214921  27.1725344  28.0221295  24.4581564  25.7975235
  27.8832380  24.0900349  26.6701173  27.2335891  24.9729204  25.6259192
  28.6169447  29.5590661  17.1400771  28.7921202  29.0878704  17.9546394
  27.9302235  30.1856427  17.3682032  29.5726510  23.8363167  23.1864072
  29.2376342  23.7963937  24.0821722  29.0730456  23.1707883  22.7134483
  23.5470754  19.2430797  28.7116654  23.4090552  18.5111036  29.3128193
  24.4575677  19.1539697  28.4300841  26.1753055  18.9550756  28.2000333
  26.8852673  18.3143948  28.1586952  26.1322363  19.2063651  29.1226514
  34.1639833  25.8918110  31.1206912  34.1052379  25.2077330  30.4537496
  34.5659352  26.6337100  30.6687538  24.8881988  15.9415974  30.0195973
  24.3519346  15.4906713  30.6717569  24.2998697  16.0761883  29.2766437
  23.1830532  32.7080023  23.9140631  23.4227130  33.3398548  24.5919650
  22.3399728  32.3568063  24.2005991  34.1657240  23.8557694  29.3520892
  33.2784019  23.5183615  29.4747291  34.7355792  23.1240725  29.5889658
  15.8186388  20.1881785  22.6763944  16.5057427  19.8743515  22.0884959
  15.6634516  21.0923150  22.4031195  20.6221110  15.0771982  27.1048967
  20.5379298  14.4697651  26.3699377  19.8003816  15.5681000  27.1058464
  27.6958394  28.5159146  26.3182135  27.6228565  29.3214117  26.8301440
  27.2535787  28.7151112  25.4930157  27.4848173  27.7530916  19.8284957
  26.7015695  28.2952596  19.9223181  28.1840919  28.2704896  20.2279198
  30.7944824  13.5625545  22.4719162  31.2913523  12.8095508  22.1520233
  30.0231805  13.5989862  21.9062372  38.6474581  19.2665911  24.1137454
  38.6364457  20.1490626  23.7431387  37.7791960  18.9137462  23.9191991
  30.1557077  28.4145980  28.4740294  30.8685050  29.0493445  28.4016195
  29.6647106  28.5109846  27.6580296  31.8774604  22.3197233  20.0457586
  30.9430883  22.4398695  19.8762290  32.0551273  21.4169699  19.7817596
  27.3779792  15.7042928  22.1990847  27.0077580  15.1513969  22.8871752
  27.8738885  15.1001062  21.6465847  35.2647156  18.1614552  20.5807620
  35.7307608  18.9942543  20.5067923  35.7154656  17.6959533  21.2852878
  25.2068991  26.1640423  29.2945865  25.9078450  26.7976906  29.4475259
  24.7364106  26.5055155  28.5341504  33.3323387  24.5058373  17.5793772
  33.6083231  24.3914968  18.4887646  32.4627885  24.1075858  17.5405945
  33.2363818  10.5295139  24.6198521  32.3226898  10.7599366  24.7880728
  33.6656920  10.6133583  25.4712554  33.0070277  18.7185031  27.1198415
  32.3541727  18.9660938  26.4650868  33.3850657  17.9049169  26.7860892
  29.9677451  28.7544724  21.2226586  30.1499845  27.9366380  21.6854338
  30.7910437  28.9712416  20.7851475  30.3019616  27.6812909  18.4841634
  30.8307383  27.1705364  17.8711796  30.5647836  27.3655439  19.3487167
  20.8036709  25.6976778  26.2276968  21.3890146  24.9520466  26.3604872
  20.6061547  26.0080735  27.1113631  23.6575364  28.7328026  21.2439410
  22.9885739  29.2174153  20.7603450  23.5188234  28.9797246  22.1582788
  15.3954364  18.2682379  24.9481411  15.4338463  17.7345969  25.7418529
  14.8894657  17.7417584  24.3292388  22.7745126  13.1146919  28.4443953
  22.8386452  13.9761750  28.0321351  22.7112246  12.5020921  27.7116312
  22.2497399  15.1870052  32.0916987  22.8769437  14.8047129  32.7054512
  21.3925317  14.9684254  32.4572680  32.6491507  25.5933027  33.6970723
  33.1931411  26.2062985  33.2025678  32.0678352  26.1512605  34.2137736
  30.9349020  28.7153745  24.8285750  30.8100160  27.9143485  24.3196696
  31.5928111  29.2099938  24.3399720  22.5557188  15.0702477  24.0062891
  21.8343774  15.6838445  23.8670364  23.3450444  15.6060242  23.9279537
  32.9983928  26.5162765  26.4565301  32.0514264  26.3968116  26.3843627
  33.3466702  25.6285263  26.5391562  25.3583502  12.4056904  30.2803542
  25.8817904  12.6519200  31.0429852  25.1395835  13.2376939  29.8606680
  30.0030362  26.3115481  22.6569653  29.8555324  25.3832189  22.8377223
  30.8283855  26.3335572  22.1726728  33.6064484  27.1344040  23.7434526
  34.5311031  26.9286901  23.6058977  33.4379787  26.8860441  24.6523867
  26.5636047  13.3470599  27.9653213  26.2232867  12.5478412  28.3673893
  25.8575053  13.6472310  27.3930046  27.2152519  10.4319911  26.4180536
  28.0378588   9.9580390  26.2959426  27.4590582  11.2110395  26.9179222
  24.7391097  17.1239032  24.2272515  24.5935678  17.4379335  25.1196796
  24.2616301  17.7423932  23.6743413  26.5987480  14.1141580  24.2753404
  26.5849049  13.2182673  23.9385702  27.3159908  14.1212244  24.9091690
  28.4513611  14.5478920  26.3206532  28.1931389  15.4695991  26.3190862
  27.9198651  14.1509355  27.0106996  33.3959800  27.6529707  19.0996617
  33.5696677  27.0876130  18.3470469  33.8888691  28.4530602  18.9176107
  19.2136760  19.6644376  27.1660176  18.6690228  20.4404184  27.2980450
  20.0916109  20.0115181  27.0079297  28.8715567  10.6810871  22.6807694
  28.8937263  10.7450204  21.7259674  29.2883626   9.8415379  22.8748200
  39.2499191  20.4166130  20.7186917  39.6930337  19.6673456  20.3206040
  38.3725701  20.4076267  20.3360649  34.3834972  26.9696472  16.1993515
  35.0785877  27.5903164  16.4180830  34.7258122  26.1191823  16.4745893
  20.0002781  18.7914273  30.0590333  19.2584518  18.9396908  30.6454963
  19.6795526  19.0522538  29.1957082  36.2826395  24.4196177  17.7280846
  36.8077719  24.7583450  17.0030166  36.1948748  23.4843193  17.5443981
  27.9667056  30.4868161  22.0876099  27.5272046  29.9944539  22.7808956
  28.7175173  29.9441128  21.8468174  20.4459395  26.6779701  22.0900727
  21.2717415  26.3783473  21.7099371  20.0953447  25.9087324  22.5390516
  25.4140928  26.0306170  24.1598401  24.7920938  25.3676875  23.8600629
  26.0845795  26.0567302  23.4772049  18.6468000  24.5966028  23.0489661
  17.8099908  24.1688202  22.8673662  18.6191646  24.7898471  23.9860452
  25.4865456  14.5087958  33.7530907  25.5353611  15.3850081  33.3708676
  26.0287970  13.9665351  33.1802550  35.9720301  25.0529081  33.0332044
  35.1815845  25.0353220  32.4936543  35.7353656  25.5917375  33.7881081
  36.0918177  21.9021547  30.3464773  36.1416181  21.7371555  31.2880295
  35.9832100  21.0348806  29.9562653  24.9754435  24.5810093  17.6356861
  25.1242556  25.2645557  16.9823534  25.7820879  24.5615183  18.1506317
  33.3821939  17.8852475  31.6624079  34.2831802  17.7458940  31.3708077
  33.4569913  18.0506930  32.6022257  27.7164744  15.2619330  30.5077266
  26.8468054  15.5552896  30.2359854  27.9524225  15.8459775  31.2284529
  37.5936373  24.3218489  30.5906794  37.3021182  24.6848469  31.4270255
  36.9808505  23.6085497  30.4120126  38.7932056  21.8871369  23.1109364
  39.6278947  22.3261173  23.2746925  38.9291184  21.4110022  22.2917610
  35.8423562  19.4451103  29.0586852  36.3177683  19.6378750  28.2505703
  34.9189127  19.5010289  28.8130236  22.7307068  20.6075271  18.6417930
  22.4853110  19.7037601  18.8398140  22.9002983  20.6092421  17.6997408
  30.4203778  11.4798947  28.0242686  30.9385722  12.2159974  27.6989175
  30.0658911  11.7862940  28.8589445  30.6716372   7.8999230  23.5443583
  30.9518126   7.2322419  24.1704009  31.4566979   8.0928325  23.0318246
  28.4749841  27.0758223  15.1068609  27.9023808  27.6948411  14.6539081
  29.0482634  27.6257585  15.6408531  34.5425231  16.3216864  27.2915158
  35.4942653  16.4214961  27.3127382  34.3728681  15.5295132  27.8013242
  32.5639610  13.4072447  27.4774559  31.9689542  13.6877459  26.7821047
  32.2789307  13.8966348  28.2491300  31.6947101  27.3595374  16.2377191
  32.6277774  27.2940935  16.4410067  31.6070313  28.1951640  15.7791724
  34.3235117  26.6761244  13.1981139  34.2448749  26.3421108  14.0916897
  35.1444784  27.1683012  13.1972611  37.0213308  19.5422983  26.4057457
  36.9889628  18.6038984  26.5917141  37.6313932  19.6207020  25.6723282
  37.1707797  16.3334027  26.4515740  36.6546846  15.5492483  26.2645669
  38.0547745  16.0052743  26.6162260  34.8318524  10.0775042  22.4111553
  34.6343345   9.7690130  23.2954885  35.4418229  10.8036681  22.5409483
  42.8389858  20.6038990  25.5463494  43.5693247  20.3424278  26.1071197
  42.2296804  19.8667712  25.5865562  40.9205155  18.7446853  26.1437945
  40.1938319  18.6102818  25.5354437  40.5052442  19.0523681  26.9494663
  28.7435332  22.4636782  33.9085318  29.6638341  22.6415381  34.1025365
  28.7084915  21.5192828  33.7565018  17.9617497  17.6575376  22.8338593
  17.6420281  16.8040684  22.5412967  17.4150925  17.8723954  23.5896560
  21.7397404  20.3737817  26.5508099  21.9583414  21.3054925  26.5696133
  22.1523178  20.0145791  27.3362903  26.6125270  15.9471023  35.9410848
  26.5121997  16.8965380  35.8722939  26.3946812  15.6189262  35.0686918
  17.8305757  21.2778287  24.8031715  17.1369228  20.8632240  24.2901669
  18.5778748  21.3198824  24.2065133  33.9670977  12.0684474  19.6686749
  33.3869647  12.7269278  19.2864801  33.7006910  11.2461819  19.2574166
  32.4174544  11.4689532  21.8708069  32.9174322  11.5806067  21.0622388
  33.0610152  11.1650585  22.5108878  26.4756540  19.3768162  34.7575910
  25.9923621  20.1768522  34.9639799  26.5617479  19.3876106  33.8043354
  19.7442499  21.2096541  22.6797729  19.7213187  21.3084229  21.7279613
  20.0543136  22.0561692  23.0014896  22.4029877  23.2672696  26.7944344
  23.3573131  23.2356639  26.7274275  22.2042401  22.8063320  27.6094570
  22.9929259  21.8373812  29.3615142  23.8122148  22.3317891  29.3849979
  23.2666067  20.9205780  29.3332709  32.7495856  14.2284565  18.7243097
  31.8621711  14.5134215  18.5063292  33.1649845  14.0678328  17.8770374
  36.1010392  14.2531086  22.4397436  36.8770782  14.7427538  22.7122053
  35.3758526  14.6789140  22.8969306  38.5382950  14.9658705  23.4971377
  39.1327441  14.7254441  22.7864685  38.6109534  14.2465835  24.1244913
  20.7580106  28.8092316  23.8114542  20.6234574  28.0492717  23.2452540
  20.3412168  29.5333216  23.3443331  31.8939069  23.9929239  12.8191117
  32.5974919  24.1979242  13.4348773  31.1701718  24.5606001  13.0840201
  32.7236879  19.7439101  18.9393387  32.6672081  20.2007652  18.1001020
  33.2765222  18.9829785  18.7616230  36.5341685  15.5328832  19.7643507
  36.2778619  15.1325468  20.5951714  35.9094553  16.2472626  19.6393646
  40.8454023  18.2724906  22.2714798  40.2853581  18.3418095  23.0446360
  40.2397526  18.0965890  21.5514294  23.9149232  29.7061633  24.0232984
  23.7981616  30.6507065  23.9211675  23.0941678  29.4035194  24.4118784
  33.8025766  24.4311769  14.8689577  34.6371370  23.9992967  14.6867052
  33.6410109  24.2593782  15.7966472  33.4571659  20.9343882  16.2345916
  33.4020462  20.7688153  15.2934360  32.8317714  21.6419915  16.3908106
  18.2464174  16.1711946  30.0607339  18.8923037  15.6610900  30.5494564
  18.0381325  16.9080628  30.6350764  30.7717566  23.2392794  35.5599479
  31.6408725  23.4133446  35.1986114  30.2924317  24.0587211  35.4375208
  26.6957348  29.1120881  23.8998991  25.7452979  29.1122743  23.7863364
  26.9989834  28.3653616  23.3835026  22.5861665  13.3179563  34.1582353
  23.4493126  12.9616368  34.3685677  22.0127075  12.9793458  34.8457757
  42.4310041  34.9481420  24.9644754  43.0688451  34.8288167  24.2608094
  42.3130884  35.8962264  25.0232706  39.2399748  34.9008848  24.9006279
  38.9018259  34.7849912  24.0126813  40.1089516  34.5000013  24.8807285
  35.0986563  36.7544324  20.8903169  34.5351429  36.6634261  20.1219457
  34.9838958  35.9344229  21.3705662  32.6450995  38.2495516  23.7287390
  33.4372287  37.9086340  23.3133689  32.8847646  38.3590491  24.6489543
  40.6786122  40.4215292  16.2017634  40.0274102  41.0069372  15.8151648
  41.4730485  40.9521487  16.2612672  34.6041749  37.5104429  16.6004769
  35.3772625  36.9633416  16.4617645  34.9567148  38.3748678  16.8119230
  36.9408027  33.6697095  14.2323219  37.1933548  33.1478616  13.4706682
  36.0032586  33.5063241  14.3349902  41.9851310  32.6732873  22.0397962
  42.7714399  32.2552297  21.6888379  42.2490014  33.5778966  22.2079610
  42.1561387  38.1105724  16.7386619  41.5207220  38.1840350  17.4507523
  41.8258794  38.6999323  16.0605698  47.3859737  32.6108107  22.9430940
  48.1184909  32.0407324  23.1768770  46.6299093  32.2229707  23.3837446
  36.6604316  35.5725201  16.4347594  36.5440574  34.8970104  17.1028678
  36.7706576  35.0857575  15.6179747  39.0035857  35.0335348  20.1394283
  38.6394064  34.5065969  20.8507204  39.8602973  34.6433817  19.9660768
  44.9085157  26.3229681  27.4025549  44.5768482  27.1925092  27.1786764
  44.3130771  26.0065965  28.0819579  38.6441344  30.0625248  15.1355631
  38.8115746  30.9305484  15.5026102  38.4538513  30.2252530  14.2116921
  34.8529158  34.9756024  22.8358166  33.9279655  34.8432238  23.0435858
  35.1013572  35.7550243  23.3328109  44.8013821  31.0424767  24.4818899
  43.8930698  30.9740175  24.1877660  44.7501417  31.5196712  25.3100724
  38.6230565  32.5182905  16.1202298  38.5030190  32.9639956  16.9587778
  37.9283153  32.8668223  15.5615836  32.2137969  34.6189297  23.6701955
  32.3430351  34.8723776  24.5841367  31.5335421  35.2117005  23.3506610
  36.3837457  45.2886547  19.7692429  36.3061486  46.2394372  19.8480910
  35.7799100  44.9432420  20.4267356  46.6675467  29.2441205  26.2596773
  46.0249847  29.5373739  25.6136568  46.1630396  29.1294126  27.0649970
  44.3215631  32.9904379  16.9482632  45.2333487  33.2231765  16.7730330
  43.8125278  33.5741423  16.3857711  42.9285213  37.9730197  24.3396214
  42.2994076  38.1375911  23.6372282  42.5410875  38.3871807  25.1107178
  46.8074445  38.9084635  21.6940577  46.1225483  39.2883536  21.1437611
  46.8918294  39.5179962  22.4272525  42.1086914  30.0105982  29.6158655
  41.8647846  30.7648042  29.0792931  42.3846844  30.3891329  30.4505902
  41.6651606  29.1662415  25.1972493  40.8036085  29.4643668  25.4889231
  41.6914040  29.3832813  24.2653526  38.4813175  37.7104605  21.6046299
  38.9451521  37.9892308  20.8150921  38.2169973  36.8088050  21.4219389
  35.3737256  37.2576087  24.5426062  35.9438613  37.6863355  23.9043547
  35.9645368  36.9758671  25.2410248  37.4182061  33.8327757  18.4135864
  38.1206104  34.2848801  18.8809790  37.0862690  33.1911576  19.0415757
  31.1607395  32.0911310  23.7152997  30.3706449  32.3468839  23.2393108
  31.6518642  32.9059648  23.8205038  45.1771205  39.4316549  26.4658278
  45.9988648  39.0296737  26.1840960  45.1733607  39.3284783  27.4174394
  33.1122140  32.4555889  20.6736474  32.3153304  32.5674584  21.1919970
  32.8847733  32.7942542  19.8077365  53.2677198  35.7755298  22.8143250
  52.5140906  35.2062696  22.6587254  53.4024739  35.7417962  23.7613884
  38.6575826  40.6468700  18.4897969  38.5221500  41.4920236  18.9182817
  39.1985638  40.8487978  17.7263903  35.1443165  26.7260280  35.1512324
  34.7510111  26.1726479  35.8259969  35.9609306  27.0370858  35.5418842
  32.1105223  38.1644138  19.0625894  32.6229744  38.9587388  19.2131459
  32.7627936  37.4670429  18.9959496  33.9200108  41.2809894  21.1448647
  34.0966736  42.2027859  20.9569631  34.7156941  40.9668314  21.5743027
  38.0611126  28.1418159  32.7432581  38.8020840  28.7425312  32.6637043
  38.2929049  27.3995797  32.1850623  42.0068289  24.1699262  27.0196863
  41.6632559  25.0600904  26.9435973  42.3747252  23.9800920  26.1566448
  30.0754140  36.4932792  19.8385465  30.9129362  36.9029801  19.6219172
  30.2532408  35.5532235  19.8085659  41.9718572  34.1607873  15.5269298
  41.4565195  34.9312478  15.7657685  41.6995880  33.4873009  16.1502359
  39.5565683  29.0057574  20.5854536  38.7007279  28.6164424  20.4060175
  39.9692635  29.0849535  19.7254322  41.0864830  26.5403917  24.9846096
  40.5829625  26.5034052  24.1713901  41.3795437  27.4496660  25.0442752
  37.3307716  26.6242647  23.9912278  38.1960712  26.4285456  23.6318167
  37.3985224  26.3952999  24.9181634  46.9452846  36.9140228  17.4622471
  46.1682289  36.5751387  17.0177633  47.6244327  36.9192851  16.7877436
  41.7604875  32.0334965  17.3529079  41.4555011  32.3481114  18.2039222
  42.7135317  32.1116385  17.3956412  40.2051307  38.1925189  19.0022033
  39.6772669  37.4577948  18.6895270  39.7038810  38.9699865  18.7562001
  45.1844153  36.3874209  24.1189079  44.5267827  37.0773470  24.2069208
  45.9884552  36.7770641  24.4623066  34.9370035  28.8544855  21.3628644
  35.5113787  28.6320036  20.6301837  35.5241017  28.9233549  22.1157246
  43.9949612  34.7418582  22.1693021  44.5081494  35.3748574  22.6714731
  44.6450836  34.1419777  21.8036381  35.2639622  30.8849316  15.3824530
  34.4276934  31.2224002  15.7033804  35.1244391  30.7498296  14.4451667
  37.2392702  25.7286104  20.0903714  36.5857115  25.4135121  19.4660329
  37.1973176  25.1061844  20.8163537  38.3503907  36.0105399  12.0057006
  37.4430969  35.7794652  12.2048155  38.8474939  35.2143018  12.1930987
  41.2571986  44.7202906  14.9253692  40.5833685  45.0234603  15.5338650
  41.6437808  45.5231986  14.5759149  40.4730443  32.2168037  24.4151361
  39.5553004  32.4382984  24.2573049  40.8890586  32.2914348  23.5563069
  41.2565490  33.6159453  19.5454042  42.0037309  34.1280850  19.2361164
  41.5257080  33.2943506  20.4058435  39.5292141  36.1117994  16.5280996
  38.6203360  35.8277026  16.6253466  39.5587224  36.5317072  15.6684303
  44.7611408  39.7224583  20.2972164  44.3073735  38.8815493  20.3537354
  44.1305375  40.3585982  20.6346944  43.7044328  30.6516569  21.5272831
  42.9667084  30.1393955  21.8583074  43.9571101  30.2116951  20.7156108
  43.2044347  41.5601080  21.2321982  43.4967322  42.1206137  20.5134347
  43.7142968  41.8529641  21.9875141  43.8055955  23.4292821  22.1214600
  44.1114832  22.5690185  21.8340515  44.5308560  24.0210441  21.9213594
  30.0980311  33.8323508  20.5096198  29.9004711  33.2392868  19.7847265
  29.5426975  33.5275718  21.2272137  38.0777035  33.7246614  22.6290791
  38.1325644  32.7720451  22.5533268  37.2668237  33.8806053  23.1132090
  39.2268228  37.6526737  13.8669075  38.7887658  36.9362596  13.4074712
  39.9678669  37.8802852  13.3054166  36.0169395  32.3423674  20.3881170
  35.2037260  32.6417845  20.7946362  36.5128389  31.9479363  21.1055652
  38.1677972  42.3381431  22.3215435  38.1254151  42.5642277  21.3923967
  39.0840671  42.1044805  22.4701236  47.3441343  35.9283934  19.9245393
  47.2059242  36.1185530  18.9966582  46.9877562  36.6903317  20.3813444
  35.5083469  29.9142030  26.0042405  36.1482849  29.7730789  25.3065368
  34.6761000  29.6276543  25.6281007  47.3710723  37.9960461  24.9356665
  47.8047229  37.9035750  25.7839719  48.0842304  37.9717962  24.2976681
  36.2843773  39.2144460  22.1177398  37.0784372  38.7194780  21.9159973
  35.5735466  38.6862323  21.7545103  41.1038618  41.5962555  26.4689765
  41.1575640  42.1653492  27.2367481  40.2353399  41.7664440  26.1043802
  32.5926537  33.3587542  18.1937150  31.6624125  33.2971997  18.4107112
  32.6884009  32.8363494  17.3973792  32.5112086  29.8842354  20.7815392
  32.7718903  30.7987688  20.6724552  33.3329258  29.4166797  20.9312005
  33.9837011  31.2980112  27.9514216  34.6560065  31.0897474  27.3026865
  33.1566798  31.1002198  27.5119449  48.2326272  38.0384162  27.4689550
  48.4262162  38.9429973  27.7148825  48.1326891  37.5791581  28.3028135
  39.8862583  27.9242053  29.9679877  39.2390498  28.6232002  29.8744354
  40.6563599  28.3578197  30.3356126  38.8615049  39.7873482  25.7975235
  38.7226135  39.4192266  26.6701173  38.0729645  40.3021121  25.6259192
  39.4563201  44.8882578  17.1400771  39.6314957  44.4170622  17.9546394
  38.7695989  45.5148345  17.3682032  40.4120264  39.1655085  23.1864072
  40.0770097  39.1255855  24.0821722  39.9124210  38.4999801  22.7134483
  34.3864508  34.5722715  28.7116654  34.2484306  33.8402953  29.3128193
  35.2969432  34.4831615  28.4300841  43.3479456  36.5111119  13.4601132
  42.7308627  35.7857947  13.3634185  42.8795944  37.2720479  13.1168206
  35.7275743  31.2707892  30.0195973  35.1913100  30.8198630  30.6717569
  35.1392451  31.4053801  29.2766437  35.1378002  30.7296543  12.5822436
  34.2607468  30.6085344  12.2184683  35.6135755  29.9382622  12.3301325
  26.6580142  35.5173703  22.6763944  27.3451182  35.2035433  22.0884959
  26.5028271  36.4215068  22.4031195  31.4614864  30.4063900  27.1048967
  31.3773053  29.7989569  26.3699377  30.6397571  30.8972918  27.1058464
  38.3241928  43.0822834  19.8284957  37.5409450  43.6244514  19.9223181
  39.0234673  43.5996813  20.2279198  41.6338578  28.8917463  22.4719162
  42.1307278  28.1387425  22.1520233  40.8625560  28.9281780  21.9062372
  49.4868335  34.5957829  24.1137454  49.4758212  35.4782544  23.7431387
  48.6185715  34.2429379  23.9191991  42.7168359  37.6489150  20.0457586
  41.7824638  37.7690613  19.8762290  42.8945027  36.7461617  19.7817596
  38.2173547  31.0334846  22.1990847  37.8471334  30.4805886  22.8871752
  38.7132639  30.4292980  21.6465847  46.1040910  33.4906470  20.5807620
  46.5701362  34.3234461  20.5067923  46.5548411  33.0251451  21.2852878
  44.1717141  39.8350291  17.5793772  44.4476985  39.7206885  18.4887646
  43.3021640  39.4367776  17.5405945  44.0757573  25.8587057  24.6198521
  43.1620653  26.0891283  24.7880728  44.5050674  25.9425501  25.4712554
  40.8071205  44.0836642  21.2226586  40.9893600  43.2658298  21.6854338
  41.6304191  44.3004334  20.7851475  41.1413371  43.0104827  18.4841634
  41.6701137  42.4997281  17.8711796  41.4041590  42.6947357  19.3487167
  31.6430463  41.0268696  26.2276968  32.2283900  40.2812384  26.3604872
  31.4455302  41.3372653  27.1113631  34.4969119  44.0619944  21.2439410
  33.8279494  44.5466071  20.7603450  34.3581988  44.3089164  22.1582788
  33.6138880  28.4438837  28.4443953  33.6780207  29.3053668  28.0321351
  33.5506001  27.8312838  27.7116312  33.0891153  30.5161969  32.0916987
  33.7163192  30.1339047  32.7054512  32.2319072  30.2976171  32.4572680
  29.8656696  32.3238398  18.0235342  30.1610137  31.4149077  17.9702396
  28.9644732  32.3026138  17.7016344  41.7742775  44.0445663  24.8285750
  41.6493914  43.2435402  24.3196696  42.4321866  44.5391856  24.3399720
  33.3950943  30.3994395  24.0062891  32.6737529  31.0130363  23.8670364
  34.1844199  30.9352160  23.9279537  43.8377683  41.8454683  26.4565301
  42.8908018  41.7260034  26.3843627  44.1860456  40.9577181  26.5391562
  36.1977256  27.7348822  30.2803542  36.7211658  27.9811118  31.0429852
  35.9789590  28.5668856  29.8606680  31.5944537  30.0052496  18.1474667
  31.2657244  29.1249875  17.9649773  31.9483908  29.9500165  19.0351056
  40.8424116  41.6407399  22.6569653  40.6949079  40.7124106  22.8377223
  41.6677610  41.6627490  22.1726728  34.7086361  30.2925466  18.5150145
  35.0482433  30.8211387  17.7928753  35.1558481  30.6305872  19.2908711
  44.4458238  42.4635958  23.7434526  45.3704786  42.2578819  23.6058977
  44.2773541  42.2152359  24.6523867  37.4029801  28.6762517  27.9653213
  37.0626622  27.8770330  28.3673893  36.6968808  28.9764228  27.3930046
  38.0546273  25.7611829  26.4180536  38.8772342  25.2872307  26.2959426
  38.2984337  26.5402313  26.9179222  36.6954508  28.7900088  16.7143438
  37.4162870  29.1681340  16.2107155  36.0719812  29.5088964  16.8178416
  40.8385631  29.4945237  17.6501770  41.0549245  30.3769874  17.3490598
  40.3579698  29.1031450  16.9207412  35.5784852  32.4530950  24.2272515
  35.4329433  32.7671253  25.1196796  35.1010056  33.0715850  23.6743413
  37.4381235  29.4433498  24.2753404  37.4242804  28.5474591  23.9385702
  38.1553663  29.4504161  24.9091690  39.2907366  29.8770838  26.3206532
  39.0325143  30.7987909  26.3190862  38.7592406  29.4801272  27.0106996
  44.2353554  42.9821625  19.0996617  44.4090432  42.4168048  18.3470469
  44.7282446  43.7822520  18.9176107  36.8418131  28.3247878  19.5440974
  36.9634042  27.3964524  19.7431862  36.5520173  28.3386564  18.6319290
  39.7109321  26.0102788  22.6807694  39.7331018  26.0742122  21.7259674
  40.1277380  25.1707297  22.8748200  50.0892945  35.7458048  20.7186917
  50.5324091  34.9965373  20.3206040  49.2119456  35.7368184  20.3360649
  45.2228727  42.2988389  16.1993515  45.9179631  42.9195082  16.4180830
  45.5651877  41.4483741  16.4745893  47.1220150  39.7488095  17.7280846
  47.6471474  40.0875368  17.0030166  47.0342502  38.8135110  17.5443981
  38.8060811  45.8160078  22.0876099  38.3665801  45.3236457  22.7808956
  39.5568928  45.2733046  21.8468174  31.2853150  42.0071619  22.0900727
  32.1111170  41.7075391  21.7099371  30.9347202  41.2379242  22.5390516
  36.2534683  41.3598087  24.1598401  35.6314692  40.6968792  23.8600629
  36.9239550  41.3859219  23.4772049  29.4861755  39.9257946  23.0489661
  28.6493663  39.4980120  22.8673662  29.4585400  40.1190389  23.9860452
  35.8148190  39.9102011  17.6356861  35.9636310  40.5937475  16.9823534
  36.6214633  39.8907101  18.1506317  44.2215693  33.2144393  31.6624079
  45.1225556  33.0750858  31.3708077  44.2963668  33.3798848  32.6022257
  38.5558499  30.5911248  30.5077266  37.6861808  30.8844814  30.2359854
  38.7917979  31.1751693  31.2284529  48.4330128  39.6510407  30.5906794
  48.1414936  40.0140387  31.4270255  47.8202259  38.9377415  30.4120126
  49.6325810  37.2163286  23.1109364  50.4672702  37.6553090  23.2746925
  49.7684939  36.7401940  22.2917610  46.6817316  34.7743021  29.0586852
  47.1571438  34.9670667  28.2505703  45.7582881  34.8302207  28.8130236
  33.5700823  35.9367188  18.6417930  33.3246865  35.0329518  18.8398140
  33.7396737  35.9384339  17.6997408  41.2597533  26.8090865  28.0242686
  41.7779476  27.5451892  27.6989175  40.9052665  27.1154858  28.8589445
  32.8396470  31.6695546  16.1404092  32.1465715  31.7439901  15.4844128
  32.5948222  30.9055890  16.6625609  41.5110127  23.2291147  23.5443583
  41.7911881  22.5614336  24.1704009  42.2960734  23.4220243  23.0318246
  39.3143595  42.4050141  15.1068609  38.7417562  43.0240328  14.6539081
  39.8876389  42.9549503  15.6408531  45.3818985  31.6508781  27.2915158
  46.3336408  31.7506879  27.3127382  45.2122436  30.8587050  27.8013242
  43.4033365  28.7364364  27.4774559  42.8083297  29.0169377  26.7821047
  43.1183061  29.2258265  28.2491300  42.5340855  42.6887291  16.2377191
  43.4671528  42.6232853  16.4410067  42.4464068  43.5243558  15.7791724
  45.1628872  42.0053162  13.1981139  45.0842503  41.6713025  14.0916897
  45.9838538  42.4974930  13.1972611  47.8607063  34.8714901  26.4057457
  47.8283383  33.9330902  26.5917141  48.4707687  34.9498938  25.6723282
  39.6990394  33.7410954  12.4484661  40.6449498  33.6117162  12.5173079
  39.3204639  33.0025616  12.9254090  48.0101551  31.6625944  26.4515740
  47.4940600  30.8784401  26.2645669  48.8941500  31.3344661  26.6162260
  45.6712278  25.4066960  22.4111553  45.4737099  25.0982048  23.2954885
  46.2811984  26.1328599  22.5409483  53.6783613  35.9330908  25.5463494
  54.4087001  35.6716196  26.1071197  53.0690558  35.1959630  25.5865562
  51.7598910  34.0738770  26.1437945  51.0332073  33.9394735  25.5354437
  51.3446197  34.3815599  26.9494663  37.8833311  31.6660930  12.3839547
  36.9764766  31.3694043  12.4602260  38.1609292  31.3690748  11.5173833
  28.8011251  32.9867294  22.8338593  28.4814036  32.1332602  22.5412967
  28.2544679  33.2015872  23.5896560  32.5791159  35.7029735  26.5508099
  32.7977169  36.6346842  26.5696133  32.9916933  35.3437709  27.3362903
  39.4995377  26.2097820  18.5383788  38.6896105  25.8644905  18.9139034
  40.1879794  25.9005364  19.1271399  41.4285925  25.2875867  20.1608084
  41.9816964  25.7071320  20.8198108  41.6656011  24.3611615  20.2031041
  36.6532096  28.5247865  12.5251526  37.5151260  28.8502764  12.7847343
  36.8382440  27.7379361  12.0124592  28.6699511  36.6070205  24.8031715
  27.9762983  36.1924158  24.2901669  29.4172502  36.6490742  24.2065133
  44.8064732  27.3976392  19.6686749  44.2263401  28.0561196  19.2864801
  44.5400665  26.5753737  19.2574166  43.2568298  26.7981450  21.8708069
  43.7568077  26.9097984  21.0622388  43.9003906  26.4942503  22.5108878
  30.5836254  36.5388459  22.6797729  30.5606942  36.6376146  21.7279613
  30.8936890  37.3853610  23.0014896  33.2423632  38.5964614  26.7944344
  34.1966885  38.5648556  26.7274275  33.0436155  38.1355238  27.6094570
  43.5889610  29.5576482  18.7243097  42.7015465  29.8426133  18.5063292
  44.0043599  29.3970246  17.8770374  46.9404146  29.5823003  22.4397436
  47.7164536  30.0719456  22.7122053  46.2152280  30.0081058  22.8969306
  49.3776705  30.2950623  23.4971377  49.9721196  30.0546358  22.7864685
  49.4503288  29.5757753  24.1244913  42.7332823  39.3221157  12.8191117
  43.4368674  39.5271160  13.4348773  42.0095472  39.8897919  13.0840201
  43.5630634  35.0731018  18.9393387  43.5065835  35.5299570  18.1001020
  44.1158976  34.3121703  18.7616230  47.3735440  30.8620750  19.7643507
  47.1172374  30.4617386  20.5951714  46.7488308  31.5764544  19.6393646
  51.6847778  33.6016823  22.2714798  51.1247335  33.6710013  23.0446360
  51.0791281  33.4257808  21.5514294  44.6419521  39.7603686  14.8689577
  45.4765125  39.3284885  14.6867052  44.4803864  39.5885700  15.7966472
  44.2965413  36.2635800  16.2345916  44.2414217  36.0980071  15.2934360
  43.6711468  36.9711832  16.3908106  37.6061539  25.7643909  15.8131235
  37.5940208  26.7085748  15.9699506  38.4984960  25.5814054  15.5190696
  41.4213658  22.3586685  20.0677172  40.6546054  21.8045172  20.2133854
  41.8324363  22.4308554  20.9291323  33.4255419  28.6471481  34.1582353
  34.2886881  28.2908286  34.3685677  32.8520830  28.3085376  34.8457757
  53.2703796  50.2773337  24.9644754  53.9082206  50.1580085  24.2608094
  53.1524639  51.2254181  25.0232706  50.0793502  50.2300765  24.9006279
  49.7412014  50.1141830  24.0126813  50.9483270  49.8291931  24.8807285
  45.9380318  52.0836242  20.8903169  45.3745183  51.9926179  20.1219457
  45.8232713  51.2636146  21.3705662  43.4844750  53.5787433  23.7287390
  44.2766042  53.2378258  23.3133689  43.7241400  53.6882408  24.6489543
  51.5179877  55.7507210  16.2017634  50.8667856  56.3361290  15.8151648
  52.3124239  56.2813404  16.2612672  45.4435504  52.8396347  16.6004769
  46.2166380  52.2925334  16.4617645  45.7960903  53.7040596  16.8119230
  48.2076753  51.5449577  26.3973028  48.8040325  51.3205600  25.6829991
  48.2651725  50.8034323  26.9998476  47.7801782  48.9989013  14.2323219
  48.0327302  48.4770534  13.4706682  46.8426341  48.8355158  14.3349902
  52.8245064  48.0024791  22.0397962  53.6108154  47.5844214  21.6888379
  53.0883769  48.9070883  22.2079610  52.9955142  53.4397641  16.7386619
  52.3600975  53.5132268  17.4507523  52.6652548  54.0291240  16.0605698
  58.2253492  47.9400024  22.9430940  58.9578664  47.3699241  23.1768770
  57.4692847  47.5521625  23.3837446  47.4998070  50.9017119  16.4347594
  47.3834328  50.2262022  17.1028678  47.6100330  50.4149493  15.6179747
  49.8429611  50.3627266  20.1394283  49.4787819  49.8357887  20.8507204
  50.6996727  49.9725735  19.9660768  55.7478912  41.6521598  27.4025549
  55.4162237  42.5217009  27.1786764  55.1524525  41.3357882  28.0819579
  49.4835098  45.3917166  15.1355631  49.6509501  46.2597402  15.5026102
  49.2932267  45.5544447  14.2116921  52.2410431  53.8534144  26.8021462
  51.9411155  54.7559183  26.6937269  51.8961491  53.5866328  27.6542615
  45.6922913  50.3047941  22.8358166  44.7673409  50.1724155  23.0435858
  45.9407326  51.0842161  23.3328109  55.6407575  46.3716685  24.4818899
  54.7324453  46.3032093  24.1877660  55.5895171  46.8488630  25.3100724
  49.4624319  47.8474823  16.1202298  49.3423944  48.2931874  16.9587778
  48.7676908  48.1960141  15.5615836  43.0531724  49.9481215  23.6701955
  43.1824105  50.2015694  24.5841367  42.3729175  50.5408923  23.3506610
  47.2231211  60.6178465  19.7692429  47.1455241  61.5686290  19.8480910
  46.6192855  60.2724337  20.4267356  57.5069222  44.5733123  26.2596773
  56.8643602  44.8665656  25.6136568  57.0024150  44.4586043  27.0649970
  55.1609385  48.3196296  16.9482632  56.0727241  48.5523683  16.7730330
  54.6519032  48.9033340  16.3857711  49.7981223  47.6793531  27.9577482
  50.6442418  48.1032944  28.1012131  49.7379861  47.0227155  28.6516045
  53.7678968  53.3022115  24.3396214  53.1387830  53.4667829  23.6372282
  53.3804630  53.7163724  25.1107178  57.6468200  54.2376553  21.6940577
  56.9619238  54.6175454  21.1437611  57.7312049  54.8471879  22.4272525
  52.9480668  45.3397899  29.6158655  52.7041600  46.0939960  29.0792931
  53.2240599  45.7183247  30.4505902  52.5045360  44.4954332  25.1972493
  51.6429839  44.7935586  25.4889231  52.5307795  44.7124731  24.2653526
  49.3206930  53.0396523  21.6046299  49.7845275  53.3184226  20.8150921
  49.0563728  52.1379967  21.4219389  46.2131011  52.5868004  24.5426062
  46.7832368  53.0155273  23.9043547  46.8039122  52.3050589  25.2410248
  48.2575816  49.1619675  18.4135864  48.9599859  49.6140719  18.8809790
  47.9256444  48.5203494  19.0415757  43.9515895  47.7847807  20.6736474
  43.1547058  47.8966501  21.1919970  43.7241487  48.1234459  19.8077365
  49.7821563  54.3092510  28.6218989  49.8465995  54.7712918  29.4577161
  49.0732486  53.6789875  28.7501299  42.9498978  53.4936056  19.0625894
  43.4623498  54.2879306  19.2131459  43.6021690  52.7962346  18.9959496
  44.7593862  56.6101812  21.1448647  44.9360491  57.5319777  20.9569631
  45.5550696  56.2960231  21.5743027  45.8825178  58.1279986  27.1458990
  46.4332603  57.9997049  26.3735984  45.0436654  58.4274875  26.7953883
  53.2219295  56.8786984  30.6479712  53.2037770  57.6995865  30.1559982
  54.1439215  56.7541059  30.8729854  52.8462044  39.4991180  27.0196863
  52.5026313  40.3892821  26.9435973  53.2141006  39.3092837  26.1566448
  40.9147894  51.8224710  19.8385465  41.7523116  52.2321718  19.6219172
  41.0926162  50.8824152  19.8085659  52.8112326  49.4899791  15.5269298
  52.2958950  50.2604395  15.7657685  52.5389635  48.8164927  16.1502359
  50.3959438  44.3349492  20.5854536  49.5401034  43.9456342  20.4060175
  50.8086389  44.4141452  19.7254322  51.9258584  41.8695835  24.9846096
  51.4223380  41.8325970  24.1713901  52.2189191  42.7788578  25.0442752
  48.1701470  41.9534565  23.9912278  49.0354467  41.7577373  23.6318167
  48.2378979  41.7244916  24.9181634  57.7846601  52.2432145  17.4622471
  57.0076043  51.9043305  17.0177633  58.4638082  52.2484769  16.7877436
  52.5998630  47.3626883  17.3529079  52.2948765  47.6773032  18.2039222
  53.5529072  47.4408303  17.3956412  51.0445061  53.5217106  19.0022033
  50.5166423  52.7869866  18.6895270  50.5432564  54.2991783  18.7562001
  56.0237908  51.7166127  24.1189079  55.3661582  52.4065388  24.2069208
  56.8278307  52.1062559  24.4623066  45.7763789  44.1836772  21.3628644
  46.3507541  43.9611954  20.6301837  46.3634772  44.2525467  22.1157246
  54.8343366  50.0710499  22.1693021  55.3475248  50.7040491  22.6714731
  55.4844590  49.4711695  21.8036381  46.1033376  46.2141233  15.3824530
  45.2670688  46.5515920  15.7033804  45.9638146  46.0790213  14.4451667
  48.0786457  41.0578021  20.0903714  47.4250869  40.7427039  19.4660329
  48.0366931  40.4353762  20.8163537  49.1897662  51.3397316  12.0057006
  48.2824723  51.1086570  12.2048155  49.6868694  50.5434936  12.1930987
  52.0965741  60.0494824  14.9253692  51.4227439  60.3526520  15.5338650
  52.4831563  60.8523904  14.5759149  51.3124197  47.5459955  24.4151361
  50.3946759  47.7674902  24.2573049  51.7284341  47.6206265  23.5563069
  52.0959245  48.9451371  19.5454042  52.8431064  49.4572768  19.2361164
  52.3650834  48.6235423  20.4058435  50.3685895  51.4409911  16.5280996
  49.4597114  51.1568944  16.6253466  50.3980979  51.8608990  15.6684303
  55.6005163  55.0516501  20.2972164  55.1467490  54.2107411  20.3537354
  54.9699129  55.6877899  20.6346944  54.5438082  45.9808487  21.5272831
  53.8060839  45.4685873  21.8583074  54.7964856  45.5408868  20.7156108
  54.0438102  56.8892998  21.2321982  54.3361076  57.4498055  20.5134347
  54.5536722  57.1821558  21.9875141  54.6449709  38.7584739  22.1214600
  54.9508586  37.8982102  21.8340515  55.3702314  39.3502359  21.9213594
  40.9374065  49.1615425  20.5096198  40.7398465  48.5684786  19.7847265
  40.3820729  48.8567636  21.2272137  48.9170789  49.0538532  22.6290791
  48.9719399  48.1012368  22.5533268  48.1061991  49.2097971  23.1132090
  50.0661983  52.9818655  13.8669075  49.6281413  52.2654514  13.4074712
  50.8072424  53.2094770  13.3054166  46.8563149  47.6715592  20.3881170
  46.0431015  47.9709762  20.7946362  47.3522143  47.2771280  21.1055652
  49.0071727  57.6673349  22.3215435  48.9647906  57.8934195  21.3923967
  49.9234426  57.4336723  22.4701236  58.1835098  51.2575852  19.9245393
  58.0452996  51.4477448  18.9966582  57.8271317  52.0195235  20.3813444
  46.3477224  45.2433947  26.0042405  46.9876603  45.1022706  25.3065368
  45.5154754  44.9568461  25.6281007  47.1237528  54.5436378  22.1177398
  47.9178126  54.0486698  21.9159973  46.4129220  54.0154241  21.7545103
  51.9432372  56.9254473  26.4689765  51.9969394  57.4945409  27.2367481
  51.0747154  57.0956358  26.1043802  43.4320291  48.6879459  18.1937150
  42.5017879  48.6263915  18.4107112  43.5277763  48.1655412  17.3973792
  43.3505840  45.2134272  20.7815392  43.6112658  46.1279605  20.6724552
  44.1723013  44.7458715  20.9312005  50.9020472  51.0914735  28.0276697
  51.8312532  51.2425895  27.8545664  50.4811502  51.1798756  27.1725344
  49.7008804  55.1165400  25.7975235  49.5619889  54.7484184  26.6701173
  48.9123400  55.6313039  25.6259192  50.2956956  60.2174496  17.1400771
  50.4708711  59.7462539  17.9546394  49.6089744  60.8440262  17.3682032
  51.2514019  54.4947002  23.1864072  50.9163851  54.4547772  24.0821722
  50.7517965  53.8291718  22.7134483  54.1873211  51.8403037  13.4601132
  53.5702381  51.1149865  13.3634185  53.7189699  52.6012397  13.1168206
  47.8540563  49.6134592  28.2000333  48.5640182  48.9727784  28.1586952
  47.8109872  49.8647486  29.1226514  44.8618041  63.3663859  23.9140631
  45.1014639  63.9982383  24.5919650  44.0187237  63.0151899  24.2005991
  45.9771756  46.0588461  12.5822436  45.1001223  45.9377262  12.2184683
  46.4529509  45.2674539  12.3301325  49.3745903  59.1742981  26.3182135
  49.3016074  59.9797953  26.8301440  48.9323296  59.3734947  25.4930157
  49.1635682  58.4114751  19.8284957  48.3803204  58.9536431  19.9223181
  49.8628428  58.9288731  20.2279198  52.4732333  44.2209381  22.4719162
  52.9701032  43.4679343  22.1520233  51.7019314  44.2573697  21.9062372
  51.8344586  59.0729815  28.4740294  52.5472559  59.7077280  28.4016195
  51.3434615  59.1693681  27.6580296  53.5562113  52.9781068  20.0457586
  52.6218392  53.0982530  19.8762290  53.7338782  52.0753535  19.7817596
  49.0567301  46.3626764  22.1990847  48.6865089  45.8097804  22.8871752
  49.5526394  45.7584897  21.6465847  56.9434665  48.8198387  20.5807620
  57.4095117  49.6526379  20.5067923  57.3942165  48.3543369  21.2852878
  55.0110896  55.1642209  17.5793772  55.2870740  55.0498803  18.4887646
  54.1415394  54.7659693  17.5405945  54.9151327  41.1878974  24.6198521
  54.0014407  41.4183201  24.7880728  55.3444429  41.2717418  25.4712554
  51.6464960  59.4128559  21.2226586  51.8287354  58.5950215  21.6854338
  52.4697946  59.6296252  20.7851475  51.9807125  58.3396745  18.4841634
  52.5094892  57.8289199  17.8711796  52.2435345  58.0239275  19.3487167
  42.4824218  56.3560614  26.2276968  43.0677655  55.6104302  26.3604872
  42.2849056  56.6664571  27.1113631  45.3362873  59.3911861  21.2439410
  44.6673248  59.8757989  20.7603450  45.1975743  59.6381082  22.1582788
  49.4768142  61.4255605  27.8422068  50.0286450  61.5887226  28.6071154
  49.8174335  62.0160043  27.1702093  40.7050450  47.6530316  18.0235342
  41.0003891  46.7440995  17.9702396  39.8038486  47.6318056  17.7016344
  52.6136529  59.3737580  24.8285750  52.4887668  58.5727320  24.3196696
  53.2715620  59.8683774  24.3399720  44.2344697  45.7286313  24.0062891
  43.5131283  46.3422280  23.8670364  45.0237953  46.2644078  23.9279537
  54.6771437  57.1746600  26.4565301  53.7301773  57.0551952  26.3843627
  55.0254211  56.2869098  26.5391562  42.4338292  45.3344414  18.1474667
  42.1050998  44.4541793  17.9649773  42.7877663  45.2792083  19.0351056
  51.6817871  56.9699317  22.6569653  51.5342833  56.0416024  22.8377223
  52.5071364  56.9919407  22.1726728  45.5480115  45.6217384  18.5150145
  45.8876188  46.1503305  17.7928753  45.9952235  45.9597790  19.2908711
  55.2851993  57.7927875  23.7434526  56.2098540  57.5870737  23.6058977
  55.1167296  57.5444276  24.6523867  48.2423556  44.0054434  27.9653213
  47.9020376  43.2062247  28.3673893  47.5362562  44.3056145  27.3930046
  48.8940028  41.0903747  26.4180536  49.7166097  40.6164225  26.2959426
  49.1378091  41.8694231  26.9179222  47.5348262  44.1192005  16.7143438
  48.2556625  44.4973258  16.2107155  46.9113566  44.8380882  16.8178416
  51.6779385  44.8237154  17.6501770  51.8942999  45.7061792  17.3490598
  51.1973452  44.4323368  16.9207412  46.4178606  47.7822867  24.2272515
  46.2723187  48.0963170  25.1196796  45.9403810  48.4007768  23.6743413
  48.2774989  44.7725415  24.2753404  48.2636558  43.8766509  23.9385702
  48.9947417  44.7796079  24.9091690  50.1301120  45.2062756  26.3206532
  49.8718898  46.1279826  26.3190862  49.5986160  44.8093190  27.0106996
  55.0747309  58.3113543  19.0996617  55.2484186  57.7459965  18.3470469
  55.5676200  59.1114438  18.9176107  47.6811885  43.6539796  19.5440974
  47.8027796  42.7256442  19.7431862  47.3913928  43.6678482  18.6319290
  50.5503076  41.3394706  22.6807694  50.5724772  41.4034039  21.7259674
  50.9671135  40.4999215  22.8748200  60.9286700  51.0749966  20.7186917
  61.3717846  50.3257291  20.3206040  60.0513210  51.0660102  20.3360649
  56.0622481  57.6280307  16.1993515  56.7573386  58.2487000  16.4180830
  56.4045631  56.7775658  16.4745893  57.9613904  55.0780013  17.7280846
  58.4865228  55.4167285  17.0030166  57.8736257  54.1427028  17.5443981
  49.6233953  58.9914086  29.8570723  49.9321080  58.7463233  30.7293422
  50.4209435  59.1960725  29.3689593  49.6454565  61.1451996  22.0876099
  49.2059555  60.6528375  22.7808956  50.3962682  60.6024964  21.8468174
  42.1246904  57.3363537  22.0900727  42.9504924  57.0367309  21.7099371
  41.7740956  56.5671159  22.5390516  47.0928437  56.6890005  24.1598401
  46.4708447  56.0260710  23.8600629  47.7633304  56.7151137  23.4772049
  40.3255509  55.2549863  23.0489661  39.4887417  54.8272038  22.8673662
  40.2979155  55.4482307  23.9860452  46.6541944  55.2393928  17.6356861
  46.8030065  55.9229393  16.9823534  47.4608388  55.2199018  18.1506317
  49.3952253  45.9203165  30.5077266  48.5255563  46.2136732  30.2359854
  49.6311734  46.5043610  31.2284529  44.4094577  51.2659106  18.6417930
  44.1640619  50.3621436  18.8398140  44.5790492  51.2676256  17.6997408
  52.0991287  42.1382782  28.0242686  52.6173231  42.8743809  27.6989175
  51.7446420  42.4446776  28.8589445  43.6790225  46.9987464  16.1404092
  42.9859470  47.0731819  15.4844128  43.4341977  46.2347807  16.6625609
  52.3503881  38.5583065  23.5443583  52.6305635  37.8906254  24.1704009
  53.1354488  38.7512161  23.0318246  50.1537350  57.7342059  15.1068609
  49.5811317  58.3532246  14.6539081  50.7270143  58.2841421  15.6408531
  54.2427119  44.0656282  27.4774559  53.6477051  44.3461295  26.7821047
  53.9576816  44.5550183  28.2491300  53.3734610  58.0179209  16.2377191
  54.3065283  57.9524771  16.4410067  53.2857822  58.8535476  15.7791724
  56.0022626  57.3345079  13.1981139  55.9236258  57.0004943  14.0916897
  56.8232293  57.8266847  13.1972611  50.5384148  49.0702872  12.4484661
  51.4843253  48.9409080  12.5173079  50.1598393  48.3317533  12.9254090
  56.5106033  40.7358878  22.4111553  56.3130854  40.4273966  23.2954885
  57.1205738  41.4620517  22.5409483  48.7227065  46.9952848  12.3839547
  47.8158521  46.6985961  12.4602260  49.0003046  46.6982666  11.5173833
  50.3389131  41.5389738  18.5383788  49.5289859  41.1936823  18.9139034
  51.0273548  41.2297281  19.1271399  52.2679679  40.6167784  20.1608084
  52.8210718  41.0363238  20.8198108  52.5049766  39.6903533  20.2031041
  47.4925850  43.8539783  12.5251526  48.3545014  44.1794681  12.7847343
  47.6776194  43.0671279  12.0124592  55.6458486  42.7268310  19.6686749
  55.0657156  43.3853114  19.2864801  55.3794419  41.9045654  19.2574166
  54.0962053  42.1273367  21.8708069  54.5961831  42.2389902  21.0622388
  54.7397661  41.8234420  22.5108878  41.4230008  51.8680377  22.6797729
  41.4000696  51.9668064  21.7279613  41.7330645  52.7145527  23.0014896
  44.0817386  53.9256532  26.7944344  45.0360640  53.8940474  26.7274275
  43.8829910  53.4647155  27.6094570  54.4283364  44.8868400  18.7243097
  53.5409220  45.1718051  18.5063292  54.8437354  44.7262163  17.8770374
  57.7797901  44.9114921  22.4397436  58.5558291  45.4011373  22.7122053
  57.0546035  45.3372975  22.8969306  42.4367615  59.4676151  23.8114542
  42.3022083  58.7076552  23.2452540  42.0199677  60.1917051  23.3443331
  53.5726578  54.6513075  12.8191117  54.2762428  54.8563077  13.4348773
  52.8489227  55.2189837  13.0840201  54.4024388  50.4022936  18.9393387
  54.3459590  50.8591487  18.1001020  54.9552731  49.6413621  18.7616230
  58.2129194  46.1912668  19.7643507  57.9566128  45.7909303  20.5951714
  57.5882062  46.9056462  19.6393646  45.5936741  60.3645468  24.0232984
  45.4769125  61.3090901  23.9211675  44.7729187  60.0619030  24.4118784
  55.4813275  55.0895604  14.8689577  56.3158879  54.6576802  14.6867052
  55.3197618  54.9177618  15.7966472  55.1359168  51.5927717  16.2345916
  55.0807971  51.4271989  15.2934360  54.5105223  52.3003750  16.3908106
  48.4455293  41.0935826  15.8131235  48.4333963  42.0377666  15.9699506
  49.3378715  40.9105972  15.5190696  46.6191255  61.0173730  27.2388913
  47.5218502  61.0497340  27.5555408  46.3928625  60.0874181  27.2535249
  48.3744857  59.7704717  23.8998991  47.4240488  59.7706578  23.7863364
  48.6777343  59.0237451  23.3835026  52.2607412  37.6878603  20.0677172
  51.4939808  37.1337090  20.2133854  52.6718117  37.7600472  20.9291323
  64.1097550  65.6065255  24.9644754  64.7475960  65.4872002  24.2608094
  63.9918393  66.5546099  25.0232706  60.9187257  65.5592683  24.9006279
  60.5805768  65.4433748  24.0126813  61.7877025  65.1583848  24.8807285
  56.7774072  67.4128160  20.8903169  56.2138938  67.3218096  20.1219457
  56.6626467  66.5928064  21.3705662  54.3238504  68.9079351  23.7287390
  55.1159796  68.5670176  23.3133689  54.5635155  69.0174326  24.6489543
  62.3573631  71.0799127  16.2017634  61.7061611  71.6653208  15.8151648
  63.1517994  71.6105322  16.2612672  56.2829258  68.1688264  16.6004769
  57.0560134  67.6217251  16.4617645  56.6354657  69.0332514  16.8119230
  58.1214301  69.4964647  29.8071668  57.8304167  70.4010277  29.6918334
  58.7571285  69.5381174  30.5215738  59.0470508  66.8741495  26.3973028
  59.6434080  66.6497518  25.6829991  59.1045479  66.1326241  26.9998476
  58.6195536  64.3280930  14.2323219  58.8721057  63.8062452  13.4706682
  57.6820095  64.1647076  14.3349902  63.6638819  63.3316709  22.0397962
  64.4501908  62.9136132  21.6888379  63.9277523  64.2362801  22.2079610
  63.8348896  68.7689559  16.7386619  63.1994729  68.8424186  17.4507523
  63.5046303  69.3583158  16.0605698  69.0647246  63.2691942  22.9430940
  69.7972418  62.6991159  23.1768770  68.3086602  62.8813542  23.3837446
  58.3391825  66.2309036  16.4347594  58.2228083  65.5553940  17.1028678
  58.4494085  65.7441410  15.6179747  60.6823366  65.6919184  20.1394283
  60.3181573  65.1649805  20.8507204  61.5390482  65.3017653  19.9660768
  60.3228853  60.7209083  15.1355631  60.4903255  61.5889320  15.5026102
  60.1326022  60.8836365  14.2116921  63.0804186  69.1826062  26.8021462
  62.7804909  70.0851101  26.6937269  62.7355245  68.9158245  27.6542615
  56.5316667  65.6339859  22.8358166  55.6067164  65.5016073  23.0435858
  56.7801081  66.4134078  23.3328109  60.3018074  63.1766741  16.1202298
  60.1817699  63.6223792  16.9587778  59.6070662  63.5252058  15.5615836
  53.8925478  65.2773133  23.6701955  54.0217860  65.5307611  24.5841367
  53.2122930  65.8700841  23.3506610  58.0624966  75.9470382  19.7692429
  57.9848995  76.8978208  19.8480910  57.4586609  75.6016255  20.4267356
  66.0003140  63.6488214  16.9482632  66.9120996  63.8815601  16.7730330
  65.4912787  64.2325258  16.3857711  58.8088568  65.9283701  31.9871763
  59.5503252  66.4668745  31.7106587  58.1025553  66.5549990  32.1443315
  64.6072722  68.6314032  24.3396214  63.9781585  68.7959747  23.6372282
  64.2198384  69.0455642  25.1107178  68.4861954  69.5668470  21.6940577
  67.8012992  69.9467372  21.1437611  68.5705803  70.1763797  22.4272525
  60.1600684  68.3688440  21.6046299  60.6239030  68.6476143  20.8150921
  59.8957482  67.4671885  21.4219389  57.0524765  67.9159922  24.5426062
  57.6226122  68.3447190  23.9043547  57.6432877  67.6342507  25.2410248
  59.0969570  64.4911593  18.4135864  59.7993613  64.9432636  18.8809790
  58.7650199  63.8495412  19.0415757  52.8394904  62.7495145  23.7152997
  52.0493958  63.0052674  23.2393108  53.3306151  63.5643483  23.8205038
  66.8558714  70.0900385  26.4658278  67.6776157  69.6880572  26.1840960
  66.8521116  69.9868619  27.4174394  54.7909649  63.1139725  20.6736474
  53.9940813  63.2258419  21.1919970  54.5635242  63.4526377  19.8077365
  51.1232607  63.0025636  26.1467988  51.3740645  63.8872646  26.4125564
  51.6592155  62.8230237  25.3743080  60.3363335  71.3052535  18.4897969
  60.2009009  72.1504071  18.9182817  60.8773147  71.5071813  17.7263903
  53.7892732  68.8227973  19.0625894  54.3017253  69.6171224  19.2131459
  54.4415445  68.1254264  18.9959496  55.5987617  71.9393730  21.1448647
  55.7754245  72.8611694  20.9569631  56.3944450  71.6252149  21.5743027
  54.8839973  63.9858362  31.0210811  54.7693488  63.0843619  31.3217909
  54.0284491  64.2322058  30.6695627  56.7218932  73.4571904  27.1458990
  57.2726357  73.3288967  26.3735984  55.8830408  73.7566793  26.7953883
  51.7541649  67.1516628  19.8385465  52.5916871  67.5613636  19.6219172
  51.9319917  66.2116070  19.8085659  63.6506081  64.8191708  15.5269298
  63.1352704  65.5896313  15.7657685  63.3783389  64.1456845  16.1502359
  61.2353192  59.6641409  20.5854536  60.3794788  59.2748260  20.4060175
  61.6480144  59.7433370  19.7254322  68.6240355  67.5724063  17.4622471
  67.8469798  67.2335223  17.0177633  69.3031836  67.5776686  16.7877436
  63.4392384  62.6918801  17.3529079  63.1342520  63.0064950  18.2039222
  64.3922826  62.7700220  17.3956412  61.8838816  68.8509024  19.0022033
  61.3560178  68.1161783  18.6895270  61.3826319  69.6283700  18.7562001
  66.8631662  67.0458044  24.1189079  66.2055336  67.7357306  24.2069208
  67.6672061  67.4354476  24.4623066  56.6157544  59.5128690  21.3628644
  57.1901295  59.2903872  20.6301837  57.2028526  59.5817385  22.1157246
  65.6737121  65.4002417  22.1693021  66.1869003  66.0332409  22.6714731
  66.3238345  64.8003613  21.8036381  56.9427131  61.5433151  15.3824530
  56.1064443  61.8807838  15.7033804  56.8031900  61.4082131  14.4451667
  60.0291416  66.6689234  12.0057006  59.1218478  66.4378488  12.2048155
  60.5262448  65.8726853  12.1930987  62.9359495  75.3786741  14.9253692
  62.2621194  75.6818438  15.5338650  63.3225317  76.1815822  14.5759149
  62.1517952  62.8751873  24.4151361  61.2340513  63.0966820  24.2573049
  62.5678095  62.9498183  23.5563069  62.9352999  64.2743288  19.5454042
  63.6824818  64.7864685  19.2361164  63.2044589  63.9527341  20.4058435
  61.2079650  66.7701829  16.5280996  60.2990869  66.4860862  16.6253466
  61.2374733  67.1900908  15.6684303  66.4398917  70.3808418  20.2972164
  65.9861244  69.5399328  20.3537354  65.8092884  71.0169817  20.6346944
  64.8831856  72.2184915  21.2321982  65.1754831  72.7789972  20.5134347
  65.3930477  72.5113476  21.9875141  51.7767820  64.4907343  20.5096198
  51.5792220  63.8976704  19.7847265  51.2214484  64.1859553  21.2272137
  59.7564544  64.3830450  22.6290791  59.8113153  63.4304286  22.5533268
  58.9455746  64.5389889  23.1132090  60.9055737  68.3110573  13.8669075
  60.4675167  67.5946432  13.4074712  61.6466178  68.5386687  13.3054166
  57.6956904  63.0007509  20.3881170  56.8824769  63.3001680  20.7946362
  58.1915898  62.6063198  21.1055652  59.8465481  72.9965266  22.3215435
  59.8041660  73.2226113  21.3923967  60.7628180  72.7628641  22.4701236
  69.0228852  66.5867770  19.9245393  68.8846751  66.7769366  18.9966582
  68.6665071  67.3487153  20.3813444  57.1870978  60.5725865  26.0042405
  57.8270358  60.4314624  25.3065368  56.3548509  60.2860378  25.6281007
  69.0498232  68.6544297  24.9356665  69.4834738  68.5619586  25.7839719
  69.7629812  68.6301797  24.2976681  57.9631282  69.8728295  22.1177398
  58.7571881  69.3778615  21.9159973  57.2522975  69.3446158  21.7545103
  62.7826127  72.2546391  26.4689765  62.8363149  72.8237327  27.2367481
  61.9140908  72.4248276  26.1043802  54.2714046  64.0171377  18.1937150
  53.3411634  63.9555833  18.4107112  54.3671518  63.4947330  17.3973792
  54.1899595  60.5426190  20.7815392  54.4506412  61.4571523  20.6724552
  55.0116767  60.0750632  20.9312005  55.6624520  61.9563947  27.9514216
  56.3347573  61.7481309  27.3026865  54.8354307  61.7586033  27.5119449
  60.5402558  70.4457317  25.7975235  60.4013644  70.0776102  26.6701173
  59.7517154  70.9604957  25.6259192  61.1350710  75.5466414  17.1400771
  61.3102466  75.0754457  17.9546394  60.4483498  76.1732180  17.3682032
  62.0907773  69.8238920  23.1864072  61.7557606  69.7839690  24.0821722
  61.5911719  69.1583636  22.7134483  56.0652017  65.2306550  28.7116654
  55.9271815  64.4986789  29.3128193  56.9756941  65.1415450  28.4300841
  65.0266965  67.1694954  13.4601132  64.4096136  66.4441782  13.3634185
  64.5583453  67.9304315  13.1168206  58.6934318  64.9426509  28.2000333
  59.4033937  64.3019702  28.1586952  58.6503626  65.1939404  29.1226514
  55.7011795  78.6955777  23.9140631  55.9408394  79.3274301  24.5919650
  54.8580992  78.3443817  24.2005991  56.8165511  61.3880379  12.5822436
  55.9394977  61.2669179  12.2184683  57.2923264  60.5966457  12.3301325
  48.3367651  66.1757538  22.6763944  49.0238691  65.8619268  22.0884959
  48.1815780  67.0798903  22.4031195  53.1402373  61.0647735  27.1048967
  53.0560562  60.4573404  26.3699377  52.3185080  61.5556753  27.1058464
  60.2139657  74.5034899  26.3182135  60.1409829  75.3089870  26.8301440
  59.7717050  74.7026865  25.4930157  60.0029437  73.7406669  19.8284957
  59.2196959  74.2828349  19.9223181  60.7022182  74.2580649  20.2279198
  71.1655844  65.2541664  24.1137454  71.1545721  66.1366379  23.7431387
  70.2973224  64.9013215  23.9191991  62.6738341  74.4021733  28.4740294
  63.3866313  75.0369198  28.4016195  62.1828369  74.4985599  27.6580296
  64.3955868  68.3072986  20.0457586  63.4612146  68.4274448  19.8762290
  64.5732536  67.4045452  19.7817596  59.8961056  61.6918681  22.1990847
  59.5258843  61.1389722  22.8871752  60.3920148  61.0876815  21.6465847
  67.7828419  64.1490305  20.5807620  68.2488871  64.9818297  20.5067923
  68.2335920  63.6835287  21.2852878  57.7250254  72.1516176  29.2945865
  58.4259714  72.7852659  29.4475259  57.2545369  72.4930908  28.5341504
  65.8504650  70.4934126  17.5793772  66.1264494  70.3790721  18.4887646
  64.9809149  70.0951611  17.5405945  62.4858714  74.7420477  21.2226586
  62.6681109  73.9242133  21.6854338  63.3091700  74.9588169  20.7851475
  62.8200880  73.6688662  18.4841634  63.3488646  73.1581117  17.8711796
  63.0829099  73.3531192  19.3487167  53.3217972  71.6852531  26.2276968
  53.9071409  70.9396219  26.3604872  53.1242811  71.9956488  27.1113631
  56.1756628  74.7203779  21.2439410  55.5067003  75.2049907  20.7603450
  56.0369497  74.9672999  22.1582788  47.9135627  64.2558132  24.9481411
  47.9519727  63.7221722  25.7418529  47.4075920  63.7293337  24.3292388
  60.3161896  76.7547522  27.8422068  60.8680204  76.9179144  28.6071154
  60.6568090  77.3451960  27.1702093  51.5444205  62.9822234  18.0235342
  51.8397646  62.0732912  17.9702396  50.6432241  62.9609973  17.7016344
  63.4530284  74.7029498  24.8285750  63.3281423  73.9019238  24.3196696
  64.1109375  75.1975691  24.3399720  55.0738452  61.0578230  24.0062891
  54.3525038  61.6714198  23.8670364  55.8631708  61.5935995  23.9279537
  65.5165192  72.5038518  26.4565301  64.5695527  72.3843869  26.3843627
  65.8647965  71.6161016  26.5391562  53.2732046  60.6636332  18.1474667
  52.9444753  59.7833710  17.9649773  53.6271417  60.6084000  19.0351056
  62.5211625  72.2991234  22.6569653  62.3736588  71.3707942  22.8377223
  63.3465119  72.3211325  22.1726728  56.3873870  60.9509301  18.5150145
  56.7269942  61.4795223  17.7928753  56.8345990  61.2889707  19.2908711
  66.1245747  73.1219793  23.7434526  67.0492295  72.9162654  23.6058977
  65.9561050  72.8736194  24.6523867  58.3742017  59.4483923  16.7143438
  59.0950379  59.8265176  16.2107155  57.7507321  60.1672800  16.8178416
  62.5173140  60.1529072  17.6501770  62.7336754  61.0353710  17.3490598
  62.0367207  59.7615285  16.9207412  57.2572361  63.1114785  24.2272515
  57.1116942  63.4255088  25.1196796  56.7797565  63.7299685  23.6743413
  59.1168744  60.1017333  24.2753404  59.1030313  59.2058426  23.9385702
  59.8341172  60.1087997  24.9091690  65.9141063  73.6405460  19.0996617
  66.0877941  73.0751883  18.3470469  66.4069955  74.4406355  18.9176107
  51.7318023  65.6520129  27.1660176  51.1871491  66.4279937  27.2980450
  52.6097373  65.9990934  27.0079297  58.5205640  58.9831713  19.5440974
  58.6421551  58.0548360  19.7431862  58.2307682  58.9970399  18.6319290
  66.9016236  72.9572225  16.1993515  67.5967140  73.5778917  16.4180830
  67.2439386  72.1067576  16.4745893  52.5184045  64.7790026  30.0590333
  51.7765781  64.9272661  30.6454963  52.1976789  65.0398291  29.1957082
  68.8007659  70.4071930  17.7280846  69.3258983  70.7459203  17.0030166
  68.7130011  69.4718946  17.5443981  60.4627708  74.3206004  29.8570723
  60.7714834  74.0755151  30.7293422  61.2603190  74.5252642  29.3689593
  60.4848320  76.4743914  22.0876099  60.0453310  75.9820292  22.7808956
  61.2356437  75.9316881  21.8468174  52.9640659  72.6655454  22.0900727
  53.7898679  72.3659226  21.7099371  52.6134711  71.8963077  22.5390516
  57.9322192  72.0181923  24.1598401  57.3102201  71.3552628  23.8600629
  58.6027059  72.0443055  23.4772049  51.1649264  70.5841781  23.0489661
  50.3281172  70.1563955  22.8673662  51.1372909  70.7774224  23.9860452
  57.4935699  70.5685846  17.6356861  57.6423819  71.2521310  16.9823534
  58.3002142  70.5490936  18.1506317  71.3113319  67.8747122  23.1109364
  72.1460211  68.3136926  23.2746925  71.4472448  67.3985775  22.2917610
  55.2488332  66.5951024  18.6417930  55.0034374  65.6913354  18.8398140
  55.4184246  66.5968174  17.6997408  54.5183979  62.3279381  16.1404092
  53.8253224  62.4023736  15.4844128  54.2735731  61.5639725  16.6625609
  60.9931104  73.0633976  15.1068609  60.4205071  73.6824164  14.6539081
  61.5663898  73.6133338  15.6408531  64.2128364  73.3471127  16.2377191
  65.1459037  73.2816688  16.4410067  64.1251577  74.1827393  15.7791724
  66.8416381  72.6636997  13.1981139  66.7630012  72.3296861  14.0916897
  67.6626047  73.1558765  13.1972611  61.3777903  64.3994789  12.4484661
  62.3237007  64.2700997  12.5173079  60.9992148  63.6609451  12.9254090
  59.5620820  62.3244766  12.3839547  58.6552275  62.0277878  12.4602260
  59.8396801  62.0274584  11.5173833  50.4798760  63.6451129  22.8338593
  50.1601545  62.7916437  22.5412967  49.9332188  63.8599707  23.5896560
  54.2578668  66.3613570  26.5508099  54.4764678  67.2930678  26.5696133
  54.6704442  66.0021544  27.3362903  58.3319604  59.1831701  12.5251526
  59.1938768  59.5086599  12.7847343  58.5169949  58.3963197  12.0124592
  50.3487020  67.2654041  24.8031715  49.6550492  66.8507993  24.2901669
  51.0960011  67.3074577  24.2065133  52.2623763  67.1972294  22.6797729
  52.2394451  67.2959982  21.7279613  52.5724399  68.0437445  23.0014896
  54.9211141  69.2548449  26.7944344  55.8754394  69.2232392  26.7274275
  54.7223664  68.7939073  27.6094570  55.5110523  67.8249565  29.3615142
  56.3303412  68.3193644  29.3849979  55.7847330  66.9081534  29.3332709
  65.2677119  60.2160318  18.7243097  64.3802974  60.5009968  18.5063292
  65.6831108  60.0554081  17.8770374  53.2761369  74.7968069  23.8114542
  53.1415837  74.0368470  23.2452540  52.8593432  75.5208969  23.3443331
  64.4120332  69.9804992  12.8191117  65.1156183  70.1854995  13.4348773
  63.6882981  70.5481754  13.0840201  65.2418143  65.7314854  18.9393387
  65.1853344  66.1883405  18.1001020  65.7946485  64.9705538  18.7616230
  69.0522949  61.5204585  19.7643507  68.7959883  61.1201221  20.5951714
  68.4275817  62.2348379  19.6393646  56.4330495  75.6937386  24.0232984
  56.3162879  76.6382818  23.9211675  55.6122942  75.3910947  24.4118784
  66.3207030  70.4187522  14.8689577  67.1552634  69.9868720  14.6867052
  66.1591373  70.2469535  15.7966472  65.9752922  66.9219635  16.2345916
  65.9201726  66.7563906  15.2934360  65.3498977  67.6295668  16.3908106
  50.7645437  62.1587699  30.0607339  51.4104301  61.6486653  30.5494564
  50.5562588  62.8956381  30.6350764  59.2849048  56.4227744  15.8131235
  59.2727717  57.3669584  15.9699506  60.1772469  56.2397889  15.5190696
  57.4585009  76.3465648  27.2388913  58.3612256  76.3789258  27.5555408
  57.2322380  75.4166099  27.2535249  59.2138611  75.0996634  23.8998991
  58.2634242  75.0998496  23.7863364  59.5171098  74.3529369  23.3835026
  74.9491305  80.9357173  24.9644754  75.5869715  80.8163920  24.2608094
  74.8312148  81.8838017  25.0232706  71.7581011  80.8884601  24.9006279
  71.4199523  80.7725665  24.0126813  72.6270779  80.4875766  24.8807285
  67.6167827  82.7420077  20.8903169  67.0532692  82.6510014  20.1219457
  67.5020222  81.9219982  21.3705662  72.2400794  82.0419453  30.8592484
  72.2289435  81.6472251  29.9872988  72.4021434  81.3085525  31.4526255
  65.1632259  84.2371269  23.7287390  65.9553551  83.8962093  23.3133689
  65.4028909  84.3466244  24.6489543  67.1223013  83.4980182  16.6004769
  67.8953889  82.9509169  16.4617645  67.4748412  84.3624431  16.8119230
  68.9608055  84.8256564  29.8071668  68.6697921  85.7302195  29.6918334
  69.5965040  84.8673092  30.5215738  69.8864262  82.2033413  26.3973028
  70.4827834  81.9789435  25.6829991  69.9439234  81.4618158  26.9998476
  74.5032573  78.6608627  22.0397962  75.2895663  78.2428050  21.6888379
  74.7671278  79.5654719  22.2079610  79.9041001  78.5983860  22.9430940
  80.6366173  78.0283077  23.1768770  79.1480356  78.2105460  23.3837446
  69.1785579  81.5600954  16.4347594  69.0621837  80.8845858  17.1028678
  69.2887839  81.0733328  15.6179747  71.5217120  81.0211101  20.1394283
  71.1575328  80.4941722  20.8507204  72.3784236  80.6309570  19.9660768
  77.4266421  72.3105434  27.4025549  77.0949746  73.1800845  27.1786764
  76.8312034  71.9941718  28.0819579  71.1622607  76.0501001  15.1355631
  71.3297010  76.9181237  15.5026102  70.9719776  76.2128283  14.2116921
  73.9197940  84.5117980  26.8021462  73.6198664  85.4143019  26.6937269
  73.5749000  84.2450163  27.6542615  67.3710422  80.9631777  22.8358166
  66.4460918  80.8307991  23.0435858  67.6194835  81.7425996  23.3328109
  77.3195084  77.0300520  24.4818899  76.4111962  76.9615928  24.1877660
  77.2682680  77.5072465  25.3100724  71.1411828  78.5058658  16.1202298
  71.0211453  78.9515709  16.9587778  70.4464417  78.8543976  15.5615836
  64.7319233  80.6065050  23.6701955  64.8611614  80.8599529  24.5841367
  64.0516684  81.1992758  23.3506610  71.3935950  78.4490166  32.4253796
  70.6169284  79.0084086  32.4156661  72.0326513  78.9346949  32.9468666
  79.1856731  75.2316958  26.2596773  78.5431111  75.5249492  25.6136568
  78.6811659  75.1169879  27.0649970  69.6482322  81.2575619  31.9871763
  70.3897007  81.7960663  31.7106587  68.9419308  81.8841908  32.1443315
  75.1237662  83.4004759  30.5843925  75.5321018  82.9587170  29.8398557
  74.4014923  82.8257387  30.8378118  71.4768732  78.3377366  27.9577482
  72.3229927  78.7616780  28.1012131  71.4167370  77.6810991  28.6516045
  75.4466477  83.9605950  24.3396214  74.8175339  84.1251664  23.6372282
  75.0592139  84.3747560  25.1107178  79.3255709  84.8960388  21.6940577
  78.6406747  85.2759289  21.1437611  79.4099558  85.5055715  22.4272525
  74.6268177  75.9981735  29.6158655  74.3829109  76.7523795  29.0792931
  74.9028108  76.3767082  30.4505902  76.5806640  82.5420347  28.2935921
  76.7923535  83.1852107  27.6170302  76.5336388  81.7082663  27.8257851
  74.1832869  75.1538168  25.1972493  73.3217348  75.4519421  25.4889231
  74.2095304  75.3708566  24.2653526  70.9994438  83.6980358  21.6046299
  71.4632784  83.9768061  20.8150921  70.7351237  82.7963803  21.4219389
  67.8918520  83.2451840  24.5426062  68.4619877  83.6739108  23.9043547
  68.4826631  82.9634424  25.2410248  69.9363325  79.8203511  18.4135864
  70.6387368  80.2724554  18.8809790  69.6043953  79.1787329  19.0415757
  68.3843686  78.4115267  32.7887073  67.7542347  79.0931548  33.0222470
  68.2779774  78.2998349  31.8440212  63.6788658  78.0787063  23.7152997
  62.8887712  78.3344592  23.2393108  64.1699906  78.8935401  23.8205038
  77.6952468  85.4192302  26.4658278  78.5169912  85.0172490  26.1840960
  77.6914871  85.3160537  27.4174394  65.6303404  78.4431642  20.6736474
  64.8334567  78.5550337  21.1919970  65.4028996  78.7818295  19.8077365
  71.4609072  84.9676346  28.6218989  71.5253504  85.4296753  29.4577161
  70.7519995  84.3373711  28.7501299  61.9626361  78.3317554  26.1467988
  62.2134400  79.2164564  26.4125564  62.4985910  78.1522155  25.3743080
  85.7858461  81.7631051  22.8143250  85.0322169  81.1938449  22.6587254
  85.9206002  81.7293715  23.7613884  64.6286487  84.1519891  19.0625894
  65.1411007  84.9463141  19.2131459  65.2809199  83.4546182  18.9959496
  66.4381371  87.2685647  21.1448647  66.6148000  88.1903612  20.9569631
  67.2338205  86.9544067  21.5743027  70.5792390  74.1293912  32.7432581
  71.3202103  74.7301065  32.6637043  70.8110313  73.3871550  32.1850623
  65.7233728  79.3150279  31.0210811  65.6087243  78.4135537  31.3217909
  64.8678246  79.5613976  30.6695627  72.8025566  87.2568020  32.6198311
  72.3589420  86.4704398  32.3019216  73.4642779  87.4447170  31.9542202
  67.5612687  88.7863821  27.1458990  68.1120112  88.6580885  26.3735984
  66.7224163  89.0858710  26.7953883  74.9006804  87.5370820  30.6479712
  74.8825279  88.3579701  30.1559982  75.8226724  87.4124895  30.8729854
  71.3579858  85.0514949  31.4903221  71.8908195  84.2903237  31.2602529
  70.8293939  84.7588601  32.2327375  74.5249553  70.1575015  27.0196863
  74.1813822  71.0476657  26.9435973  74.8928515  69.9676673  26.1566448
  62.5935403  82.4808545  19.8385465  63.4310625  82.8905554  19.6219172
  62.7713671  81.5407988  19.8085659  72.0746946  74.9933327  20.5854536
  71.2188543  74.6040177  20.4060175  72.4873898  75.0725288  19.7254322
  73.6046093  72.5279670  24.9846096  73.1010889  72.4909805  24.1713901
  73.8976700  73.4372413  25.0442752  69.8488979  72.6118400  23.9912278
  70.7141976  72.4161209  23.6318167  69.9166488  72.3828752  24.9181634
  74.2786139  78.0210718  17.3529079  73.9736274  78.3356867  18.2039222
  75.2316581  78.0992138  17.3956412  72.7232570  84.1800942  19.0022033
  72.1953932  83.4453701  18.6895270  72.2220073  84.9575618  18.7562001
  77.7025416  82.3749962  24.1189079  77.0449091  83.0649223  24.2069208
  78.5065816  82.7646394  24.4623066  67.4551298  74.8420608  21.3628644
  68.0295050  74.6195789  20.6301837  68.0422281  74.9109302  22.1157246
  76.5130875  80.7294335  22.1693021  77.0262757  81.3624327  22.6714731
  77.1632099  80.1295530  21.8036381  67.7820885  76.8725069  15.3824530
  66.9458197  77.2099755  15.7033804  67.6425655  76.7374049  14.4451667
  69.7573966  71.7161857  20.0903714  69.1038378  71.4010874  19.4660329
  69.7154440  71.0937597  20.8163537  72.9911706  78.2043790  24.4151361
  72.0734268  78.4258737  24.2573049  73.4071850  78.2790101  23.5563069
  73.7746754  79.6035206  19.5454042  74.5218573  80.1156603  19.2361164
  74.0438343  79.2819259  20.4058435  76.2225591  76.6392322  21.5272831
  75.4848348  76.1269708  21.8583074  76.4752365  76.1992704  20.7156108
  62.6161574  79.8199261  20.5096198  62.4185974  79.2268621  19.7847265
  62.0608238  79.5151471  21.2272137  70.5958298  79.7122367  22.6290791
  70.6506908  78.7596204  22.5533268  69.7849500  79.8681806  23.1132090
  68.5350658  78.3299427  20.3881170  67.7218524  78.6293598  20.7946362
  69.0309652  77.9355116  21.1055652  70.6859236  88.3257184  22.3215435
  70.6435415  88.5518030  21.3923967  71.6021935  88.0920559  22.4701236
  74.1324870  78.7941251  29.2196064  74.4874257  79.0212725  30.0790530
  74.7797001  79.1259628  28.5973319  68.0264733  75.9017783  26.0042405
  68.6664112  75.7606542  25.3065368  67.1942263  75.6152296  25.6281007
  79.8891986  83.9836214  24.9356665  80.3228493  83.8911503  25.7839719
  80.6023567  83.9593715  24.2976681  68.8025037  85.2020213  22.1177398
  69.5965635  84.7070533  21.9159973  68.0916729  84.6738076  21.7545103
  73.6219881  87.5838308  26.4689765  73.6756903  88.1529245  27.2367481
  72.7534663  87.7540194  26.1043802  65.1107800  79.3463295  18.1937150
  64.1805388  79.2847750  18.4107112  65.2065272  78.8239247  17.3973792
  65.0293349  75.8718108  20.7815392  65.2900167  76.7863441  20.6724552
  65.8510522  75.4042550  20.9312005  66.5018275  77.2855865  27.9514216
  67.1741328  77.0773227  27.3026865  65.6748061  77.0877951  27.5119449
  80.7507536  84.0259915  27.4689550  80.9443426  84.9305726  27.7148825
  80.6508154  83.5667334  28.3028135  72.4043847  73.9117806  29.9679877
  71.7571762  74.6107755  29.8744354  73.1744862  74.3453950  30.3356126
  75.8122645  84.1766658  33.0430431  75.6608151  83.9477209  32.1260514
  75.8027324  85.1337259  33.0561776  72.5807981  81.7498571  28.0276697
  73.5100041  81.9009730  27.8545664  72.1599011  81.8382591  27.1725344
  71.3796313  85.7749235  25.7975235  71.2407398  85.4068019  26.6701173
  70.5910909  86.2896874  25.6259192  72.9301528  85.1530838  23.1864072
  72.5951360  85.1131608  24.0821722  72.4305474  84.4875554  22.7134483
  66.9045772  80.5598468  28.7116654  66.7665570  79.8278706  29.3128193
  67.8150695  80.4707368  28.4300841  69.5328072  80.2718427  28.2000333
  70.2427691  79.6311619  28.1586952  69.4897381  80.5231322  29.1226514
  77.5214851  87.2085780  31.1206912  77.4627397  86.5245000  30.4537496
  77.9234370  87.9504770  30.6687538  68.2457006  77.2583645  30.0195973
  67.7094363  76.8074383  30.6717569  67.6573715  77.3929554  29.2766437
  66.5405550  94.0247694  23.9140631  66.7802148  94.6566218  24.5919650
  65.6974746  93.6735734  24.2005991  67.6559265  76.7172296  12.5822436
  66.7788732  76.5961097  12.2184683  68.1317018  75.9258375  12.3301325
  77.5232258  85.1725364  29.3520892  76.6359037  84.8351286  29.4747291
  78.0930809  84.4408395  29.5889658  59.1761406  81.5049456  22.6763944
  59.8632445  81.1911186  22.0884959  59.0209534  82.4090821  22.4031195
  63.9796128  76.3939653  27.1048967  63.8954316  75.7865322  26.3699377
  63.1578834  76.8848671  27.1058464  71.0533412  89.8326817  26.3182135
  70.9803583  90.6381788  26.8301440  70.6110805  90.0318782  25.4930157
  74.1519842  74.8793216  22.4719162  74.6488541  74.1263178  22.1520233
  73.3806823  74.9157533  21.9062372  82.0049599  80.5833582  24.1137454
  81.9939475  81.4658297  23.7431387  81.1366978  80.2305132  23.9191991
  73.5132095  89.7313651  28.4740294  74.2260068  90.3661115  28.4016195
  73.0222124  89.8277517  27.6580296  75.2349622  83.6364903  20.0457586
  74.3005901  83.7566366  19.8762290  75.4126291  82.7337370  19.7817596
  70.7354810  77.0210599  22.1990847  70.3652598  76.4681639  22.8871752
  71.2313903  76.4168733  21.6465847  78.6222174  79.4782223  20.5807620
  79.0882626  80.3110214  20.5067923  79.0729674  79.0127204  21.2852878
  68.5644009  87.4808094  29.2945865  69.2653468  88.1144577  29.4475259
  68.0939124  87.8222826  28.5341504  76.5938836  71.8462810  24.6198521
  75.6801916  72.0767036  24.7880728  77.0231938  71.9301254  25.4712554
  76.3645295  80.0352702  27.1198415  75.7116745  80.2828609  26.4650868
  76.7425675  79.2216840  26.7860892  72.4132868  80.7772513  33.6064452
  71.7373505  80.6766642  34.2766828  73.2360502  80.6211726  34.0700450
  64.1611727  87.0144449  26.2276968  64.7465164  86.2688137  26.3604872
  63.9636565  87.3248406  27.1113631  67.0150382  90.0495697  21.2439410
  66.3460757  90.5341824  20.7603450  66.8763252  90.2964917  22.1582788
  71.1555651  92.0839440  27.8422068  71.7073959  92.2471062  28.6071154
  71.4961844  92.6743878  27.1702093  66.1320144  74.4314590  28.4443953
  66.1961470  75.2929421  28.0321351  66.0687264  73.8188592  27.7116312
  65.6072417  76.5037722  32.0916987  66.2344455  76.1214800  32.7054512
  64.7500335  76.2851924  32.4572680  76.0066525  86.9100698  33.6970723
  76.5506429  87.5230656  33.2025678  75.4253370  87.4680276  34.2137736
  62.3837959  78.3114152  18.0235342  62.6791400  77.4024830  17.9702396
  61.4825995  78.2901891  17.7016344  74.2924038  90.0321416  24.8285750
  74.1675177  89.2311155  24.3196696  74.9503129  90.5267609  24.3399720
  65.9132206  76.3870148  24.0062891  65.1918792  77.0006116  23.8670364
  66.7025462  76.9227913  23.9279537  76.3558946  87.8330436  26.4565301
  75.4089282  87.7135787  26.3843627  76.7041720  86.9452934  26.5391562
  68.7158520  73.7224575  30.2803542  69.2392922  73.9686871  31.0429852
  68.4970853  74.5544609  29.8606680  64.1125801  75.9928249  18.1474667
  63.7838507  75.1125628  17.9649773  64.4665172  75.9375918  19.0351056
  73.3605380  87.6283152  22.6569653  73.2130342  86.6999859  22.8377223
  74.1858873  87.6503243  22.1726728  67.2267624  76.2801219  18.5150145
  67.5663697  76.8087140  17.7928753  67.6739744  76.6181625  19.2908711
  76.9639502  88.4511711  23.7434526  77.8886049  88.2454572  23.6058977
  76.7954805  88.2028112  24.6523867  69.9211065  74.6638270  27.9653213
  69.5807885  73.8646083  28.3673893  69.2150071  74.9639981  27.3930046
  70.5727537  71.7487582  26.4180536  71.3953606  71.2748060  26.2959426
  70.8165600  72.5278066  26.9179222  69.2135771  74.7775841  16.7143438
  69.9344134  75.1557093  16.2107155  68.5901075  75.4964717  16.8178416
  73.3566894  75.4820990  17.6501770  73.5730508  76.3645627  17.3490598
  72.8760961  75.0907203  16.9207412  68.0966115  78.4406703  24.2272515
  67.9510696  78.7547006  25.1196796  67.6191319  79.0591603  23.6743413
  69.9562498  75.4309251  24.2753404  69.9424067  74.5350344  23.9385702
  70.6734926  75.4379914  24.9091690  71.8088629  75.8646591  26.3206532
  71.5506407  76.7863662  26.3190862  71.2773669  75.4677025  27.0106996
  62.5711778  80.9812047  27.1660176  62.0265246  81.7571855  27.2980450
  63.4491127  81.3282852  27.0079297  69.3599394  74.3123631  19.5440974
  69.4815305  73.3840277  19.7431862  69.0701437  74.3262317  18.6319290
  72.2290585  71.9978541  22.6807694  72.2512281  72.0617875  21.7259674
  72.6458644  71.1583050  22.8748200  82.6074209  81.7333801  20.7186917
  83.0505355  80.9841126  20.3206040  81.7300719  81.7243937  20.3360649
  63.3577799  80.1081943  30.0590333  62.6159535  80.2564579  30.6454963
  63.0370544  80.3690209  29.1957082  71.3021462  89.6497922  29.8570723
  71.6108589  89.4047068  30.7293422  72.0996944  89.8544560  29.3689593
  71.3242074  91.8035831  22.0876099  70.8847064  91.3112210  22.7808956
  72.0750191  91.2608799  21.8468174  63.8034413  87.9947372  22.0900727
  64.6292433  87.6951144  21.7099371  63.4528465  87.2254995  22.5390516
  68.7715946  87.3473840  24.1598401  68.1495956  86.6844545  23.8600629
  69.4420813  87.3734972  23.4772049  62.0043018  85.9133699  23.0489661
  61.1674926  85.4855873  22.8673662  61.9766664  86.1066142  23.9860452
  68.8440474  75.8255628  33.7530907  68.8928629  76.7017751  33.3708676
  69.3862988  75.2833021  33.1802550  79.3295319  86.3696752  33.0332044
  78.5390863  86.3520891  32.4936543  79.0928674  86.9085045  33.7881081
  79.4493194  83.2189218  30.3464773  79.4991199  83.0539225  31.2880295
  79.3407118  82.3516477  29.9562653  76.7396957  79.2020146  31.6624079
  77.6406820  79.0626611  31.3708077  76.8144931  79.3674601  32.6022257
  71.0739762  76.5787001  30.5077266  70.2043072  76.8720567  30.2359854
  71.3099243  77.1627446  31.2284529  80.9511391  85.6386160  30.5906794
  80.6596200  86.0016140  31.4270255  80.3383523  84.9253168  30.4120126
  82.1507074  83.2039039  23.1109364  82.9853965  83.6428843  23.2746925
  82.2866202  82.7277693  22.2917610  79.1998580  80.7618774  29.0586852
  79.6752701  80.9546420  28.2505703  78.2764145  80.8177960  28.8130236
  66.0882086  81.9242941  18.6417930  65.8428128  81.0205271  18.8398140
  66.2578001  81.9260092  17.6997408  73.7778796  72.7966618  28.0242686
  74.2960740  73.5327645  27.6989175  73.4233929  73.1030611  28.8589445
  65.3577734  77.6571299  16.1404092  64.6646979  77.7315654  15.4844128
  65.1129486  76.8931643  16.6625609  77.9000249  77.6384534  27.2915158
  78.8517671  77.7382632  27.3127382  77.7303699  76.8462803  27.8013242
  75.9214628  74.7240117  27.4774559  75.3264560  75.0045130  26.7821047
  75.6364325  75.2134018  28.2491300  80.3788326  80.8590654  26.4057457
  80.3464646  79.9206655  26.5917141  80.9888950  80.9374691  25.6723282
  80.5282815  77.6501697  26.4515740  80.0121863  76.8660154  26.2645669
  81.4122763  77.3220414  26.6162260  78.1893542  71.3942713  22.4111553
  77.9918363  71.0857801  23.2954885  78.7993247  72.1204352  22.5409483
  86.1964876  81.9206661  25.5463494  86.9268265  81.6591949  26.1071197
  85.5871822  81.1835383  25.5865562  84.2780173  80.0614523  26.1437945
  83.5513337  79.9270488  25.5354437  83.8627460  80.3691352  26.9494663
  72.1010350  83.7804453  33.9085318  73.0213359  83.9583052  34.1025365
  72.0659933  82.8360498  33.7565018  61.3192515  78.9743047  22.8338593
  60.9995299  78.1208355  22.5412967  60.7725943  79.1891625  23.5896560
  65.0972422  81.6905488  26.5508099  65.3158432  82.6222596  26.5696133
  65.5098196  81.3313462  27.3362903  72.0176640  72.1973573  18.5383788
  71.2077368  71.8520658  18.9139034  72.7061057  71.8881117  19.1271399
  73.9467188  71.2751620  20.1608084  74.4998227  71.6947073  20.8198108
  74.1837275  70.3487368  20.2031041  69.9700288  77.2638693  35.9410848
  69.8697014  78.2133050  35.8722939  69.7521830  76.9356932  35.0686918
  69.1713359  74.5123619  12.5251526  70.0332523  74.8378517  12.7847343
  69.3563703  73.7255114  12.0124592  61.1880775  82.5945958  24.8031715
  60.4944246  82.1799911  24.2901669  61.9353766  82.6366495  24.2065133
  77.3245995  73.3852145  19.6686749  76.7444665  74.0436949  19.2864801
  77.0581928  72.5629490  19.2574166  75.7749562  72.7857203  21.8708069
  76.2749340  72.8973737  21.0622388  76.4185170  72.4818256  22.5108878
  69.8331558  80.6935832  34.7575910  69.3498639  81.4936192  34.9639799
  69.9192497  80.7043777  33.8043354  63.1017517  82.5264212  22.6797729
  63.0788205  82.6251899  21.7279613  63.4118154  83.3729363  23.0014896
  65.7604895  84.5840367  26.7944344  66.7148149  84.5524309  26.7274275
  65.5617419  84.1230991  27.6094570  66.3504277  83.1541483  29.3615142
  67.1697166  83.6485562  29.3849979  66.6241085  82.2373451  29.3332709
  76.1070873  75.5452235  18.7243097  75.2196729  75.8301886  18.5063292
  76.5224863  75.3845999  17.8770374  79.4585410  75.5698756  22.4397436
  80.2345800  76.0595209  22.7122053  78.7333544  75.9956811  22.8969306
  81.8957968  76.2826376  23.4971377  82.4902459  76.0422112  22.7864685
  81.9684552  75.5633506  24.1244913  64.1155124  90.1259987  23.8114542
  63.9809592  89.3660387  23.2452540  63.6987186  90.8500886  23.3443331
  76.0811897  81.0606771  18.9393387  76.0247099  81.5175323  18.1001020
  76.6340240  80.2997456  18.7616230  79.8916703  76.8496503  19.7643507
  79.6353637  76.4493139  20.5951714  79.2669571  77.5640297  19.6393646
  84.2029041  79.5892576  22.2714798  83.6428599  79.6585766  23.0446360
  83.5972544  79.4133561  21.5514294  67.2724250  91.0229304  24.0232984
  67.1556634  91.9674736  23.9211675  66.4516696  90.7202865  24.4118784
  61.6039192  77.4879617  30.0607339  62.2498055  76.9778571  30.5494564
  61.3956343  78.2248299  30.6350764  74.1292584  84.5560464  35.5599479
  74.9983743  84.7301117  35.1986114  73.6499335  85.3754881  35.4375208
  70.1242802  71.7519662  15.8131235  70.1121472  72.6961501  15.9699506
  71.0166224  71.5689807  15.5190696  68.2978764  91.6757565  27.2388913
  69.2006011  91.7081176  27.5555408  68.0716134  90.7458016  27.2535249
  70.0532366  90.4288552  23.8998991  69.1027997  90.4290414  23.7863364
  70.3564852  89.6821287  23.3835026  65.9436683  74.6347234  34.1582353
  66.8068144  74.2784039  34.3685677  65.3702093  74.2961129  34.8457757
  83.0794549  97.3711370  30.8592484  83.0683189  96.9764168  29.9872988
  83.2415188  96.6377443  31.4526255  88.2660175  87.6397352  27.4025549
  87.9343500  88.5092762  27.1786764  87.6705789  87.3233636  28.0819579
  82.2329705  93.7782083  32.4253796  81.4563039  94.3376003  32.4156661
  82.8720268  94.2638866  32.9468666  80.4876077  96.5867537  31.9871763
  81.2290761  97.1252581  31.7106587  79.7813062  97.2133825  32.1443315
  82.3162486  93.6669284  27.9577482  83.1623682  94.0908697  28.1012131
  82.2561124  93.0102908  28.6516045  85.4661932  91.3273652  29.6158655
  85.2222864  92.0815713  29.0792931  85.7421862  91.7059000  30.4505902
  79.2237441  93.7407185  32.7887073  78.5936101  94.4223466  33.0222470
  79.1173528  93.6290266  31.8440212  72.8020116  93.6609471  26.1467988
  73.0528154  94.5456481  26.4125564  73.3379664  93.4814073  25.3743080
  78.5018183  88.0427951  35.1512324  78.1085129  87.4894149  35.8259969
  79.3184324  88.3538529  35.5418842  81.4186144  89.4585830  32.7432581
  82.1595858  90.0592983  32.6637043  81.6504067  88.7163468  32.1850623
  76.5627482  94.6442197  31.0210811  76.4480997  93.7427454  31.3217909
  75.7072000  94.8905894  30.6695627  85.3643307  85.4866933  27.0196863
  85.0207577  86.3768574  26.9435973  85.7322270  85.2968590  26.1566448
  80.6882733  87.9410318  23.9912278  81.5535730  87.7453126  23.6318167
  80.7560242  87.7120669  24.9181634  78.8658487  91.2309700  26.0042405
  79.5057867  91.0898459  25.3065368  78.0336018  90.9444214  25.6281007
  77.3412029  92.6147782  27.9514216  78.0135082  92.4065145  27.3026865
  76.5141816  92.4169868  27.5119449  83.2437601  89.2409723  29.9679877
  82.5965516  89.9399673  29.8744354  84.0138616  89.6745867  30.3356126
  77.7439526  95.8890385  28.7116654  77.6059324  95.1570624  29.3128193
  78.6544450  95.7999285  28.4300841  80.3721827  95.6010345  28.2000333
  81.0821445  94.9603537  28.1586952  80.3291135  95.8523240  29.1226514
  79.0850761  92.5875563  30.0195973  78.5488118  92.1366301  30.6717569
  78.4967469  92.7221471  29.2766437  74.8189882  91.7231570  27.1048967
  74.7348071  91.1157240  26.3699377  73.9972589  92.2140589  27.1058464
  83.2526622  96.1064430  33.6064452  82.5767259  96.0058560  34.2766828
  84.0754256  95.9503644  34.0700450  69.5923136  94.9141967  24.9481411
  69.6307236  94.3805558  25.7418529  69.0863429  94.3877173  24.3292388
  76.9713898  89.7606508  28.4443953  77.0355225  90.6221338  28.0321351
  76.9081019  89.1480509  27.7116312  76.4466171  91.8329640  32.0916987
  77.0738210  91.4506717  32.7054512  75.5894090  91.6143842  32.4572680
  79.5552274  89.0516492  30.2803542  80.0786676  89.2978789  31.0429852
  79.3364608  89.8836527  29.8606680  80.7604819  89.9930187  27.9653213
  80.4201640  89.1938000  28.3673893  80.0543826  90.2931898  27.3930046
  81.4121291  87.0779500  26.4180536  82.2347360  86.6039978  26.2959426
  81.6559355  87.8569984  26.9179222  82.6482383  91.1938509  26.3206532
  82.3900161  92.1155579  26.3190862  82.1167424  90.7968943  27.0106996
  73.4105532  96.3103965  27.1660176  72.8659000  97.0863773  27.2980450
  74.2884882  96.6574769  27.0079297  74.1971554  95.4373861  30.0590333
  73.4553290  95.5856496  30.6454963  73.8764298  95.6982127  29.1957082
  79.6834228  91.1547546  33.7530907  79.7322384  92.0309669  33.3708676
  80.2256742  90.6124939  33.1802550  81.9133517  91.9078918  30.5077266
  81.0436826  92.2012485  30.2359854  82.1492997  92.4919363  31.2284529
  84.6172551  88.1258535  28.0242686  85.1354494  88.8619562  27.6989175
  84.2627683  88.4322529  28.8589445  80.8094042  92.5930611  35.9410848
  80.7090769  93.5424968  35.8722939  80.5915584  92.2648850  35.0686918
  80.6725312  96.0227750  34.7575910  80.1892394  96.8228110  34.9639799
  80.7586251  96.0335695  33.8043354  77.1898032  98.4833401  29.3615142
  78.0090921  98.9777479  29.3849979  77.4634839  97.5665369  29.3332709
  72.4432946  92.8171535  30.0607339  73.0891810  92.3070489  30.5494564
  72.2350097  93.5540216  30.6350764  76.7830437  89.9639152  34.1582353
  77.6461899  89.6075957  34.3685677  76.2095848  89.6253047  34.8457757
  39.7219532  13.0605822  17.5837791  39.7108173  12.6658620  16.7118294
  39.8840171  12.3271895  18.1771562  36.4426793  15.8442934  16.5316975
  36.1516659  16.7488565  16.4163641  37.0783778  15.8859461  17.2461044
  41.4016678  15.5304349  13.5266768  41.1017401  16.4329388  13.4182576
  41.0567738  15.2636533  14.3787921  38.8754688   9.4676535  19.1499103
  38.0988022  10.0270455  19.1401968  39.5145251   9.9533318  19.6713973
  37.1301060  12.2761989  18.7117070  37.8715744  12.8147032  18.4351894
  36.4238046  12.9028277  18.8688622  42.6056400  14.4191129  17.3089231
  43.0139756  13.9773540  16.5643864  41.8833661  13.8443757  17.5623424
  44.0625378  13.5606716  15.0181228  44.2742273  14.2038476  14.3415609
  44.0155126  12.7269033  14.5503158  45.1771206  16.4378672  13.1903585
  45.9988650  16.0358859  12.9086267  45.1733609  16.3346906  14.1419701
  38.9427809  15.9862715  15.3464295  39.0072242  16.4483122  16.1822467
  38.2338733  15.3560080  15.4746605  40.2844303  18.2754389  19.3443618
  39.8408158  17.4890768  19.0264522  40.9461517  18.4633540  18.6787509
  35.0431425  19.8050191  13.8704296  35.5938850  19.6767254  13.0981290
  34.2042900  20.1045080  13.5199189  42.3825541  18.5557189  17.3725019
  42.3644017  19.3766070  16.8805288  43.3045461  18.4311264  17.5975160
  38.8398596  16.0701319  18.2148527  39.3726932  15.3089607  17.9847835
  38.3112677  15.7774970  18.9572682  47.3710724  15.0022584  11.6601971
  47.8047231  14.9097873  12.5085025  48.0842305  14.9780084  11.0221987
  41.1038619  18.6024678  13.1935072  41.1575641  19.1715614  13.9612788
  40.2353400  18.7726563  12.8289109  48.2326274  15.0446285  14.1934857
  48.4262164  15.9492095  14.4394132  48.1326892  14.5853704  15.0273442
  43.2941382  15.1953027  19.7675737  43.1426889  14.9663579  18.8505821
  43.2846062  16.1523629  19.7807082  45.0033589  18.2272150  17.8452219
  44.9446135  17.5431370  17.1782802  45.4053107  18.9691140  17.3932845
  45.0050996  16.1911734  16.0766199  44.1177775  15.8537656  16.1992598
  45.5749547  15.4594765  16.3134964  38.5352150  20.8513186  13.0427442
  38.4622321  21.6568158  13.5546747  38.0929543  21.0505152  12.2175463
  40.9950833  20.7500020  15.1985601  41.7078805  21.3847485  15.1261502
  40.5040862  20.8463886  14.3825603  36.0462747  18.4994464  16.0191171
  36.7472206  19.1330947  16.1720566  35.5757862  18.8409195  15.2586811
  39.8951606  11.7958882  20.3309759  39.2192243  11.6953012  21.0012134
  40.7179240  11.6398096  20.7945756  38.6374389  23.1025810  14.5667375
  39.1892697  23.2657431  15.3316460  38.9780582  23.6930247  13.8947400
  43.4885263  17.9287067  20.4216029  44.0325167  18.5417025  19.9270984
  42.9072108  18.4866646  20.9383042  41.7742776  21.0507785  11.5531057
  41.6493915  20.2497525  11.0442003  42.4321867  21.5453979  11.0645027
  43.8377684  18.8516805  13.1810607  42.8908020  18.7322156  13.1088934
  44.1860457  17.9639303  13.2636869  44.4458239  19.4698080  10.4679832
  45.3704787  19.2640942  10.3304283  44.2773543  19.2214481  11.3769174
  38.7840200  20.6684291  16.5816029  39.0927326  20.4233438  17.4538729
  39.5815682  20.8730930  16.0934900  46.8114057  17.3883121  19.7577351
  46.0209601  17.3707260  19.2181850  46.5747412  17.9271415  20.5126387
  46.9311932  14.2375588  17.0710079  46.9809937  14.0725595  18.0125602
  46.8225856  13.3702847  16.6807960  44.2215695  10.2206516  18.3869386
  45.1225557  10.0812980  18.0953384  44.2963669  10.3860970  19.3267563
  48.4330129  16.6572529  17.3152101  48.1414937  17.0202510  18.1515562
  47.8202260  15.9439537  17.1365433  46.6817317  11.7805144  15.7832159
  47.1571439  11.9732790  14.9751010  45.7582883  11.8364330  15.5375542
  47.8607064  11.8777024  13.1302764  47.8283384  10.9393024  13.3162448
  48.4707688  11.9561060  12.3968589  53.6783614  12.9393030  12.2708801
  54.4087002  12.6778318  12.8316504  53.0690559  12.2021752  12.3110869
  51.7598911  11.0800893  12.8683252  51.0332075  10.9456858  12.2599744
  51.3446198  11.3877722  13.6739970  39.5829088  14.7990823  20.6330625
  40.5032097  14.9769422  20.8270671  39.5478671  13.8546868  20.4810324
  37.4519025   8.2825063  22.6656155  37.3515752   9.2319420  22.5968246
  37.2340567   7.9543302  21.7932225  37.3150295  11.7122202  21.4821217
  36.8317377  12.5122562  21.6885106  37.4011234  11.7230147  20.5288661
  41.6111321  15.5746834  22.2844786  42.4802481  15.7487486  21.9231421
  41.1318073  16.3941251  22.1620515  35.7797502  22.6943935  13.9634219
  36.6824748  22.7267545  14.2800714  35.5534872  21.7644386  13.9780555
  53.2703797  27.2835460  11.6890060  53.9082207  27.1642207  10.9853401
  53.1524640  28.2316304  11.7478013  50.0793504  27.2362888  11.6251585
  49.7412015  27.1203953  10.7372120  50.9483272  26.8354053  11.6052591
  45.9380319  29.0898364   7.6148476  45.3745184  28.9988301   6.8464764
  45.8232714  28.2698269   8.0950969  50.5613287  28.3897740  17.5837791
  50.5501927  27.9950538  16.7118294  50.7233926  27.6563812  18.1771562
  43.4844751  30.5849556  10.4532697  44.2766043  30.2440381  10.0378996
  43.7241401  30.6944531  11.3734850  51.5179878  32.7569332   2.9262941
  50.8667858  33.3423413   2.5396955  52.3124241  33.2875527   2.9857978
  45.4435505  29.8458469   3.3250075  46.2166381  29.2987456   3.1862951
  45.7960904  30.7102719   3.5364537  47.2820548  31.1734852  16.5316975
  46.9910414  32.0780482  16.4163641  47.9177532  31.2151379  17.2461044
  48.2076754  28.5511700  13.1218334  48.8040327  28.3267722  12.4075297
  48.2651726  27.8096446  13.7243782  52.8245066  25.0086914   8.7643268
  53.6108155  24.5906337   8.4133685  53.0883770  25.9133006   8.9324917
  52.9955143  30.4459764   3.4631925  52.3600976  30.5194391   4.1752830
  52.6652549  31.0353363   2.7851005  58.2253493  24.9462147   9.6676247
  58.9578665  24.3761364   9.9014076  57.4692849  24.5583747  10.1082753
  49.8429613  27.3689388   6.8639589  49.4787820  26.8420009   7.5752511
  50.6996728  26.9787858   6.6906075  55.7478913  18.6583721  14.1270856
  55.4162238  19.5279132  13.9032071  55.1524527  18.3420005  14.8064886
  52.2410433  30.8596267  13.5266768  51.9411156  31.7621306  13.4182576
  51.8961492  30.5928450  14.3787921  45.6922914  27.3110064   9.5603473
  44.7673411  27.1786278   9.7681165  45.9407327  28.0904283  10.0573415
  55.6407577  23.3778807  11.2064206  54.7324454  23.3094216  10.9122967
  55.5895172  23.8550752  12.0346031  43.0531725  26.9543337  10.3947262
  43.1824106  27.2077816  11.3086674  42.3729177  27.5471045  10.0751917
  47.2231213  37.6240587   6.4937736  47.1455242  38.5748413   6.5726217
  46.6192856  37.2786460   7.1512662  49.7148442  24.7968453  19.1499103
  48.9381776  25.3562373  19.1401968  50.3539005  25.2825236  19.6713973
  57.5069223  21.5795246  12.9842080  56.8643603  21.8727779  12.3381874
  57.0024151  21.4648166  13.7895276  55.1609387  25.3258419   3.6727939
  56.0727243  25.5585806   3.4975636  54.6519034  25.9095463   3.1103017
  47.9694815  27.6053906  18.7117070  48.7109499  28.1438950  18.4351894
  47.2631800  28.2320195  18.8688622  53.4450154  29.7483047  17.3089231
  53.8533510  29.3065457  16.5643864  52.7227416  29.1735674  17.5623424
  49.7981224  24.6855653  14.6822788  50.6442419  25.1095067  14.8257437
  49.7379862  24.0289278  15.3761351  53.7678969  30.3084237  11.0641520
  53.1387831  30.4729951  10.3617588  53.3804631  30.7225847  11.8352484
  57.6468201  31.2438675   8.4185884  56.9619239  31.6237577   7.8682917
  57.7312050  31.8534002   9.1517832  52.9480670  22.3460022  16.3403962
  52.7041601  23.1002082  15.8038238  53.2240600  22.7245369  17.1751209
  54.9019132  28.8898634  15.0181228  55.1136028  29.5330394  14.3415609
  54.8548881  28.0560951  14.5503158  52.5045361  21.5016455  11.9217800
  51.6429840  21.7997708  12.2134537  52.5307796  21.7186854  10.9898832
  49.3206931  30.0458645   8.3291605  49.7845276  30.3246348   7.5396228
  49.0563729  29.1442090   8.1464696  46.2131012  29.5930127  11.2671369
  46.7832369  30.0217395  10.6288853  46.8039124  29.3112712  11.9655554
  48.2575817  26.1681798   5.1381171  48.9599860  26.6202841   5.6055097
  47.9256445  25.5265617   5.7661064  46.7056178  24.7593554  19.5132380
  46.0754839  25.4409835  19.7467777  46.5992266  24.6476636  18.5685518
  42.0001151  24.4265350  10.4398304  41.2100205  24.6822879   9.9638415
  42.4912398  25.2413688  10.5450345  56.0164960  31.7670590  13.1903585
  56.8382404  31.3650777  12.9086267  56.0127363  31.6638824  14.1419701
  43.9515896  24.7909930   7.3981781  43.1547059  24.9028624   7.9165276
  43.7241488  25.1296582   6.5322671  49.7821564  31.3154633  15.3464295
  49.8465996  31.7775040  16.1822467  49.0732488  30.6851998  15.4746605
  40.2838854  24.6795841  12.8713295  40.5346892  25.5642851  13.1370871
  40.8198402  24.5000442  12.0988387  64.1070953  28.1109338   9.5388556
  63.3534662  27.5416736   9.3832561  64.2418495  28.0772003  10.4859191
  49.4969581  32.9822740   5.2143276  49.3615256  33.8274276   5.6428124
  50.0379394  33.1842018   4.4509210  45.9836921  19.0614320  21.8757631
  45.5903867  18.5080519  22.5505275  46.8003061  19.3724899  22.2664148
  42.9498979  30.4998178   5.7871201  43.4623499  31.2941429   5.9376766
  43.6021692  29.8024469   5.7204802  44.7593864  33.6163935   7.8693954
  44.9360492  34.5381899   7.6814938  45.5550697  33.3022354   8.2988334
  48.9004882  20.4772199  19.4677888  49.6414595  21.0779352  19.3882350
  49.1322805  19.7349837  18.9095930  44.0446220  25.6628567  17.7456117
  43.9299735  24.7613824  18.0463216  43.1890738  25.9092263  17.3940934
  51.1238058  33.6046307  19.3443618  50.6801912  32.8182685  19.0264522
  51.7855271  33.7925457  18.6787509  45.8825179  35.1342108  13.8704296
  46.4332604  35.0059172  13.0981290  45.0436655  35.4336997  13.5199189
  53.2219296  33.8849107  17.3725019  53.2037771  34.7057988  16.8805288
  54.1439216  33.7603182  17.5975160  49.6792350  31.3993236  18.2148527
  50.2120687  30.6381524  17.9847835  49.1506431  31.1066888  18.9572682
  52.8462045  16.5053302  13.7442169  52.5026314  17.3954944  13.6681280
  53.2141008  16.3154960  12.8811754  40.9147896  28.8286833   6.5630771
  41.7523118  29.2383841   6.3464479  41.0926163  27.8886275   6.5330965
  52.8112328  26.4961913   2.2514604  52.2958951  27.2666518   2.4902992
  52.5389636  25.8227050   2.8747666  50.3959439  21.3411614   7.3099843
  49.5401035  20.9518465   7.1305481  50.8086391  21.4203575   6.4499628
  51.9258585  18.8757957  11.7091402  51.4223381  18.8388093  10.8959208
  52.2189192  19.7850700  11.7688059  48.1701471  18.9596687  10.7157584
  49.0354468  18.7639496  10.3563474  48.2378980  18.7307039  11.6426941
  57.7846602  29.2494268   4.1867778  57.0076045  28.9105428   3.7422940
  58.4638083  29.2546891   3.5122743  52.5998631  24.3689005   4.0774385
  52.2948766  24.6835155   4.9284529  53.5529073  24.4470425   4.1201718
  51.0445063  30.5279229   5.7267339  50.5166424  29.7931988   5.4140577
  50.5432565  31.3053905   5.4807308  56.0237909  28.7228249  10.8434386
  55.3661583  29.4127511  10.9314514  56.8278308  29.1124681  11.1868372
  54.8343368  27.0772622   8.8938328  55.3475249  27.7102614   9.3960037
  55.4844591  26.4773817   8.5281688  52.0965742  37.0556946   1.6498999
  51.4227441  37.3588643   2.2583956  52.4831564  37.8586027   1.3004456
  51.3124198  24.5522078  11.1396668  50.3946760  24.7737025  10.9818356
  51.7284342  24.6268388  10.2808375  52.0959246  25.9513493   6.2699348
  52.8431065  26.4634890   5.9606470  52.3650836  25.6297546   7.1303742
  50.3685896  28.4472034   3.2526303  49.4597116  28.1631067   3.3498772
  50.3980980  28.8671112   2.3929609  55.6005164  32.0578623   7.0217470
  55.1467491  31.2169533   7.0782661  54.9699130  32.6940022   7.3592250
  54.5438083  22.9870609   8.2518138  53.8060840  22.4747996   8.5828380
  54.7964857  22.5470991   7.4401414  54.0438103  33.8955120   7.9567288
  54.3361077  34.4560177   7.2379654  54.5536724  34.1883681   8.7120447
  54.6449711  15.7646861   8.8459907  54.9508587  14.9044225   8.5585822
  55.3702315  16.3564482   8.6458901  48.9170790  26.0600655   9.3536098
  48.9719400  25.1074491   9.2778575  48.1061992  26.2160094   9.8377396
  46.8563150  24.6777714   7.1126477  46.0431016  24.9771885   7.5191669
  47.3522145  24.2833403   7.8300959  49.0071728  34.6735471   9.0460742
  48.9647907  34.8996317   8.1169274  49.9234427  34.4398846   9.1946543
  52.4537362  25.1419539  15.9441371  52.8086750  25.3691012  16.8035836
  53.1009493  25.4737916  15.3218626  58.1835099  28.2637975   6.6490700
  58.0452998  28.4539571   5.7211889  57.8271318  29.0257357   7.1058751
  46.3477225  22.2496070  12.7287712  46.9876604  22.1084829  12.0310675
  45.5154756  21.9630583  12.3526314  58.2104479  30.3314502  11.6601971
  58.6440985  30.2389791  12.5085025  58.9236059  30.3072002  11.0221987
  47.1237529  31.5498500   8.8422704  47.9178127  31.0548820   8.6405279
  46.4129221  31.0216363   8.4790410  51.9432373  33.9316596  13.1935072
  51.9969396  34.5007532  13.9612788  51.0747155  34.1018481  12.8289109
  44.8230767  23.6334152  14.6759523  45.4953820  23.4251514  14.0272172
  43.9960553  23.4356238  14.2364755  59.0720028  30.3738202  14.1934857
  59.2655918  31.2784013  14.4394132  58.9720646  29.9145621  15.0273442
  50.7256339  20.2596093  16.6925184  50.0784254  20.9586043  16.5989660
  51.4957354  20.6932237  17.0601432  54.1335137  30.5244945  19.7675737
  53.9820643  30.2955497  18.8505821  54.1239816  31.4815546  19.7807082
  50.9020473  28.0976858  14.7522004  51.8312533  28.2488017  14.5790971
  50.4811503  28.1860879  13.8970650  49.7008805  32.1227522  12.5220541
  49.5619891  31.7546307  13.3946479  48.9123401  32.6375162  12.3504499
  50.2956957  37.2236619   3.8646078  50.4708713  36.7524662   4.6791701
  49.6089745  37.8502385   4.0927339  51.2514020  31.5009125   9.9109379
  50.9163853  31.4609895  10.8067029  50.7517966  30.8353841   9.4379789
  45.2258264  26.9076755  15.4361960  45.0878062  26.1756994  16.0373499
  46.1363188  26.8185655  15.1546148  47.8540565  26.6196714  14.9245640
  48.5640183  25.9789906  14.8832258  47.8109873  26.8709609  15.8471821
  55.8427343  33.5564068  17.8452219  55.7839890  32.8723288  17.1782802
  56.2446862  34.2983058  17.3932845  46.5669499  23.6061932  16.7441279
  46.0306856  23.1552671  17.3962876  45.9786207  23.7407841  16.0011744
  44.8618042  40.3725981  10.6385938  45.1014640  41.0044506  11.3164957
  44.0187239  40.0214021  10.9251297  55.8444751  31.5203652  16.0766199
  54.9571529  31.1829573  16.1992598  56.4143302  30.7886683  16.3134964
  37.4973898  27.8527743   9.4009250  38.1844938  27.5389473   8.8130266
  37.3422027  28.7569108   9.1276502  42.3008620  22.7417940  13.8294274
  42.2166809  22.1343609  13.0944684  41.4791326  23.2326958  13.8303770
  49.3745904  36.1805104  13.0427442  49.3016076  36.9860075  13.5546747
  48.9323297  36.3797070  12.2175463  49.1635684  35.4176874   6.5530264
  48.3803206  35.9598554   6.6468488  49.8628429  35.9350854   6.9524505
  52.4732334  21.2271503   9.1964469  52.9701033  20.4741466   8.8765539
  51.7019315  21.2635820   8.6307678  60.3262091  26.9311869  10.8382760
  60.3151967  27.8136584  10.4676694  59.4579471  26.5783420  10.6437298
  51.8344588  36.0791938  15.1985601  52.5472560  36.7139403  15.1261502
  51.3434616  36.1755804  14.3825603  53.5562115  29.9843191   6.7702892
  52.6218393  30.1044653   6.6007597  53.7338783  29.0815657   6.5062902
  49.0567303  23.3688886   8.9236154  48.6865090  22.8159927   9.6117059
  49.5526395  22.7647020   8.3711154  56.9434666  25.8260510   7.3052926
  57.4095118  26.6588501   7.2313229  57.3942166  25.3605491   8.0098185
  46.8856501  33.8286381  16.0191171  47.5865961  34.4622864  16.1720566
  46.4151616  34.1701113  15.2586811  55.0110897  32.1704331   4.3039079
  55.2870741  32.0560926   5.2132953  54.1415396  31.7721816   4.2651252
  54.9151329  18.1941097  11.3443828  54.0014408  18.4245324  11.5126035
  55.3444430  18.2779541  12.1957860  54.6857787  26.3830989  13.8443722
  54.0329237  26.6306896  13.1896175  55.0638167  25.5695127  13.5106199
  51.6464961  36.4190682   7.9471892  51.8287356  35.6012338   8.4099644
  52.4697947  36.6358374   7.5096782  51.9807127  35.3458867   5.2086941
  52.5094893  34.8351322   4.5957103  52.2435346  35.0301397   6.0732474
  50.7345360  27.1250800  20.3309759  50.0585997  27.0244929  21.0012134
  51.5572994  26.9690014  20.7945756  42.4824219  33.3622736  12.9522274
  43.0677656  32.6166424  13.0850178  42.2849058  33.6726693  13.8358938
  45.3362874  36.3973984   7.9684717  44.6673250  36.8820111   7.4848757
  45.1975744  36.6443204   8.8828095  37.0741874  25.9328337  11.6726717
  37.1125973  25.3991927  12.4663835  36.5682167  25.4063542  11.0537695
  49.4768143  38.4317727  14.5667375  50.0286451  38.5949349  15.3316460
  49.8174336  39.0222165  13.8947400  44.4532636  20.7792877  15.1689260
  44.5173963  21.6407708  14.7566657  44.3899756  20.1666879  14.4361618
  43.9284909  22.8516010  18.8162294  44.5556948  22.4693087  19.4299818
  43.0712828  22.6330212  19.1817986  54.3279017  33.2578985  20.4216029
  54.8718921  33.8708943  19.9270984  53.7465862  33.8158563  20.9383042
  52.6136530  36.3799703  11.5531057  52.4887670  35.5789443  11.0442003
  53.2715621  36.8745896  11.0645027  44.2344699  22.7348435  10.7308197
  43.5131284  23.3484403  10.5915671  45.0237954  23.2706200  10.6524843
  54.6771439  34.1808723  13.1810607  53.7301774  34.0614074  13.1088934
  55.0254212  33.2931221  13.2636869  47.0371012  20.0702862  17.0048849
  47.5605414  20.3165158  17.7675158  46.8183345  20.9022897  16.5851986
  51.6817872  33.9761439   9.3814959  51.5342834  33.0478147   9.5622529
  52.5071365  33.9981530   8.8972035  55.2851994  34.7989998  10.4679832
  56.2098541  34.5932859  10.3304283  55.1167297  34.5506399  11.3769174
  48.2423557  21.0116557  14.6898520  47.9020377  20.2124370  15.0919199
  47.5362563  21.3118268  14.1175353  48.8940029  18.0965869  13.1425843
  49.7166098  17.6226348  13.0204733  49.1378092  18.8756353  13.6424529
  46.4178608  24.7884990  10.9517821  46.2723188  25.1025293  11.8442103
  45.9403811  25.4069890  10.3988720  48.2774991  21.7787538  10.9998711
  48.2636559  20.8828631  10.6631009  48.9947419  21.7858202  11.6336997
  50.1301121  22.2124878  13.0451838  49.8718899  23.1341949  13.0436169
  49.5986162  21.8155313  13.7352302  55.0747310  35.3175665   5.8241924
  55.2484188  34.7522088   5.0715776  55.5676201  36.1176560   5.6421414
  40.8924270  27.3290334  13.8905482  40.3477738  28.1050142  14.0225757
  41.7703620  27.6761139  13.7324604  50.5503077  18.3456829   9.4053001
  50.5724774  18.4096162   8.4504980  50.9671136  17.5061337   9.5993507
  60.9286701  28.0812088   7.4432223  61.3717847  27.3319413   7.0451347
  60.0513211  28.0722225   7.0605955  56.0622483  34.6342430   2.9238822
  56.7573387  35.2549122   3.1426137  56.4045633  33.7837781   3.1991200
  41.6790292  26.4560231  16.7835639  40.9372028  26.6042866  17.3700270
  41.3583036  26.7168496  15.9202389  57.9613906  32.0842135   4.4526153
  58.4865230  32.4229408   3.7275473  57.8736258  31.1489151   4.2689287
  49.6233954  35.9976209  16.5816029  49.9321081  35.7525356  17.4538729
  50.4209436  36.2022847  16.0934900  49.6454566  38.1514119   8.8121406
  49.2059557  37.6590497   9.5054263  50.3962683  37.6087086   8.5713481
  42.1246905  34.3425659   8.8146034  42.9504925  34.0429431   8.4344677
  41.7740957  33.5733282   9.2635823  47.0928439  33.6952128  10.8843708
  46.4708448  33.0322833  10.5845935  47.7633305  33.7213260  10.2017355
  40.3255510  32.2611986   9.7734968  39.4887419  31.8334160   9.5918969
  40.2979156  32.4544429  10.7105759  47.1652966  22.1733916  20.4776214
  47.2141122  23.0496038  20.0953983  47.7075480  21.6311309  19.9047857
  57.6507812  32.7175039  19.7577351  56.8603355  32.6999178  19.2181850
  57.4141166  33.2563333  20.5126387  57.7705687  29.5667505  17.0710079
  57.8203692  29.4017513  18.0125602  57.6619610  28.6994764  16.6807960
  46.6541945  32.2456051   4.3602168  46.8030066  32.9291515   3.7068841
  47.4608389  32.2261141   4.8751624  55.0609449  25.5498433  18.3869386
  55.9619312  25.4104898  18.0953384  55.1357424  25.7152888  19.3267563
  49.3952254  22.9265288  17.2322572  48.5255564  23.2198854  16.9605161
  49.6311735  23.5105733  17.9529836  59.2723884  31.9864447  17.3152101
  58.9808692  32.3494427  18.1515562  58.6596015  31.2731455  17.1365433
  60.4719566  29.5517327   9.8354671  61.3066457  29.9907131   9.9992231
  60.6078695  29.0755980   9.0162917  57.5211072  27.1097061  15.7832159
  57.9965193  27.3024708  14.9751010  56.5976637  27.1656247  15.5375542
  44.4094578  28.2721229   5.3663237  44.1640620  27.3683559   5.5643447
  44.5790493  28.2738379   4.4242715  52.0991288  19.1444905  14.7487993
  52.6173232  19.8805932  14.4234481  51.7446421  19.4508898  15.5834752
  52.3503882  15.5645188  10.2688889  52.6305636  14.8968377  10.8949316
  53.1354489  15.7574283   9.7563553  50.1537351  34.7404181   1.8313915
  49.5811318  35.3594369   1.3784387  50.7270145  35.2903543   2.3653837
  56.2212741  23.9862821  14.0160464  57.1730164  24.0860919  14.0372688
  56.0516191  23.1941090  14.5258549  54.2427120  21.0718405  14.2019865
  53.6477052  21.3523417  13.5066354  53.9576817  21.5612306  14.9736606
  53.3734611  35.0241332   2.9622498  54.3065284  34.9586893   3.1655373
  53.2857824  35.8597598   2.5037030  56.0022627  34.3407202  -0.0773555
  55.9236259  34.0067065   0.8162203  56.8232294  34.8328970  -0.0782082
  58.7000819  27.2068941  13.1302764  58.6677139  26.2684942  13.3162448
  59.3101442  27.2852978  12.3968589  58.8495307  23.9979985  13.1761047
  58.3334356  23.2138441  12.9890976  59.7335256  23.6698701  13.3407567
  56.5106034  17.7421000   9.1356860  56.3130855  17.4336088  10.0200192
  57.1205740  18.4682639   9.2654790  64.5177368  28.2684948  12.2708801
  65.2480757  28.0070236  12.8316504  63.9084314  27.5313670  12.3110869
  62.5992666  26.4092811  12.8683252  61.8725829  26.2748776  12.2599744
  62.1839952  26.7169639  13.6739970  50.4222842  30.1282740  20.6330625
  51.3425851  30.3061339  20.8270671  50.3872425  29.1838786  20.4810324
  39.6405007  25.3221334   9.5583900  39.3207791  24.4686642   9.2658274
  39.0938435  25.5369912  10.3141867  43.4184915  28.0383775  13.2753406
  43.6370924  28.9700883  13.2941440  43.8310688  27.6791749  14.0608210
  48.2912780  23.6116981  22.6656155  48.1909507  24.5611338  22.5968246
  48.0734322  23.2835220  21.7932225  39.5093267  28.9424245  11.5277021
  38.8156738  28.5278198  11.0146976  40.2566258  28.9844782  10.9310440
  55.6458488  19.7330432   6.3932055  55.0657157  20.3915236   6.0110108
  55.3794420  18.9107777   5.9819473  54.0962054  19.1335490   8.5953376
  54.5961832  19.2452024   7.7867695  54.7397662  18.8296543   9.2354184
  48.1544050  27.0414120  21.4821217  47.6711132  27.8414480  21.6885106
  48.2404989  27.0522064  20.5288661  41.4230010  28.8742499   9.4043036
  41.4000698  28.9730187   8.4524919  41.7330646  29.7207650   9.7260202
  44.0817387  30.9318654  13.5189650  45.0360641  30.9002597  13.4519582
  43.8829911  30.4709278  14.3339876  44.6716770  29.5019770  16.0860448
  45.4909659  29.9963849  16.1095285  44.9453577  28.5851738  16.0578016
  54.4283366  21.8930523   5.4488404  53.5409221  22.1780173   5.2308598
  54.8437355  21.7324286   4.6015681  57.7797902  21.9177044   9.1642743
  58.5558292  22.4073496   9.4367360  57.0546036  22.3435098   9.6214612
  60.2170461  22.6304663  10.2216684  60.8114951  22.3900399   9.5109992
  60.2897044  21.9111793  10.8490220  42.4367616  36.4738274  10.5359848
  42.3022084  35.7138675   9.9697846  42.0199678  37.1979174  10.0688637
  53.5726579  31.6575197  -0.4563576  54.2762429  31.8625200   0.1594079
  52.8489228  32.2251959  -0.1914493  54.4024389  27.4085059   5.6638694
  54.3459591  27.8653610   4.8246326  54.9552732  26.6475743   5.4861537
  58.2129195  23.1974790   6.4888813  57.9566130  22.7971426   7.3197021
  57.5882063  23.9118584   6.3638952  62.5241533  25.9370864   8.9960105
  61.9641091  26.0064053   9.7691667  61.9185037  25.7611848   8.2759601
  45.5936742  37.3707591  10.7478291  45.4769126  38.3153023  10.6456981
  44.7729188  37.0681152  11.1364090  55.4813277  32.0957726   1.5934884
  56.3158881  31.6638925   1.4112358  55.3197620  31.9239740   2.5211778
  55.1359169  28.5989840   2.9591223  55.0807973  28.4334111   2.0179667
  54.5105224  29.3065873   3.1153413  39.9251684  23.8357904  16.7852645
  40.5710547  23.3256858  17.2739870  39.7168835  24.5726586  17.3596070
  52.4505076  30.9038752  22.2844786  53.3196236  31.0779404  21.9231421
  51.9711827  31.7233168  22.1620515  46.6191256  38.0235853  13.9634219
  47.5218503  38.0559463  14.2800714  46.3928626  37.0936304  13.9780555
  48.3744858  36.7766839  10.6244298  47.4240489  36.7768701  10.5108670
  48.6777344  36.0299574  10.1080333  44.2649175  20.9825521  20.8827659
  45.1280636  20.6262326  21.0930984  43.6914585  20.6439416  21.5703064
  64.1097552  42.6127378  11.6890060  64.7475962  42.4934125  10.9853401
  63.9918395  43.5608222  11.7478013  60.9187258  42.5654806  11.6251585
  60.5805770  42.4495870  10.7372120  61.7877026  42.1645971  11.6052591
  56.7774074  44.4190282   7.6148476  56.2138939  44.3280219   6.8464764
  56.6626469  43.5990187   8.0950969  54.3238506  45.9141474  10.4532697
  55.1159798  45.5732298  10.0378996  54.5635156  46.0236449  11.3734850
  62.3573632  48.0861250   2.9262941  61.7061612  48.6715330   2.5396955
  63.1517995  48.6167445   2.9857978  56.2829260  45.1750387   3.3250075
  57.0560136  44.6279374   3.1862951  56.6354658  46.0394636   3.5364537
  58.1214302  46.5026769  16.5316975  57.8304168  47.4072400  16.4163641
  58.7571286  46.5443297  17.2461044  59.0470509  43.8803618  13.1218334
  59.6434081  43.6559640  12.4075297  59.1045481  43.1388363  13.7243782
  58.6195537  41.3343053   0.9568525  58.8721058  40.8124574   0.1951988
  57.6820096  41.1709199   1.0595209  63.6638820  40.3378831   8.7643268
  64.4501909  39.9198255   8.4133685  63.9277525  41.2424924   8.9324917
  63.8348898  45.7751682   3.4631925  63.1994731  45.8486308   4.1752830
  63.5046304  46.3645281   2.7851005  69.0647247  40.2754065   9.6676247
  69.7972419  39.7053281   9.9014076  68.3086603  39.8875665  10.1082753
  58.3391826  43.2371159   3.1592900  58.2228084  42.5616062   3.8273985
  58.4494086  42.7503533   2.3425053  60.6823367  42.6981306   6.8639589
  60.3181574  42.1711927   7.5752511  61.5390483  42.3079775   6.6906075
  66.5872668  33.9875639  14.1270856  66.2555992  34.8571050  13.9032071
  65.9918281  33.6711923  14.8064886  60.3228854  37.7271206   1.8600938
  60.4903256  38.5951442   2.2271409  60.1326023  37.8898488   0.9362227
  56.5316669  42.6401982   9.5603473  55.6067165  42.5078196   9.7681165
  56.7801082  43.4196201  10.0573415  66.4801331  38.7070725  11.2064206
  65.5718208  38.6386133  10.9122967  66.4288927  39.1842670  12.0346031
  60.3018075  40.1828863   2.8447605  60.1817700  40.6285914   3.6833085
  59.6070663  40.5314181   2.2861143  53.8925480  42.2835255  10.3947262
  54.0217861  42.5369734  11.3086674  53.2122931  42.8762963  10.0751917
  58.0624967  52.9532505   6.4937736  57.9848997  53.9040330   6.5726217
  57.4586611  52.6078378   7.1512662  68.3462977  36.9087163  12.9842080
  67.7037358  37.2019696  12.3381874  67.8417906  36.7940084  13.7895276
  66.0003141  40.6550337   3.6727939  66.9120997  40.8877723   3.4975636
  65.4912788  41.2387381   3.1103017  58.8088569  42.9345824  18.7117070
  59.5503253  43.4730868  18.4351894  58.1025555  43.5612113  18.8688622
  60.6374979  40.0147571  14.6822788  61.4836174  40.4386985  14.8257437
  60.5773616  39.3581195  15.3761351  68.4861955  46.5730593   8.4185884
  67.8012993  46.9529494   7.8682917  68.5705805  47.1825919   9.1517832
  63.3439116  36.8308372  11.9217800  62.4823595  37.1289626  12.2134537
  63.3701550  37.0478771  10.9898832  60.1600685  45.3750563   8.3291605
  60.6239031  45.6538266   7.5396228  59.8957483  44.4734008   8.1464696
  57.0524766  44.9222045  11.2671369  57.6226123  45.3509313  10.6288853
  57.6432878  44.6404629  11.9655554  59.0969571  41.4973715   5.1381171
  59.7993615  41.9494759   5.6055097  58.7650200  40.8557534   5.7661064
  57.5449933  40.0885472  19.5132380  56.9148593  40.7701753  19.7467777
  57.4386021  39.9768554  18.5685518  52.8394905  39.7557268  10.4398304
  52.0493959  40.0114797   9.9638415  53.3306153  40.5705606  10.5450345
  54.7909651  40.1201847   7.3981781  53.9940814  40.2320542   7.9165276
  54.5635243  40.4588500   6.5322671  60.6215318  46.6446551  15.3464295
  60.6859751  47.1066958  16.1822467  59.9126242  46.0143915  15.4746605
  51.1232608  40.0087759  12.8713295  51.3740647  40.8934768  13.1370871
  51.6592157  39.8292360  12.0988387  74.9464708  43.4401256   9.5388556
  74.1928416  42.8708654   9.3832561  75.0812249  43.4063920  10.4859191
  60.3363336  48.3114658   5.2143276  60.2009011  49.1566194   5.6428124
  60.8773148  48.5133936   4.4509210  56.8230676  34.3906238  21.8757631
  56.4297621  33.8372436  22.5505275  57.6396816  34.7016816  22.2664148
  53.7892733  45.8290096   5.7871201  54.3017254  46.6233346   5.9376766
  54.4415446  45.1316387   5.7204802  55.5987618  48.9455852   7.8693954
  55.7754246  49.8673817   7.6814938  56.3944452  48.6314272   8.2988334
  59.7398637  35.8064117  19.4677888  60.4808350  36.4071270  19.3882350
  59.9716559  35.0641755  18.9095930  54.8839975  40.9920484  17.7456117
  54.7693490  40.0905741  18.0463216  54.0284492  41.2384181  17.3940934
  56.7218933  50.4634026  13.8704296  57.2726359  50.3351090  13.0981290
  55.8830409  50.7628915  13.5199189  63.6855800  31.8345220  13.7442169
  63.3420069  32.7246862  13.6681280  64.0534762  31.6446878  12.8811754
  51.7541650  44.1578750   6.5630771  52.5916872  44.5675759   6.3464479
  51.9319918  43.2178193   6.5330965  63.6506082  41.8253831   2.2514604
  63.1352706  42.5958436   2.4902992  63.3783391  41.1518967   2.8747666
  61.2353193  36.6703532   7.3099843  60.3794790  36.2810382   7.1305481
  61.6480145  36.7495493   6.4499628  62.7652340  34.2049875  11.7091402
  62.2617135  34.1680010  10.8959208  63.0582947  35.1142618  11.7688059
  59.0095226  34.2888605  10.7157584  59.8748223  34.0931413  10.3563474
  59.0772735  34.0598957  11.6426941  68.6240356  44.5786186   4.1867778
  67.8469799  44.2397345   3.7422940  69.3031837  44.5838809   3.5122743
  63.4392385  39.6980923   4.0774385  63.1342521  40.0127072   4.9284529
  64.3922828  39.7762343   4.1201718  61.8838817  45.8571146   5.7267339
  61.3560179  45.1223906   5.4140577  61.3826320  46.6345823   5.4807308
  66.8631663  44.0520167  10.8434386  66.2055338  44.7419428  10.9314514
  67.6672062  44.4416599  11.1868372  56.6157545  36.5190813   8.0873951
  57.1901297  36.2965994   7.3547144  57.2028527  36.5879507   8.8402552
  65.6737122  42.4064540   8.8938328  66.1869004  43.0394531   9.3960037
  66.3238346  41.8065735   8.5281688  56.9427132  38.5495274   2.1069836
  56.1064444  38.8869960   2.4279111  56.8031902  38.4144254   1.1696973
  58.9180213  33.3932062   6.8149020  58.2644625  33.0781079   6.1905635
  58.8760687  32.7707802   7.5408843  60.0291417  43.6751357  -1.2697687
  59.1218479  43.4440610  -1.0706539  60.5262449  42.8788976  -1.0823706
  62.9359496  52.3848864   1.6498999  62.2621195  52.6880561   2.2583956
  63.3225318  53.1877944   1.3004456  62.1517953  39.8813995  11.1396668
  61.2340514  40.1028942  10.9818356  62.5678097  39.9560306  10.2808375
  62.9353001  41.2805411   6.2699348  63.6824820  41.7926808   5.9606470
  63.2044590  40.9589464   7.1303742  61.2079651  43.7763952   3.2526303
  60.2990870  43.4922984   3.3498772  61.2374735  44.1963030   2.3929609
  66.4398918  47.3870541   7.0217470  65.9861245  46.5461451   7.0782661
  65.8092885  48.0231939   7.3592250  65.3831838  38.3162527   8.2518138
  64.6454595  37.8039913   8.5828380  65.6358611  37.8762909   7.4401414
  64.8831858  49.2247038   7.9567288  65.1754832  49.7852095   7.2379654
  65.3930478  49.5175599   8.7120447  65.4843465  31.0938779   8.8459907
  65.7902342  30.2336143   8.5585822  66.2096070  31.6856399   8.6458901
  51.7767821  41.4969466   7.2341505  51.5792221  40.9038826   6.5092571
  51.2214485  41.1921676   7.9517444  59.7564545  41.3892572   9.3536098
  59.8113155  40.4366409   9.2778575  58.9455747  41.5452011   9.8377396
  60.9055739  45.3172695   0.5914381  60.4675169  44.6008554   0.1320019
  61.6466180  45.5448810   0.0299473  57.6956905  40.0069632   7.1126477
  56.8824770  40.3063802   7.5191669  58.1915899  39.6125321   7.8300959
  59.8465483  50.0027389   9.0460742  59.8041661  50.2288235   8.1169274
  60.7628182  49.7690763   9.1946543  63.2931117  40.4711456  15.9441371
  63.6480504  40.6982930  16.8035836  63.9403248  40.8029833  15.3218626
  69.0228853  43.5929892   6.6490700  68.8846752  43.7831488   5.7211889
  68.6665072  44.3549275   7.1058751  57.1870980  37.5787987  12.7287712
  57.8270359  37.4376747  12.0310675  56.3548510  37.2922501  12.3526314
  69.0498233  45.6606419  11.6601971  69.4834740  45.5681708  12.5085025
  69.7629814  45.6363920  11.0221987  57.9631283  46.8790418   8.8422704
  58.7571882  46.3840738   8.6405279  57.2522976  46.3508281   8.4790410
  54.2714047  41.0233500   4.9182457  53.3411635  40.9617955   5.1352419
  54.3671519  40.5009452   4.1219098  54.1899596  37.5488312   7.5060699
  54.4506413  38.4633646   7.3969859  55.0116768  37.0812755   7.6557311
  55.6624521  38.9626070  14.6759523  56.3347575  38.7543432  14.0272172
  54.8354308  38.7648156  14.2364755  61.5650093  35.5888011  16.6925184
  60.9178008  36.2877960  16.5989660  62.3351109  36.0224154  17.0601432
  61.7414228  43.4268775  14.7522004  62.6706288  43.5779935  14.5790971
  61.3205258  43.5152796  13.8970650  60.5402559  47.4519440  12.5220541
  60.4013645  47.0838224  13.3946479  59.7517156  47.9667079  12.3504499
  61.1350711  52.5528536   3.8646078  61.3102467  52.0816580   4.6791701
  60.4483499  53.1794303   4.0927339  62.0907775  46.8301043   9.9109379
  61.7557607  46.7901813  10.8067029  61.5911720  46.1645758   9.4379789
  56.0652019  42.2368673  15.4361960  55.9271817  41.5048911  16.0373499
  56.9756942  42.1477573  15.1546148  65.0266966  44.1757077   0.1846439
  64.4096137  43.4503905   0.0879491  64.5583455  44.9366437  -0.1586487
  58.6934319  41.9488632  14.9245640  59.4033938  41.3081824  14.8832258
  58.6503627  42.2001527  15.8471821  57.4063253  38.9353850  16.7441279
  56.8700610  38.4844588  17.3962876  56.8179962  39.0699759  16.0011744
  55.7011797  55.7017899  10.6385938  55.9408395  56.3336423  11.3164957
  54.8580993  55.3505939  10.9251297  56.8165512  38.3942501  -0.6932257
  55.9394979  38.2731302  -1.0570010  57.2923265  37.6028580  -0.9453368
  48.3367652  43.1819661   9.4009250  49.0238692  42.8681391   8.8130266
  48.1815781  44.0861026   9.1276502  53.1402374  38.0709857  13.8294274
  53.0560563  37.4635527  13.0944684  52.3185081  38.5618876  13.8303770
  60.2139659  51.5097022  13.0427442  60.1409830  52.3151993  13.5546747
  59.7717052  51.7088987  12.2175463  60.0029438  50.7468792   6.5530264
  59.2196960  51.2890472   6.6468488  60.7022183  51.2642771   6.9524505
  63.3126088  36.5563421   9.1964469  63.8094788  35.8033383   8.8765539
  62.5413070  36.5927738   8.6307678  71.1655846  42.2603787  10.8382760
  71.1545722  43.1428502  10.4676694  70.2973225  41.9075337  10.6437298
  62.6738342  51.4083856  15.1985601  63.3866314  52.0431320  15.1261502
  62.1828371  51.5047722  14.3825603  64.3955869  45.3135108   6.7702892
  63.4612148  45.4336571   6.6007597  64.5732537  44.4107575   6.5062902
  59.8961057  38.6980804   8.9236154  59.5258845  38.1451844   9.6117059
  60.3920150  38.0938937   8.3711154  67.7828420  41.1552428   7.3052926
  68.2488873  41.9880419   7.2313229  68.2335921  40.6897409   8.0098185
  57.7250256  49.1578299  16.0191171  58.4259715  49.7914782  16.1720566
  57.2545371  49.4993031  15.2586811  65.8504651  47.4996249   4.3039079
  66.1264495  47.3852843   5.2132953  64.9809150  47.1013734   4.2651252
  65.7545083  33.5233015  11.3443828  64.8408163  33.7537241  11.5126035
  66.1838185  33.6071459  12.1957860  65.5251542  41.7122906  13.8443722
  64.8722992  41.9598814  13.1896175  65.9031922  40.8987045  13.5106199
  62.4858715  51.7482600   7.9471892  62.6681110  50.9304256   8.4099644
  63.3091702  51.9650292   7.5096782  62.8200881  50.6750785   5.2086941
  63.3488647  50.1643239   4.5957103  63.0829101  50.3593315   6.0732474
  53.3217974  48.6914654  12.9522274  53.9071411  47.9458342  13.0850178
  53.1242812  49.0018611  13.8358938  56.1756629  51.7265901   7.9684717
  55.5067004  52.2112029   7.4848757  56.0369499  51.9735122   8.8828095
  47.9135628  41.2620254  11.6726717  47.9519728  40.7283845  12.4663835
  47.4075921  40.7355460  11.0537695  60.3161898  53.7609645  14.5667375
  60.8680206  53.9241266  15.3316460  60.6568091  54.3514083  13.8947400
  55.2926391  36.1084795  15.1689260  55.3567717  36.9699626  14.7566657
  55.2293511  35.4958796  14.4361618  54.7678663  38.1807927  18.8162294
  55.3950702  37.7985005  19.4299818  53.9106582  37.9622129  19.1817986
  51.5444206  39.9884356   4.7480649  51.8397647  39.0795035   4.6947702
  50.6432242  39.9672096   4.4261651  63.4530285  51.7091621  11.5531057
  63.3281424  50.9081360  11.0442003  64.1109376  52.2037814  11.0645027
  55.0738453  38.0640353  10.7308197  54.3525039  38.6776321  10.5915671
  55.8631709  38.5998118  10.6524843  57.8764767  35.3994780  17.0048849
  58.3999168  35.6457076  17.7675158  57.6577100  36.2314814  16.5851986
  53.2732048  37.6698454   4.8719974  52.9444754  36.7895833   4.6895080
  53.6271418  37.6146123   5.7596363  62.5211626  49.3053357   9.3814959
  62.3736589  48.3770064   9.5622529  63.3465120  49.3273448   8.8972035
  56.3873871  37.9571424   5.2395452  56.7269943  38.4857345   4.5174060
  56.8345991  38.2951830   6.0154018  66.1245748  50.1281916  10.4679832
  67.0492296  49.9224777  10.3304283  65.9561052  49.8798317  11.3769174
  59.0817312  36.3408475  14.6898520  58.7414132  35.5416288  15.0919199
  58.3756318  36.6410185  14.1175353  59.7333783  33.4257787  13.1425843
  60.5559853  32.9518265  13.0204733  59.9771847  34.2048271  13.6424529
  58.3742018  36.4546045   3.4388744  59.0950380  36.8327298   2.9352461
  57.7507322  37.1734922   3.5423722  62.5173141  37.1591194   4.3747077
  62.7336755  38.0415832   4.0735905  62.0367208  36.7677408   3.6452719
  57.2572362  40.1176908  10.9517821  57.1116943  40.4317211  11.8442103
  56.7797566  40.7361808  10.3988720  59.1168745  37.1079456  10.9998711
  59.1030314  36.2120549  10.6631009  59.8341173  37.1150119  11.6336997
  60.9694876  37.5416796  13.0451838  60.7112654  38.4633867  13.0436169
  60.4379916  37.1447230  13.7352302  65.9141065  50.6467583   5.8241924
  66.0877942  50.0814005   5.0715776  66.4069956  51.4468478   5.6421414
  51.7318024  42.6582252  13.8905482  51.1871492  43.4342060  14.0225757
  52.6097374  43.0053057  13.7324604  58.5205641  35.9893836   6.2686281
  58.6421552  35.0610482   6.4677168  58.2307683  36.0032522   5.3564596
  61.3896831  33.6748746   9.4053001  61.4118528  33.7388079   8.4504980
  61.8064890  32.8353255   9.5993507  71.7680456  43.4104006   7.4432223
  72.2111602  42.6611331   7.0451347  70.8906966  43.4014142   7.0605955
  66.9016237  49.9634347   2.9238822  67.5967142  50.5841040   3.1426137
  67.2439387  49.1129699   3.1991200  52.5184046  41.7852148  16.7835639
  51.7765782  41.9334784  17.3700270  52.1976790  42.0460414  15.9202389
  68.8007660  47.4134053   4.4526153  69.3258984  47.7521326   3.7275473
  68.7130013  46.4781068   4.2689287  60.4627709  51.3268127  16.5816029
  60.7714835  51.0817273  17.4538729  61.2603191  51.5314765  16.0934900
  60.4848321  53.4806036   8.8121406  60.0453311  52.9882415   9.5054263
  61.2356438  52.9379004   8.5713481  52.9640660  49.6717577   8.8146034
  53.7898680  49.3721349   8.4344677  52.6134712  48.9025200   9.2635823
  57.9322193  49.0244045  10.8843708  57.3102202  48.3614750  10.5845935
  58.6027060  49.0505177  10.2017355  51.1649265  47.5903904   9.7734968
  50.3281173  47.1626078   9.5918969  51.1372910  47.7836347  10.7105759
  58.0046721  37.5025833  20.4776214  58.0534876  38.3787956  20.0953983
  58.5469235  36.9603226  19.9047857  57.4935700  47.5747969   4.3602168
  57.6423820  48.2583433   3.7068841  58.3002143  47.5553059   4.8751624
  60.2346009  38.2557206  17.2322572  59.3649318  38.5490772  16.9605161
  60.4705489  38.8397651  17.9529836  71.3113320  44.8809244   9.8354671
  72.1460212  45.3199048   9.9992231  71.4472449  44.4047897   9.0162917
  55.2488333  43.6013146   5.3663237  55.0034375  42.6975476   5.5643447
  55.4184247  43.6030297   4.4242715  62.9385043  34.4736823  14.7487993
  63.4566987  35.2097850  14.4234481  62.5840176  34.7800816  15.5834752
  54.5183980  39.3341504   2.8649398  53.8253225  39.4085859   2.2089434
  54.2735732  38.5701847   3.3870915  63.1897637  30.8937105  10.2688889
  63.4699391  30.2260294  10.8949316  63.9748244  31.0866201   9.7563553
  60.9931105  50.0696099   1.8313915  60.4205073  50.6886286   1.3784387
  61.5663899  50.6195461   2.3653837  67.0606495  39.3154739  14.0160464
  68.0123918  39.4152837  14.0372688  66.8909946  38.5233008  14.5258549
  65.0820875  36.4010322  14.2019865  64.4870807  36.6815335  13.5066354
  64.7970571  36.8904223  14.9736606  64.2128365  50.3533249   2.9622498
  65.1459038  50.2878811   3.1655373  64.1251578  51.1889516   2.5037030
  66.8416382  49.6699120  -0.0773555  66.7630013  49.3358983   0.8162203
  67.6626049  50.1620887  -0.0782082  69.5394573  42.5360859  13.1302764
  69.5070893  41.5976860  13.3162448  70.1495197  42.6144896  12.3968589
  61.3777904  41.4056912  -0.8270032  62.3237009  41.2763120  -0.7581614
  60.9992149  40.6671574  -0.3500604  69.6889062  39.3271902  13.1761047
  69.1728110  38.5430359  12.9890976  70.5729010  38.9990619  13.3407567
  67.3499789  33.0712918   9.1356860  67.1524610  32.7628006  10.0200192
  67.9599494  33.7974557   9.2654790  75.3571123  43.5976866  12.2708801
  76.0874511  43.3362154  12.8316504  74.7478068  42.8605588  12.3110869
  73.4386420  41.7384728  12.8683252  72.7119584  41.6040693  12.2599744
  73.0233707  42.0461557  13.6739970  59.5620821  39.3306888  -0.8915147
  58.6552277  39.0340001  -0.8152433  59.8396802  39.0336706  -1.7580861
  50.4798762  40.6513252   9.5583900  50.1601546  39.7978560   9.2658274
  49.9332190  40.8661830  10.3141867  54.2578669  43.3675693  13.2753406
  54.4764679  44.2992800  13.2941440  54.6704443  43.0083667  14.0608210
  61.1782887  33.8743778   5.2629094  60.3683615  33.5290863   5.6384341
  61.8667304  33.5651322   5.8516706  63.1073435  32.9521825   6.8853391
  63.6604474  33.3717278   7.5443414  63.3443521  32.0257573   6.9276347
  58.3319606  36.1893823  -0.7503168  59.1938770  36.5148722  -0.4907350
  58.5169950  35.4025319  -1.2630102  50.3487022  44.2716163  11.5277021
  49.6550493  43.8570116  11.0146976  51.0960013  44.3136700  10.9310440
  66.4852242  35.0622350   6.3932055  65.9050911  35.7207154   6.0110108
  66.2188175  34.2399695   5.9819473  64.9355809  34.4627408   8.5953376
  65.4355587  34.5743942   7.7867695  65.5791417  34.1588460   9.2354184
  52.2623764  44.2034417   9.4043036  52.2394452  44.3022104   8.4524919
  52.5724401  45.0499568   9.7260202  54.9211142  46.2610572  13.5189650
  55.8754395  46.2294514  13.4519582  54.7223665  45.8001196  14.3339876
  55.5110524  44.8311688  16.0860448  56.3303413  45.3255767  16.1095285
  55.7847332  43.9143656  16.0578016  65.2677120  37.2222440   5.4488404
  64.3802975  37.5072091   5.2308598  65.6831109  37.0616204   4.6015681
  68.6191656  37.2468961   9.1642743  69.3952046  37.7365414   9.4367360
  67.8939791  37.6727015   9.6214612  71.0564215  37.9596580  10.2216684
  71.6508706  37.7192316   9.5109992  71.1290799  37.2403711  10.8490220
  53.2761371  51.8030191  10.5359848  53.1415839  51.0430592   9.9697846
  52.8593433  52.5271091  10.0688637  64.4120334  46.9867115  -0.4563576
  65.1156184  47.1917117   0.1594079  63.6882982  47.5543877  -0.1914493
  65.2418144  42.7376976   5.6638694  65.1853345  43.1945528   4.8246326
  65.7946486  41.9767661   5.4861537  69.0522950  38.5266708   6.4888813
  68.7959884  38.1263344   7.3197021  68.4275818  39.2410502   6.3638952
  73.3635288  41.2662781   8.9960105  72.8034846  41.3355971   9.7691667
  72.7578791  41.0903766   8.2759601  56.4330497  52.6999508  10.7478291
  56.3162881  53.6444941  10.6456981  55.6122943  52.3973070  11.1364090
  66.3207031  47.4249644   1.5934884  67.1552635  46.9930843   1.4112358
  66.1591374  47.2531658   2.5211778  65.9752923  43.9281757   2.9591223
  65.9201727  43.7626029   2.0179667  65.3498979  44.6357790   3.1153413
  50.7645438  39.1649822  16.7852645  51.4104302  38.6548776  17.2739870
  50.5562589  39.9018503  17.3596070  59.2849049  33.4289866   2.5376541
  59.2727719  34.3731706   2.6944812  60.1772471  33.2460012   2.2436003
  57.4585011  53.3527770  13.9634219  58.3612257  53.3851381  14.2800714
  57.2322381  52.4228221  13.9780555  59.2138613  52.1058757  10.6244298
  58.2634244  52.1060618  10.5108670  59.5171099  51.3591491  10.1080333
  63.1001168  30.0232643   6.7922478  62.3333564  29.4691130   6.9379161
  63.5111873  30.0954512   7.6536630  55.1042929  36.3117439  20.8827659
  55.9674391  35.9554244  21.0930984  54.5308340  35.9731334  21.5703064
  74.9491306  57.9419295  11.6890060  75.5869716  57.8226043  10.9853401
  74.8312149  58.8900139  11.7478013  71.7581012  57.8946723  11.6251585
  71.4199524  57.7787788  10.7372120  72.6270781  57.4937888  11.6052591
  67.6167828  59.7482200   7.6148476  67.0532693  59.6572137   6.8464764
  67.5020223  58.9282104   8.0950969  72.2400795  59.0481575  17.5837791
  72.2289436  58.6534373  16.7118294  72.4021435  58.3147648  18.1771562
  65.1632260  61.2433391  10.4532697  65.9553552  60.9024216  10.0378996
  65.4028910  61.3528366  11.3734850  67.1223014  60.5042305   3.3250075
  67.8953890  59.9571292   3.1862951  67.4748413  61.3686554   3.5364537
  68.9608057  61.8318687  16.5316975  68.6697923  62.7364318  16.4163641
  69.5965041  61.8735215  17.2461044  69.8864263  59.2095535  13.1218334
  70.4827836  58.9851558  12.4075297  69.9439235  58.4680281  13.7243782
  74.5032575  55.6670749   8.7643268  75.2895664  55.2490172   8.4133685
  74.7671279  56.5716841   8.9324917  79.9041002  55.6045982   9.6676247
  80.6366174  55.0345199   9.9014076  79.1480358  55.2167583  10.1082753
  69.1785581  58.5663077   3.1592900  69.0621839  57.8907980   3.8273985
  69.2887841  58.0795451   2.3425053  71.5217122  58.0273224   6.8639589
  71.1575329  57.5003845   7.5752511  72.3784237  57.6371693   6.6906075
  73.9197942  61.5180102  13.5266768  73.6198665  62.4205141  13.4182576
  73.5749001  61.2512286  14.3787921  67.3710423  57.9693899   9.5603473
  66.4460920  57.8370113   9.7681165  67.6194836  58.7488119  10.0573415
  77.3195086  54.0362643  11.2064206  76.4111963  53.9678051  10.9122967
  77.2682681  54.5134588  12.0346031  71.1411829  55.5120781   2.8447605
  71.0211455  55.9577832   3.6833085  70.4464418  55.8606099   2.2861143
  64.7319234  57.6127173  10.3947262  64.8611615  57.8661652  11.3086674
  64.0516686  58.2054881  10.0751917  79.1856732  52.2379081  12.9842080
  78.5431112  52.5311614  12.3381874  78.6811660  52.1232001  13.7895276
  75.1237663  60.4066882  17.3089231  75.5321019  59.9649293  16.5643864
  74.4014925  59.8319510  17.5623424  71.4768733  55.3439489  14.6822788
  72.3229928  55.7678902  14.8257437  71.4167371  54.6873113  15.3761351
  75.4466478  60.9668073  11.0641520  74.8175340  61.1313787  10.3617588
  75.0592140  61.3809682  11.8352484  79.3255710  61.9022510   8.4185884
  78.6406748  62.2821412   7.8682917  79.4099559  62.5117837   9.1517832
  74.6268179  53.0043857  16.3403962  74.3829110  53.7585918  15.8038238
  74.9028109  53.3829205  17.1751209  76.5806641  59.5482470  15.0181228
  76.7923537  60.1914229  14.3415609  76.5336390  58.7144786  14.5503158
  74.1832870  52.1600290  11.9217800  73.3217349  52.4581544  12.2134537
  74.2095305  52.3770689  10.9898832  70.9994440  60.7042481   8.3291605
  71.4632785  60.9830184   7.5396228  70.7351238  59.8025925   8.1464696
  67.8918521  60.2513962  11.2671369  68.4619878  60.6801231  10.6288853
  68.4826633  59.9696547  11.9655554  69.9363326  56.8265633   5.1381171
  70.6387369  57.2786677   5.6055097  69.6043954  56.1849452   5.7661064
  63.6788660  55.0849186  10.4398304  62.8887714  55.3406714   9.9638415
  64.1699907  55.8997524  10.5450345  77.6952469  62.4254425  13.1903585
  78.5169913  62.0234612  12.9086267  77.6914872  62.3222659  14.1419701
  65.6303405  55.4493765   7.3981781  64.8334568  55.5612459   7.9165276
  65.4028997  55.7880417   6.5322671  71.4609073  61.9738468  15.3464295
  71.5253505  62.4358875  16.1822467  70.7519997  61.3435833  15.4746605
  61.9626363  55.3379676  12.8713295  62.2134401  56.2226686  13.1370871
  62.4985911  55.1584278  12.0988387  85.7858462  58.7693173   9.5388556
  85.0322171  58.2000571   9.3832561  85.9206004  58.7355838  10.4859191
  64.6286488  61.1582014   5.7871201  65.1411008  61.9525264   5.9376766
  65.2809201  60.4608304   5.7204802  66.4381373  64.2747770   7.8693954
  66.6148001  65.1965735   7.6814938  67.2338206  63.9606189   8.2988334
  72.8025567  64.2630142  19.3443618  72.3589421  63.4766521  19.0264522
  73.4642780  64.4509293  18.6787509  67.5612688  65.7925944  13.8704296
  68.1120113  65.6643007  13.0981290  66.7224164  66.0920833  13.5199189
  74.9006805  64.5432942  17.3725019  74.8825280  65.3641823  16.8805288
  75.8226725  64.4187017  17.5975160  71.3579859  62.0577072  18.2148527
  71.8908196  61.2965360  17.9847835  70.8293940  61.7650723  18.9572682
  74.5249554  47.1637138  13.7442169  74.1813823  48.0538779  13.6681280
  74.8928517  46.9738795  12.8811754  62.5935405  59.4870668   6.5630771
  63.4310627  59.8967676   6.3464479  62.7713672  58.5470110   6.5330965
  72.0746948  51.9995449   7.3099843  71.2188544  51.6102300   7.1305481
  72.4873900  52.0787410   6.4499628  73.6046094  49.5341793  11.7091402
  73.1010890  49.4971928  10.8959208  73.8976701  50.4434535  11.7688059
  69.8488980  49.6180522  10.7157584  70.7141977  49.4223331  10.3563474
  69.9166489  49.3890874  11.6426941  74.2786140  55.0272841   4.0774385
  73.9736275  55.3418990   4.9284529  75.2316582  55.1054261   4.1201718
  72.7232572  61.1863064   5.7267339  72.1953933  60.4515824   5.4140577
  72.2220074  61.9637740   5.4807308  77.7025418  59.3812085  10.8434386
  77.0449092  60.0711346  10.9314514  78.5065817  59.7708517  11.1868372
  67.4551299  51.8482730   8.0873951  68.0295051  51.6257912   7.3547144
  68.0422282  51.9171425   8.8402552  76.5130877  57.7356457   8.8938328
  77.0262758  58.3686449   9.3960037  77.1632100  57.1357653   8.5281688
  67.7820886  53.8787191   2.1069836  66.9458199  54.2161878   2.4279111
  67.6425656  53.7436171   1.1696973  69.7573967  48.7223979   6.8149020
  69.1038379  48.4072996   6.1905635  69.7154441  48.0999720   7.5408843
  72.9911707  55.2105913  11.1396668  72.0734269  55.4320860  10.9818356
  73.4071851  55.2852223  10.2808375  73.7746755  56.6097329   6.2699348
  74.5218574  57.1218726   5.9606470  74.0438345  56.2881381   7.1303742
  76.2225592  53.6454445   8.2518138  75.4848349  53.1331831   8.5828380
  76.4752366  53.2054826   7.4401414  76.3237220  46.4230697   8.8459907
  76.6296096  45.5628060   8.5585822  77.0489824  47.0148317   8.6458901
  62.6161576  56.8261383   7.2341505  62.4185976  56.2330744   6.5092571
  62.0608240  56.5213594   7.9517444  70.5958299  56.7184490   9.3536098
  70.6506909  55.7658326   9.2778575  69.7849501  56.8743929   9.8377396
  68.5350659  55.3361550   7.1126477  67.7218525  55.6355720   7.5191669
  69.0309653  54.9417238   7.8300959  70.6859237  65.3319307   9.0460742
  70.6435416  65.5580153   8.1169274  71.6021936  65.0982681   9.1946543
  74.1324871  55.8003374  15.9441371  74.4874259  56.0274847  16.8035836
  74.7797002  56.1321751  15.3218626  68.0264734  52.9079905  12.7287712
  68.6664113  52.7668664  12.0310675  67.1942265  52.6214419  12.3526314
  79.8891988  60.9898337  11.6601971  80.3228494  60.8973626  12.5085025
  80.6023568  60.9655837  11.0221987  68.8025038  62.2082336   8.8422704
  69.5965636  61.7132656   8.6405279  68.0916730  61.6800199   8.4790410
  73.6219882  64.5900431  13.1935072  73.6756905  65.1591367  13.9612788
  72.7534664  64.7602316  12.8289109  65.1107801  56.3525417   4.9182457
  64.1805390  56.2909873   5.1352419  65.2065273  55.8301370   4.1219098
  65.0293350  52.8780230   7.5060699  65.2900168  53.7925563   7.3969859
  65.8510523  52.4104673   7.6557311  66.5018276  54.2917987  14.6759523
  67.1741329  54.0835349  14.0272172  65.6748062  54.0940073  14.2364755
  80.7507537  61.0322038  14.1934857  80.9443427  61.9367848  14.4394132
  80.6508155  60.5729457  15.0273442  72.4043848  50.9179928  16.6925184
  71.7571763  51.6169878  16.5989660  73.1744863  51.3516072  17.0601432
  72.5807982  58.7560693  14.7522004  73.5100042  58.9071853  14.5790971
  72.1599012  58.8444714  13.8970650  71.3796314  62.7811358  12.5220541
  71.2407400  62.4130142  13.3946479  70.5910910  63.2958997  12.3504499
  72.9301529  62.1592960   9.9109379  72.5951362  62.1193730  10.8067029
  72.4305475  61.4937676   9.4379789  66.9045773  57.5660590  15.4361960
  66.7665571  56.8340829  16.0373499  67.8150697  57.4769490  15.1546148
  69.5328074  57.2780550  14.9245640  70.2427692  56.6373742  14.8832258
  69.4897382  57.5293444  15.8471821  77.5214852  64.2147903  17.8452219
  77.4627399  63.5307123  17.1782802  77.9234371  64.9566893  17.3932845
  68.2457008  54.2645767  16.7441279  67.7094365  53.8136506  17.3962876
  67.6573716  54.3991676  16.0011744  66.5405551  71.0309817  10.6385938
  66.7802149  71.6628341  11.3164957  65.6974748  70.6797857  10.9251297
  67.6559267  53.7234419  -0.6932257  66.7788733  53.6023220  -1.0570010
  68.1317020  52.9320497  -0.9453368  77.5232260  62.1787487  16.0766199
  76.6359038  61.8413409  16.1992598  78.0930811  61.4470518  16.3134964
  59.1761407  58.5111579   9.4009250  59.8632447  58.1973309   8.8130266
  59.0209535  59.4152943   9.1276502  63.9796129  53.4001775  13.8294274
  63.8954318  52.7927445  13.0944684  63.1578835  53.8910793  13.8303770
  71.0533413  66.8388939  13.0427442  70.9803585  67.6443911  13.5546747
  70.6110806  67.0380905  12.2175463  74.1519843  51.8855339   9.1964469
  74.6488542  51.1325301   8.8765539  73.3806824  51.9219655   8.6307678
  82.0049600  57.5895704  10.8382760  81.9939476  58.4720420  10.4676694
  81.1366980  57.2367255  10.6437298  73.5132097  66.7375773  15.1985601
  74.2260069  67.3723238  15.1261502  73.0222125  66.8339639  14.3825603
  75.2349624  60.6427026   6.7702892  74.3005902  60.7628488   6.6007597
  75.4126292  59.7399493   6.5062902  70.7354812  54.0272722   8.9236154
  70.3652599  53.4743762   9.6117059  71.2313904  53.4230855   8.3711154
  78.6222175  56.4844345   7.3052926  79.0882627  57.3172337   7.2313229
  79.0729675  56.0189327   8.0098185  68.5644010  64.4870217  16.0191171
  69.2653470  65.1206700  16.1720566  68.0939125  64.8284948  15.2586811
  76.5938838  48.8524932  11.3443828  75.6801917  49.0829159  11.5126035
  77.0231939  48.9363376  12.1957860  76.3645296  57.0414824  13.8443722
  75.7116746  57.2890732  13.1896175  76.7425676  56.2278962  13.5106199
  64.1611728  64.0206572  12.9522274  64.7465165  63.2750260  13.0850178
  63.9636567  64.3310528  13.8358938  67.0150383  67.0557819   7.9684717
  66.3460759  67.5403947   7.4848757  66.8763253  67.3027040   8.8828095
  58.7529383  56.5912172  11.6726717  58.7913482  56.0575763  12.4663835
  58.2469676  56.0647377  11.0537695  71.1555652  69.0901563  14.5667375
  71.7073960  69.2533184  15.3316460  71.4961845  69.6806000  13.8947400
  66.1320145  51.4376712  15.1689260  66.1961472  52.2991543  14.7566657
  66.0687265  50.8250714  14.4361618  62.3837961  55.3176274   4.7480649
  62.6791402  54.4086953   4.6947702  61.4825996  55.2964014   4.4261651
  74.2924039  67.0383538  11.5531057  74.1675179  66.2373278  11.0442003
  74.9503130  67.5329732  11.0645027  65.9132208  53.3932271  10.7308197
  65.1918793  54.0068238  10.5915671  66.7025463  53.9290036  10.6524843
  76.3558948  64.8392558  13.1810607  75.4089283  64.7197909  13.1088934
  76.7041721  63.9515056  13.2636869  64.1125802  52.9990372   4.8719974
  63.7838508  52.1187751   4.6895080  64.4665173  52.9438040   5.7596363
  73.3605381  64.6345274   9.3814959  73.2130343  63.7061982   9.5622529
  74.1858874  64.6565365   8.8972035  67.2267625  53.2863342   5.2395452
  67.5663698  53.8149263   4.5174060  67.6739746  53.6243748   6.0154018
  76.9639503  65.4573833  10.4679832  77.8886050  65.2516695  10.3304283
  76.7954806  65.2090234  11.3769174  69.9211066  51.6700392  14.6898520
  69.5807886  50.8708205  15.0919199  69.2150072  51.9702103  14.1175353
  70.5727538  48.7549705  13.1425843  71.3953607  48.2810183  13.0204733
  70.8165601  49.5340188  13.6424529  69.2135772  51.7837963   3.4388744
  69.9344135  52.1619216   2.9352461  68.5901077  52.5026840   3.5423722
  73.3566895  52.4883112   4.3747077  73.5730510  53.3707750   4.0735905
  72.8760962  52.0969326   3.6452719  68.0966117  55.4468825  10.9517821
  67.9510697  55.7609128  11.8442103  67.6191320  56.0653726  10.3988720
  69.9562500  52.4371373  10.9998711  69.9424068  51.5412467  10.6631009
  70.6734928  52.4442037  11.6336997  71.8088630  52.8708714  13.0451838
  71.5506408  53.7925784  13.0436169  71.2773671  52.4739148  13.7352302
  62.5711779  57.9874170  13.8905482  62.0265247  58.7633978  14.0225757
  63.4491129  58.3344974  13.7324604  69.3599395  51.3185754   6.2686281
  69.4815307  50.3902400   6.4677168  69.0701438  51.3324440   5.3564596
  72.2290586  49.0040664   9.4053001  72.2512283  49.0679997   8.4504980
  72.6458645  48.1645173   9.5993507  82.6074210  58.7395924   7.4432223
  83.0505356  57.9903249   7.0451347  81.7300720  58.7306060   7.0605955
  63.3577801  57.1144066  16.7835639  62.6159537  57.2626701  17.3700270
  63.0370545  57.3752332  15.9202389  71.3021463  66.6560044  16.5816029
  71.6108590  66.4109191  17.4538729  72.0996945  66.8606683  16.0934900
  71.3242075  68.8097954   8.8121406  70.8847066  68.3174333   9.5054263
  72.0750192  68.2670922   8.5713481  63.8034414  65.0009495   8.8146034
  64.6292434  64.7013267   8.4344677  63.4528466  64.2317117   9.2635823
  68.7715948  64.3535963  10.8843708  68.1495957  63.6906668  10.5845935
  69.4420814  64.3797095  10.2017355  62.0043019  62.9195821   9.7734968
  61.1674928  62.4917996   9.5918969  61.9766665  63.1128265  10.7105759
  79.3295321  63.3758874  19.7577351  78.5390864  63.3583013  19.2181850
  79.0928675  63.9147168  20.5126387  79.4493196  60.2251341  17.0710079
  79.4991201  60.0601348  18.0125602  79.3407119  59.3578600  16.6807960
  71.0739763  53.5849123  17.2322572  70.2043073  53.8782689  16.9605161
  71.3099244  54.1689568  17.9529836  80.9511393  62.6448282  17.3152101
  80.6596201  63.0078263  18.1515562  80.3383524  61.9315290  17.1365433
  82.1507075  60.2101162   9.8354671  82.9853966  60.6490966   9.9992231
  82.2866204  59.7339815   9.0162917  79.1998581  57.7680897  15.7832159
  79.6752702  57.9608543  14.9751010  78.2764146  57.8240083  15.5375542
  66.0882087  58.9305064   5.3663237  65.8428129  58.0267394   5.5643447
  66.2578002  58.9322214   4.4242715  73.7778797  49.8028740  14.7487993
  74.2960741  50.5389767  14.4234481  73.4233930  50.1092734  15.5834752
  65.3577735  54.6633422   2.8649398  64.6646980  54.7377777   2.2089434
  65.1129487  53.8993765   3.3870915  74.0291391  46.2229023  10.2688889
  74.3093145  45.5552212  10.8949316  74.8141998  46.4158118   9.7563553
  77.9000250  54.6446657  14.0160464  78.8517673  54.7444755  14.0372688
  77.7303700  53.8524925  14.5258549  75.9214629  51.7302240  14.2019865
  75.3264561  52.0107253  13.5066354  75.6364326  52.2196141  14.9736606
  80.3788328  57.8652777  13.1302764  80.3464648  56.9268777  13.3162448
  80.9888951  57.9436813  12.3968589  80.5282816  54.6563820  13.1761047
  80.0121865  53.8722277  12.9890976  81.4122765  54.3282537  13.3407567
  78.1893543  48.4004836   9.1356860  77.9918364  48.0919924  10.0200192
  78.7993249  49.1266474   9.2654790  86.1964877  58.9268783  12.2708801
  86.9268266  58.6654072  12.8316504  85.5871823  58.1897505  12.3110869
  84.2780175  57.0676646  12.8683252  83.5513338  56.9332611  12.2599744
  83.8627461  57.3753475  13.6739970  61.3192516  55.9805169   9.5583900
  60.9995300  55.1270478   9.2658274  60.7725944  56.1953747  10.3141867
  65.0972424  58.6967610  13.2753406  65.3158433  59.6284718  13.2941440
  65.5098197  58.3375585  14.0608210  72.0176641  49.2035696   5.2629094
  71.2077370  48.8582781   5.6384341  72.7061058  48.8943239   5.8516706
  73.9467190  48.2813742   6.8853391  74.4998228  48.7009196   7.5443414
  74.1837276  47.3549491   6.9276347  69.1713360  51.5185741  -0.7503168
  70.0332524  51.8440639  -0.4907350  69.3563704  50.7317237  -1.2630102
  61.1880776  59.6008081  11.5277021  60.4944247  59.1862034  11.0146976
  61.9353767  59.6428617  10.9310440  77.3245997  50.3914268   6.3932055
  76.7444666  51.0499072   6.0110108  77.0581929  49.5691612   5.9819473
  75.7749563  49.7919325   8.5953376  76.2749341  49.9035860   7.7867695
  76.4185171  49.4880378   9.2354184  63.1017519  59.5326335   9.4043036
  63.0788207  59.6314022   8.4524919  63.4118155  60.3791485   9.7260202
  65.7604896  61.5902490  13.5189650  66.7148150  61.5586432  13.4519582
  65.5617420  61.1293113  14.3339876  66.3504279  60.1603606  16.0860448
  67.1697168  60.6547684  16.1095285  66.6241086  59.2435574  16.0578016
  76.1070875  52.5514358   5.4488404  75.2196730  52.8364009   5.2308598
  76.5224864  52.3908121   4.6015681  79.4585411  52.5760879   9.1642743
  80.2345801  53.0657331   9.4367360  78.7333545  53.0018933   9.6214612
  81.8957969  53.2888498  10.2216684  82.4902460  53.0484234   9.5109992
  81.9684553  52.5695629  10.8490220  64.1155125  67.1322109  10.5359848
  63.9809593  66.3722510   9.9697846  63.6987187  67.8563009  10.0688637
  76.0811898  58.0668894   5.6638694  76.0247100  58.5237445   4.8246326
  76.6340241  57.3059578   5.4861537  79.8916704  53.8558626   6.4888813
  79.6353639  53.4555261   7.3197021  79.2669572  54.5702420   6.3638952
  84.2029042  56.5954699   8.9960105  83.6428600  56.6647888   9.7691667
  83.5972546  56.4195684   8.2759601  67.2724251  68.0291426  10.7478291
  67.1556635  68.9736859  10.6456981  66.4516697  67.7264988  11.1364090
  61.6039193  54.4941740  16.7852645  62.2498056  53.9840694  17.2739870
  61.3956344  55.2310421  17.3596070  70.1242803  48.7581784   2.5376541
  70.1121473  49.7023624   2.6944812  71.0166225  48.5751930   2.2436003
  68.2978765  68.6819688  13.9634219  69.2006012  68.7143298  14.2800714
  68.0716135  67.7520139  13.9780555  70.0532367  67.4350675  10.6244298
  69.1027998  67.4352536  10.5108670  70.3564853  66.6883409  10.1080333
  73.9394923  45.3524561   6.7922478  73.1727319  44.7983047   6.9379161
  74.3505628  45.4246430   7.6536630  83.0794550  74.3773493  17.5837791
  83.0683191  73.9826291  16.7118294  83.2415189  73.6439565  18.1771562
  88.2660177  64.6459474  14.1270856  87.9343501  65.5154885  13.9032071
  87.6705790  64.3295758  14.8064886  82.2329706  70.7844206  19.1499103
  81.4563040  71.3438126  19.1401968  82.8720269  71.2700989  19.6713973
  80.4876078  73.5929659  18.7117070  81.2290762  74.1314703  18.4351894
  79.7813064  74.2195948  18.8688622  82.3162488  70.6731406  14.6822788
  83.1623683  71.0970820  14.8257437  82.2561125  70.0165031  15.3761351
  85.4661933  68.3335775  16.3403962  85.2222865  69.0877835  15.8038238
  85.7421864  68.7121122  17.1751209  79.2237442  70.7469307  19.5132380
  78.5936102  71.4285588  19.7467777  79.1173530  70.6352389  18.5685518
  72.8020117  70.6671594  12.8713295  73.0528156  71.5518604  13.1370871
  73.3379666  70.4876195  12.0988387  81.4186146  66.4647952  19.4677888
  82.1595859  67.0655105  19.3882350  81.6504068  65.7225590  18.9095930
  76.5627484  71.6504320  17.7456117  76.4480999  70.7489577  18.0463216
  75.7072001  71.8968016  17.3940934  82.1973614  77.3868989  18.2148527
  82.7301950  76.6257278  17.9847835  81.6687695  77.0942641  18.9572682
  85.3643308  62.4929055  13.7442169  85.0207578  63.3830697  13.6681280
  85.7322271  62.3030713  12.8811754  80.6882735  64.9472440  10.7157584
  81.5535732  64.7515249  10.3563474  80.7560244  64.7182792  11.6426941
  78.8658489  68.2371823  12.7287712  79.5057868  68.0960582  12.0310675
  78.0336019  67.9506336  12.3526314  77.3412030  69.6209905  14.6759523
  78.0135084  69.4127267  14.0272172  76.5141817  69.4231991  14.2364755
  83.2437602  66.2471846  16.6925184  82.5965517  66.9461796  16.5989660
  84.0138618  66.6807990  17.0601432  86.6516400  76.5120698  19.7675737
  86.5001907  76.2831250  18.8505821  86.6421080  77.4691299  19.7807082
  77.7439528  72.8952508  15.4361960  77.6059326  72.1632747  16.0373499
  78.6544451  72.8061408  15.1546148  80.3721828  72.6072467  14.9245640
  81.0821447  71.9665659  14.8832258  80.3291136  72.8585362  15.8471821
  79.0850762  69.5937685  16.7441279  78.5488119  69.1428424  17.3962876
  78.4967471  69.7283594  16.0011744  74.8189883  68.7293693  13.8294274
  74.7348072  68.1219362  13.0944684  73.9972590  69.2202711  13.8303770
  83.2526624  73.1126553  20.3309759  82.5767261  73.0120682  21.0012134
  84.0754258  72.9565767  20.7945756  69.5923137  71.9204090  11.6726717
  69.6307237  71.3867680  12.4663835  69.0863430  71.3939295  11.0537695
  76.9713900  66.7668630  15.1689260  77.0355226  67.6283461  14.7566657
  76.9081020  66.1542632  14.4361618  76.4466172  68.8391763  18.8162294
  77.0738211  68.4568840  19.4299818  75.5894091  68.6205965  19.1817986
  79.5552276  66.0578615  17.0048849  80.0786677  66.3040911  17.7675158
  79.3364609  66.8898650  16.5851986  80.7604821  66.9992310  14.6898520
  80.4201641  66.2000123  15.0919199  80.0543827  67.2994021  14.1175353
  81.4121292  64.0841622  13.1425843  82.2347362  63.6102101  13.0204733
  81.6559356  64.8632106  13.6424529  82.6482385  68.2000631  13.0451838
  82.3900163  69.1217702  13.0436169  82.1167425  67.8031066  13.7352302
  73.4105533  73.3166087  13.8905482  72.8659001  74.0925895  14.0225757
  74.2884883  73.6636892  13.7324604  74.1971555  72.4435984  16.7835639
  73.4553291  72.5918619  17.3700270  73.8764299  72.7044249  15.9202389
  79.6834230  68.1609669  20.4776214  79.7322385  69.0371791  20.0953983
  80.2256744  67.6187062  19.9047857  87.5790713  71.5374186  18.3869386
  88.4800575  71.3980651  18.0953384  87.6538687  71.7028641  19.3267563
  81.9133518  68.9141041  17.2322572  81.0436827  69.2074607  16.9605161
  82.1492998  69.4981486  17.9529836  84.6172552  65.1320658  14.7487993
  85.1354496  65.8681685  14.4234481  84.2627685  65.4384651  15.5834752
  82.9404105  76.1158493  20.6330625  83.8607115  76.2937092  20.8270671
  82.9053689  75.1714539  20.4810324  80.8094043  69.5992734  22.6656155
  80.7090770  70.5487091  22.5968246  80.5915585  69.2710973  21.7932225
  80.6725313  73.0289873  21.4821217  80.1892395  73.8290233  21.6885106
  80.7586252  73.0397817  20.5288661  77.1898033  75.4895523  16.0860448
  78.0090922  75.9839602  16.1095285  77.4634841  74.5727491  16.0578016
  72.4432947  69.8233657  16.7852645  73.0891811  69.3132611  17.2739870
  72.2350098  70.5602339  17.3596070  84.9686339  76.8914505  22.2844786
  85.8377499  77.0655157  21.9231421  84.4893091  77.7108922  22.1620515
  61.4007042  20.7251780   4.3083097  61.3895683  20.3304578   3.4363601
  61.5627682  19.9917853   4.9016869  58.1214303  23.5088892   3.2562281
  57.8304169  24.4134523   3.1408948  58.7571288  23.5505419   3.9706351
  63.0804188  23.1950307   0.2512075  62.7804912  24.0975346   0.1427882
  62.7355248  22.9282491   1.1033228  60.5542198  17.1322493   5.8744410
  59.7775532  17.6916413   5.8647274  61.1932761  17.6179276   6.3959280
  58.8088570  19.9407946   5.4362377  59.5503255  20.4792990   5.1597200
  58.1025556  20.5674235   5.5933928  64.2843910  22.0837087   4.0334538
  64.6927266  21.6419497   3.2889170  63.5621171  21.5089714   4.2868731
  65.7412888  21.2252674   1.7426534  65.9529783  21.8684434   1.0660915
  65.6942636  20.3914991   1.2748464  66.8558716  24.1024630  -0.0851108
  67.6776160  23.7004817  -0.3668427  66.8521119  23.9992864   0.8665007
  60.6215320  23.6508673   2.0709602  60.6859752  24.1129080   2.9067774
  59.9126243  23.0206038   2.1991912  61.9631814  25.9400347   6.0688924
  61.5195668  25.1536726   5.7509829  62.6249027  26.1279498   5.4032815
  56.7218935  27.4696149   0.5949603  57.2726360  27.3413212  -0.1773403
  55.8830411  27.7691038   0.2444496  60.5186106  23.7347277   4.9393834
  61.0514443  22.9735565   4.7093142  59.9900187  23.4420928   5.6817989
  62.7826129  26.2670636  -0.0819622  62.8363151  26.8361572   0.6858094
  61.9140911  26.4372521  -0.4465584  69.9113784  22.7092243   0.9180163
  70.1049674  23.6138053   1.1639438  69.8114402  22.2499662   1.7518748
  64.9728893  22.8598985   6.4921044  64.8214399  22.6309537   5.5751128
  64.9633572  23.8169587   6.5052389  66.6821099  25.8918108   4.5697526
  66.6233645  25.2077328   3.9028109  67.0840618  26.6337098   4.1178152
  66.6838506  23.8557692   2.8011505  65.7965285  23.5183614   2.9237904
  67.2537058  23.1240723   3.0380271  60.2139660  28.5159144  -0.2327251
  60.1409831  29.3214116   0.2792053  59.7717053  28.7151110  -1.0579230
  62.6738343  28.4145978   1.9230907  63.3866316  29.0493443   1.8506809
  62.1828372  28.5109844   1.1070909  57.7250257  26.1640422   2.7436478
  58.4259716  26.7976905   2.8965872  57.2545372  26.5055153   1.9832117
  61.5739116  19.4604840   7.0555066  60.8979753  19.3598969   7.7257441
  62.3966750  19.3044054   7.5191063  60.3161899  30.7671768   1.2912682
  60.8680207  30.9303389   2.0561767  60.6568092  31.3576205   0.6192706
  65.1672773  25.5933025   7.1461336  65.7112677  26.2062983   6.6516291
  64.5859618  26.1512604   7.6628349  63.4530286  28.7153743  -1.7223636
  63.3281426  27.9143483  -2.2312691  64.1109377  29.2099936  -2.2109666
  65.5165194  26.5162763  -0.0944086  64.5695530  26.3968114  -0.1665759
  65.8647968  25.6285261  -0.0117825  66.1245750  27.1344038  -2.8074861
  67.0492297  26.9286899  -2.9450410  65.9561053  26.8860439  -1.8985520
  60.4627710  28.3330249   3.3061336  60.7714837  28.0879396   4.1784036
  61.2603192  28.5376888   2.8180206  68.4901567  25.0529079   6.4822657
  67.6997111  25.0353218   5.9427157  68.2534922  25.5917373   7.2371694
  68.6099443  21.9021546   3.7955386  68.6597447  21.7371553   4.7370909
  68.5013366  21.0348805   3.4053267  65.9003205  17.8852474   5.1114692
  66.8013068  17.7458938   4.8198690  65.9751179  18.0506928   6.0512870
  70.1117639  24.3218487   4.0397407  69.8202448  24.6848468   4.8760868
  69.4989771  23.6085495   3.8610739  68.3604828  19.4451102   2.5077465
  68.8358949  19.6378748   1.6996317  67.4370393  19.5010288   2.2620849
  61.2616598  22.4636781   7.3575932  62.1819607  22.6415380   7.5515978
  61.2266181  21.5192826   7.2055631  59.1306536  15.9471021   9.3901462
  59.0303263  16.8965378   9.3213553  58.9128078  15.6189260   8.5177532
  58.9937806  19.3768160   8.2066523  58.5104887  20.1768520   8.4130412
  59.0798745  19.3876105   7.2533967  63.2898832  23.2392792   9.0090092
  64.1589991  23.4133444   8.6476727  62.8105583  24.0587209   8.8865822
  57.4585012  30.3589893   0.6879526  58.3612259  30.3913503   1.0046021
  57.2322382  29.4290344   0.7025862  71.7581014  34.9008846  -1.6503108
  71.4199525  34.7849911  -2.5382573  72.6270782  34.5000011  -1.6702102
  67.6167829  36.7544322  -5.6606217  67.0532695  36.6634259  -6.4289930
  67.5020224  35.9344227  -5.1803725  65.1632261  38.2495514  -2.8221997
  65.9553553  37.9086339  -3.2375698  65.4028912  38.3590489  -1.9019844
  68.9608058  38.8380810   3.2562281  68.6697924  39.7426440   3.1408948
  69.5965042  38.8797337   3.9706351  69.8864265  36.2157658  -0.1536359
  70.4827837  35.9913680  -0.8679396  69.9439236  35.4742404   0.4489089
  73.9197943  38.5242225   0.2512075  73.6198666  39.4267264   0.1427882
  73.5749002  38.2574408   1.1033228  67.3710424  34.9756022  -3.7151221
  66.4460921  34.8432236  -3.5073529  67.6194838  35.7550241  -3.2181278
  64.7319235  34.6189295  -2.8807432  64.8611617  34.8723774  -1.9668020
  64.0516687  35.2117003  -3.2002776  71.3935953  32.4614411   5.8744410
  70.6169287  33.0208331   5.8647274  72.0326516  32.9471194   6.3959280
  69.6482325  35.2699864   5.4362377  70.3897009  35.8084908   5.1597200
  68.9419310  35.8966153   5.5933928  75.1237664  37.4129005   4.0334538
  75.5321021  36.9711415   3.2889170  74.4014926  36.8381632   4.2868731
  71.4768735  32.3501611   1.4068095  72.3229930  32.7741025   1.5502744
  71.4167372  31.6935236   2.1006658  75.4466479  37.9730195  -2.2113173
  74.8175342  38.1375909  -2.9137105  75.0592141  38.3871805  -1.4402209
  74.6268180  30.0105980   3.0649269  74.3829112  30.7648040   2.5283544
  74.9028110  30.3891327   3.8996516  76.5806643  36.5544592   1.7426534
  76.7923538  37.1976352   1.0660915  76.5336391  35.7206909   1.2748464
  67.8918522  37.2576085  -2.0083325  68.4619879  37.6863353  -2.6465840
  68.4826634  36.9758670  -1.3099139  68.3843689  32.4239512   6.2377687
  67.7542349  33.1055793   6.4713083  68.2779776  32.3122594   5.2930825
  63.6788661  32.0911308  -2.8356389  62.8887715  32.3468837  -3.3116279
  64.1699908  32.9059646  -2.7304349  77.6952471  39.4316548  -0.0851108
  78.5169914  39.0296735  -0.3668427  77.6914873  39.3284782   0.8665007
  65.6303406  32.4555888  -5.8772913  64.8334570  32.5674582  -5.3589417
  65.4028999  32.7942540  -6.7432022  71.4609074  38.9800591   2.0709602
  71.5253507  39.4420998   2.9067774  70.7519998  38.3497956   2.1991912
  61.9626364  32.3441799  -0.4041398  62.2134402  33.2288809  -0.1383823
  62.4985912  32.1646400  -1.1766307  67.6624431  26.7260278   8.6002938
  67.2691377  26.1726477   9.2750582  68.4790572  27.0370857   8.9909455
  64.6286489  38.1644136  -7.4883493  65.1411010  38.9587387  -7.3377928
  65.2809202  37.4670427  -7.5549891  66.4381374  41.2809893  -5.4060739
  66.6148002  42.2027857  -5.5939755  67.2338207  40.9668312  -4.9766360
  70.5792392  28.1418157   6.1923194  71.3202106  28.7425310   6.1127657
  70.8110315  27.3995795   5.6341237  65.7233730  33.3274525   4.4701424
  65.6087245  32.4259782   4.7708523  64.8678248  33.5738221   4.1186240
  72.8025568  41.2692265   6.0688924  72.3589422  40.4828643   5.7509829
  73.4642782  41.4571415   5.4032815  67.5612689  42.7988066   0.5949603
  68.1120114  42.6705130  -0.1773403  66.7224165  43.0982955   0.2444496
  74.9006806  41.5495065   4.0970326  74.8825281  42.3703946   3.6050595
  75.8226726  41.4249140   4.3220467  71.3579860  39.0639194   4.9393834
  71.8908197  38.3027482   4.7093142  70.8293941  38.7712846   5.6817989
  62.5935406  36.4932791  -6.7123922  63.4310628  36.9029799  -6.9290214
  62.7713674  35.5532233  -6.7423728  70.5958301  33.7246612  -3.9218595
  70.6506910  32.7720449  -3.9976119  69.7849503  33.8806052  -3.4377297
  70.6859238  42.3381429  -4.2293952  70.6435417  42.5642275  -5.1585420
  71.6021937  42.1044804  -4.0808151  74.1324872  32.8065497   2.6686677
  74.4874260  33.0336970   3.5281143  74.7797003  33.1383873   2.0463933
  68.0264735  29.9142028  -0.5466982  68.6664115  29.7730787  -1.2444018
  67.1942266  29.6276541  -0.9228380  68.8025039  39.2144458  -4.4331989
  69.5965638  38.7194778  -4.6349414  68.0916732  38.6862321  -4.7964284
  73.6219884  41.5962554  -0.0819622  73.6756906  42.1653490   0.6858094
  72.7534665  41.7664439  -0.4465584  66.5018277  31.2980110   1.4004830
  67.1741330  31.0897472   0.7517479  65.6748064  31.1002196   0.9610062
  80.7507538  38.0384160   0.9180163  80.9443428  38.9429971   1.1639438
  80.6508157  37.5791579   1.7518748  72.4043849  27.9242051   3.4170491
  71.7571764  28.6232000   3.3234967  73.1744864  28.3578195   3.7846739
  75.8122647  38.1890903   6.4921044  75.6608153  37.9601455   5.5751128
  75.8027326  39.1461504   6.5052389  72.5807983  35.7622816   1.4767310
  73.5100043  35.9133975   1.3036278  72.1599013  35.8506837   0.6215957
  71.3796315  39.7873480  -0.7534152  71.2407401  39.4192265   0.1191786
  70.5910911  40.3021120  -0.9250194  72.9301530  39.1655083  -3.3645314
  72.5951363  39.1255853  -2.4687664  72.4305476  38.4999799  -3.8374904
  66.9045774  34.5722713   2.1607267  66.7665572  33.8402952   2.7618806
  67.8150698  34.4831613   1.8791455  69.5328075  34.2842672   1.6490947
  70.2427694  33.6435864   1.6077565  69.4897383  34.5355567   2.5717127
  77.5214854  41.2210026   4.5697526  77.4627400  40.5369246   3.9028109
  77.9234372  41.9629016   4.1178152  68.2457009  31.2707890   3.4686586
  67.7094366  30.8198629   4.1208182  67.6573717  31.4053799   2.7257050
  66.5405552  48.0371939  -2.6368755  66.7802151  48.6690464  -1.9589737
  65.6974749  47.6859979  -2.3503396  77.5232261  39.1849609   2.8011505
  76.6359040  38.8475531   2.9237904  78.0930812  38.4532641   3.0380271
  59.1761408  35.5173701  -3.8745443  59.8632448  35.2035431  -4.4624428
  59.0209537  36.4215066  -4.1478192  63.9796130  30.4063898   0.5539581
  63.8954319  29.7989567  -0.1810010  63.1578837  30.8972916   0.5549077
  71.0533414  43.8451062  -0.2327251  70.9803586  44.6506033   0.2792053
  70.6110807  44.0443028  -1.0579230  73.5132098  43.7437896   1.9230907
  74.2260070  44.3785361   1.8506809  73.0222126  43.8401762   1.1070909
  68.5644011  41.4932339   2.7436478  69.2653471  42.1268822   2.8965872
  68.0939126  41.8347071   1.9832117  72.4132870  34.7896758   7.0555066
  71.7373507  34.6890887   7.7257441  73.2360504  34.6335972   7.5191063
  64.1611729  41.0268694  -0.3232419  64.7465166  40.2812382  -0.1904515
  63.9636568  41.3372651   0.5604245  67.0150385  44.0619942  -5.3069977
  66.3460760  44.5466069  -5.7905937  66.8763254  44.3089162  -4.3926598
  58.7529384  33.5974295  -1.6027976  58.7913484  33.0637885  -0.8090858
  58.2469677  33.0709500  -2.2216999  71.1555653  46.0963685   1.2912682
  71.7073961  46.2595307   2.0561767  71.4961847  46.6868123   0.6192706
  66.1320146  28.4438835   1.8934566  66.1961473  29.3053666   1.4811964
  66.0687267  27.8312837   1.1606925  65.6072419  30.5161968   5.5407601
  66.2344458  30.1339045   6.1545125  64.7500338  30.2976170   5.9063293
  76.0066528  40.9224943   7.1461336  76.5506432  41.5354901   6.6516291
  75.4253372  41.4804521   7.6628349  74.2924041  44.0445661  -1.7223636
  74.1675180  43.2435401  -2.2312691  74.9503132  44.5391854  -2.2109666
  65.9132209  30.3994393  -2.5446496  65.1918795  31.0130361  -2.6839023
  66.7025465  30.9352158  -2.6229850  76.3558949  41.8454681  -0.0944086
  75.4089284  41.7260032  -0.1665759  76.7041722  40.9577179  -0.0117825
  68.7158522  27.7348820   3.7294156  69.2392924  27.9811116   4.4920465
  68.4970856  28.5668855   3.3097293  73.3605382  41.6407397  -3.8939734
  73.2130345  40.7124105  -3.7132164  74.1858876  41.6627488  -4.3782659
  76.9639504  42.4635956  -2.8074861  77.8886052  42.2578817  -2.9450410
  76.7954807  42.2152357  -1.8985520  69.9211067  28.6762515   1.4143826
  69.5807888  27.8770328   1.8164506  69.2150074  28.9764226   0.8420659
  68.0966118  32.4530948  -2.3236872  67.9510699  32.7671251  -1.4312591
  67.6191322  33.0715848  -2.8765973  71.8088632  29.8770836  -0.2302855
  71.5506409  30.7987907  -0.2318525  71.2773672  29.4801271   0.4597609
  62.5711780  34.9936292   0.6150789  62.0265248  35.7696100   0.7471063
  63.4491130  35.3407097   0.4569910  63.3577802  34.1206189   3.5080946
  62.6159538  34.2688824   4.0945576  63.0370546  34.3814454   2.6447695
  71.3021465  43.6622167   3.3061336  71.6108591  43.4171314   4.1784036
  72.0996947  43.8668805   2.8180206  71.3242077  45.8160076  -4.4633288
  70.8847067  45.3236455  -3.7700431  72.0750194  45.2733044  -4.7041212
  63.8034416  42.0071617  -4.4608659  64.6292436  41.7075389  -4.8410016
  63.4528468  41.2379240  -4.0118871  68.7715949  41.3598086  -2.3910986
  68.1495958  40.6968791  -2.6908758  69.4420816  41.3859217  -3.0737338
  62.0043021  39.9257944  -3.5019726  61.1674929  39.4980118  -3.6835725
  61.9766666  40.1190387  -2.5648935  79.3295322  40.3820997   6.4822657
  78.5390866  40.3645136   5.9427157  79.0928677  40.9209291   7.2371694
  79.4493197  37.2313463   3.7955386  79.4991202  37.0663471   4.7370909
  79.3407120  36.3640722   3.4053267  76.7396959  33.2144391   5.1114692
  77.6406822  33.0750856   4.8198690  76.8144934  33.3798846   6.0512870
  71.0739765  30.5911246   3.9567879  70.2043074  30.8844812   3.6850467
  71.3099245  31.1751691   4.6775142  80.9511394  39.6510405   4.0397407
  80.6596202  40.0140385   4.8760868  80.3383525  38.9377413   3.8610739
  79.1998582  34.7743019   2.5077465  79.6752704  34.9670666   1.6996317
  78.2764147  34.8302205   2.2620849  66.0882089  35.9367187  -7.9091456
  65.8428131  35.0329517  -7.7111246  66.2578003  35.9384337  -8.8511978
  72.1010352  37.7928698   7.3575932  73.0213362  37.9707297   7.5515978
  72.0659935  36.8484744   7.2055631  61.3192517  32.9867292  -3.7170794
  60.9995302  32.1332600  -4.0096420  60.7725945  33.2015870  -2.9612826
  65.0972425  35.7029733  -0.0001287  65.3158435  36.6346841   0.0186747
  65.5098199  35.3437707   0.7853517  69.9700290  31.2762939   9.3901462
  69.8697017  32.2257296   9.3213553  69.7521832  30.9481178   8.5177532
  61.1880777  36.6070203  -1.7477672  60.4944249  36.1924156  -2.2607718
  61.9353768  36.6490740  -2.3444253  69.8331560  34.7060078   8.2066523
  69.3498642  35.5060438   8.4130412  69.9192499  34.7168022   7.2533967
  63.1017520  36.5388457  -3.8711657  63.0788208  36.6376144  -4.8229774
  63.4118156  37.3853608  -3.5494491  65.7604898  38.5964612   0.2434957
  66.7148151  38.5648555   0.1764889  65.5617421  38.1355236   1.0585183
  66.3504280  37.1665728   2.8105755  67.1697169  37.6609807   2.8340592
  66.6241087  36.2497696   2.7823322  64.1155126  44.1384232  -2.7394845
  63.9809594  43.3784633  -3.3056847  63.6987189  44.8625132  -3.2066056
  67.2724252  45.0353549  -2.5276402  67.1556636  45.9798981  -2.6297712
  66.4516699  44.7327110  -2.1390603  61.6039194  31.5003862   3.5097952
  62.2498058  30.9902816   3.9985177  61.3956345  32.2372544   4.0841377
  74.1292586  38.5684710   9.0090092  74.9983746  38.7425362   8.6476727
  73.6499338  39.3879126   8.8865822  68.2978766  45.6881811   0.6879526
  69.2006013  45.7205421   1.0046021  68.0716137  44.7582262   0.7025862
  70.0532368  44.4412797  -2.6510395  69.1027999  44.4414659  -2.7646023
  70.3564855  43.6945532  -3.1674361  65.9436685  28.6471479   7.6072966
  66.8068147  28.2908284   7.8176291  65.3702096  28.3085374   8.2948370
  83.0794551  51.3835615   4.3083097  83.0683192  50.9888414   3.4363601
  83.2415191  50.6501688   4.9016869  82.2329707  47.7906328   5.8744410
  81.4563041  48.3500249   5.8647274  82.8720270  48.2763111   6.3959280
  80.4876079  50.5991782   5.4362377  81.2290764  51.1376826   5.1597200
  79.7813065  51.2258071   5.5933928  82.3162489  47.6793529   1.4068095
  83.1623684  48.1032943   1.5502744  82.2561127  47.0227153   2.1006658
  85.4661934  45.3397897   3.0649269  85.2222866  46.0939958   2.5283544
  85.7421865  45.7183245   3.8996516  79.2237443  47.7531430   6.2377687
  78.5936104  48.4347711   6.4713083  79.1173531  47.6414512   5.2930825
  72.8020118  47.6733716  -0.4041398  73.0528157  48.5580726  -0.1383823
  73.3379667  47.4938318  -1.1766307  78.5018186  42.0552196   8.6002938
  78.1085131  41.5018394   9.2750582  79.3184326  42.3662774   8.9909455
  81.4186147  43.4710075   6.1923194  82.1595860  44.0717228   6.1127657
  81.6504070  42.7287713   5.6341237  76.5627485  48.6566442   4.4701424
  76.4481000  47.7551699   4.7708523  75.7072003  48.9030139   4.1186240
  82.1973615  54.3931112   4.9393834  82.7301952  53.6319400   4.7093142
  81.6687696  54.1004764   5.6817989  78.8658490  45.2433945  -0.5466982
  79.5057869  45.1022704  -1.2444018  78.0336020  44.9568459  -0.9228380
  77.3412032  46.6272028   1.4004830  78.0135085  46.4189390   0.7517479
  76.5141818  46.4294114   0.9610062  83.2437604  43.2533968   3.4170491
  82.5965519  43.9523918   3.3234967  84.0138619  43.6870112   3.7846739
  86.6516402  53.5182821   6.4921044  86.5001908  53.2893372   5.5751128
  86.6421081  54.4753422   6.5052389  77.7439529  49.9014631   2.1607267
  77.6059327  49.1694869   2.7618806  78.6544452  49.8123531   1.8791455
  80.3721829  49.6134590   1.6490947  81.0821448  48.9727782   1.6077565
  80.3291138  49.8647485   2.5717127  79.0850763  46.5999808   3.4686586
  78.5488120  46.1490546   4.1208182  78.4967472  46.7345717   2.7257050
  74.8189885  45.7355815   0.5539581  74.7348073  45.1281485  -0.1810010
  73.9972591  46.2264834   0.5549077  83.2526625  50.1188675   7.0555066
  82.5767262  50.0182805   7.7257441  84.0754259  49.9627889   7.5191063
  69.5923139  48.9266212  -1.6027976  69.6307238  48.3929803  -0.8090858
  69.0863432  48.4001418  -2.2216999  76.9713901  43.7730753   1.8934566
  77.0355227  44.6345584   1.4811964  76.9081021  43.1604754   1.1606925
  76.4466174  45.8453885   5.5407601  77.0738212  45.4630963   6.1545125
  75.5894092  45.6268087   5.9063293  79.5552277  43.0640737   3.7294156
  80.0786679  43.3103034   4.4920465  79.3364610  43.8960772   3.3097293
  80.7604822  44.0054433   1.4143826  80.4201642  43.2062246   1.8164506
  80.0543828  44.3056143   0.8420659  82.6482386  45.2062754  -0.2302855
  82.3900164  46.1279824  -0.2318525  82.1167426  44.8093188   0.4597609
  73.4105535  50.3228210   0.6150789  72.8659003  51.0988018   0.7471063
  74.2884884  50.6699015   0.4569910  74.1971556  49.4498106   3.5080946
  73.4553292  49.5980742   4.0945576  73.8764301  49.7106372   2.6447695
  79.6834231  45.1671791   7.2021520  79.7322386  46.0433914   6.8199290
  80.2256745  44.6249184   6.6293163  87.5790714  48.5436309   5.1114692
  88.4800577  48.4042774   4.8198690  87.6538688  48.7090764   6.0512870
  81.9133519  45.9203164   3.9567879  81.0436829  46.2136730   3.6850467
  82.1493000  46.5043609   4.6775142  82.9404107  53.1220616   7.3575932
  83.8607116  53.2999215   7.5515978  82.9053690  52.1776661   7.2055631
  80.8094045  46.6054856   9.3901462  80.7090772  47.5549213   9.3213553
  80.5915587  46.2773095   8.5177532  80.6725315  50.0351995   8.2066523
  80.1892396  50.8352355   8.4130412  80.7586254  50.0459940   7.2533967
  77.1898034  52.4957646   2.8105755  78.0090923  52.9901725   2.8340592
  77.4634842  51.5789614   2.7823322  72.4432949  46.8295780   3.5097952
  73.0891812  46.3194734   3.9985177  72.2350100  47.5664461   4.0841377
  84.9686341  53.8976627   9.0090092  85.8377500  54.0717280   8.6476727
  84.4893092  54.7171044   8.8865822  76.7830440  43.9763397   7.6072966
  77.6461901  43.6200202   7.8176291  76.2095850  43.6377292   8.2948370
   4.0284715  86.2629821  62.7695017   4.7609887  85.6929038  63.0032847
   3.2724071  85.8751422  63.2101523   1.5510136  79.9751395  67.2289626
   1.2193460  80.8446806  67.0050841   0.9555749  79.6587679  67.9083656
   1.4438799  84.6946482  64.3082976   0.5355676  84.6261890  64.0141737
   1.3926395  85.1718426  65.1364802   3.3100445  82.8962920  66.0860850
   2.6674826  83.1895453  65.4400645   2.8055374  82.7815840  66.8914047
   2.0243963  85.3030496  67.1179235   2.9761386  85.4028593  67.1391459
   1.8547414  84.5108764  67.6277319   4.6526530  85.3147659  66.2779817
   4.1365578  84.5306116  66.0909746   5.5366478  84.9866376  66.4426337
   2.3137257  79.0588674  62.2375630   2.1162078  78.7503763  63.1218962
   2.9236962  79.7850313  62.3673560   8.4023888  87.7260485  65.9702022
   7.6757052  87.5916450  65.3618514   7.9871175  88.0337313  66.7758740
   1.4489710  81.0498106  59.4950826   0.8688379  81.7082911  59.1128878
   1.1825643  80.2275451  59.0838243   3.5829124  83.2344718  62.2661513
   4.3589515  83.7241170  62.5386130   2.8577259  83.6602772  62.7233383
   6.0201683  83.9472337  63.3235454   6.6146174  83.7068073  62.6128762
   6.0928267  83.2279468  63.9508990   4.0160418  84.5142465  59.5907584
   3.7597352  84.1139100  60.4215791   3.3913286  85.2286259  59.4657723
   8.3272756  87.2538538  62.0978875   7.7672314  87.3231727  62.8710437
   7.7216259  87.0779523  61.3778371   4.0284717  63.2691944  49.4940324
   4.7609889  62.6991161  49.7278153   3.2724072  62.8813544  49.9346830
   1.5510137  56.9813518  53.9534933   1.2193462  57.8508929  53.7296148
   0.9555750  56.6649802  54.6328963   1.4438800  61.7008604  51.0328283
   0.5355678  61.6324013  50.7387044   1.3926396  62.1780549  51.8610108
   3.3100447  59.9025043  52.8106157   2.6674827  60.1957576  52.1645951
   2.8055375  59.7877963  53.6159353   3.4499425  69.5668472  48.2449961
   2.7650463  69.9467373  47.6946994   3.5343274  70.1763799  48.9781909
   0.7050356  67.2128431  54.8445305   0.9167251  67.8560191  54.1679686
   0.6580104  66.3790748  54.3767235   1.8196184  70.0900386  53.0167662
   2.6413628  69.6880574  52.7350344   1.8158587  69.9868621  53.9683778
   9.9102177  66.4339135  49.3652633   9.1565886  65.8646533  49.2096638
  10.0449718  66.4001799  50.3123268   3.5877826  67.5724065  44.0131855
   2.8107268  67.2335224  43.5687017   4.2669307  67.5776688  43.3386820
   1.8269133  67.0458046  50.6698463   1.1692807  67.7357308  50.7578591
   2.6309532  67.4354478  51.0132449   0.6374591  65.4002419  48.7202405
   1.1506473  66.0332411  49.2224114   1.2875815  64.8003614  48.3545765
   1.4036388  70.3808420  46.8481547   0.9498715  69.5399330  46.9046738
   0.7730354  71.0169819  47.1856327   3.9866323  66.5867771  46.4754777
   3.8484221  66.7769367  45.5475966   3.6302542  67.3487154  46.9322828
   4.0135702  68.6544298  51.4866048   4.4472209  68.5619588  52.3349102
   4.7267283  68.6301799  50.8486064   4.8751252  68.6967999  54.0198934
   5.0687142  69.6013810  54.2658209   4.7751870  68.2375418  54.8537519
   1.6458567  71.8793864  57.6716296   1.5871113  71.1953085  57.0046879
   2.0478086  72.6212854  57.2196922   1.6475974  69.8433448  55.9030276
   0.7602753  69.5059370  56.0256675   2.2174526  69.1116480  56.1399041
   6.1293315  65.2541666  50.6646837   6.1183191  66.1366381  50.2940771
   5.2610694  64.9013217  50.4701375   2.7465890  64.1490307  47.1317003
   3.2126342  64.9818298  47.0577306   3.1973390  63.6835288  47.8362262
   1.0883218  73.1219795  50.2943909   2.0129765  72.9162656  50.1568360
   0.9198521  72.8736196  51.2033251   0.8778534  73.6405462  45.6506001
   1.0515411  73.0751885  44.8979853   1.3707425  74.4406357  45.4685491
   6.7317925  66.4041885  47.2696300   7.1749071  65.6549210  46.8715424
   5.8544435  66.3952021  46.8870032   1.8653706  72.9572227  42.7502899
   2.5604611  73.5778919  42.9690214   2.2076856  72.1067578  43.0255277
   3.7645129  70.4071932  44.2790230   4.2896454  70.7459205  43.5539550
   3.6767482  69.4718947  44.0953364   3.4539035  71.0404836  59.5841428
   2.6634579  71.0228975  59.0445927   3.2172390  71.5793129  60.3390464
   3.5736911  67.8897302  56.8974156   3.6234915  67.7247310  57.8389679
   3.4650834  67.0224561  56.5072037   0.8640673  63.8728230  58.2133463
   1.7650536  63.7334695  57.9217461   0.9388647  64.0382685  59.1531640
   5.0755107  70.3094244  57.1416178   4.7839916  70.6724224  57.9779639
   4.4627239  69.5961252  56.9629510   6.2750790  67.8747123  49.6618748
   7.1097681  68.3136927  49.8256308   6.4109918  67.3985777  48.8426994
   3.3242296  65.4326858  55.6096236   3.7996417  65.6254505  54.8015087
   2.4007861  65.4886044  55.3639619   2.0243965  62.3092618  53.8424541
   2.9761387  62.4090716  53.8636765   1.8547415  61.5170887  54.3522626
   1.8053851  72.6636999  39.7490522   1.7267483  72.3296862  40.6426280
   2.6263518  73.1558767  39.7481995   4.5032042  65.5298738  52.9566841
   4.4708362  64.5914739  53.1426525   5.1132666  65.6082775  52.2232666
   4.6526531  62.3209781  53.0025124   4.1365580  61.5368238  52.8155053
   5.5366479  61.9928498  53.1671644   2.3137258  56.0650797  48.9620937
   2.1162079  55.7565885  49.8464269   2.9236963  56.7912436  49.0918867
  10.3208592  66.5914745  52.0972878  11.0511981  66.3300033  52.6580581
   9.7115538  65.8543467  52.1374946   8.4023889  64.7322607  52.6947329
   7.6757053  64.5978572  52.0863821   7.9871176  65.0399436  53.5004047
   1.4489712  58.0560229  46.2196132   0.8688381  58.7145033  45.8374185
   1.1825644  57.2337574  45.8083550   3.5829126  60.2406840  48.9906820
   4.3589516  60.7303293  49.2631437   2.8577260  60.6664895  49.4478689
   6.0201684  60.9534460  50.0480761   6.6146175  60.7130196  49.3374069
   6.0928268  60.2341590  50.6754297   4.0160419  61.5204587  46.3152890
   3.7597353  61.1201223  47.1461098   3.3913287  62.2348381  46.1903029
   8.3272757  64.2600661  48.8224182   7.7672315  64.3293850  49.5955744
   7.7216260  64.0841645  48.1023678   1.2844500  70.4187523  41.4198961
   2.1190104  69.9868722  41.2376435   1.1228843  70.2469537  42.3475855
   9.9128775  80.9357174  51.5154137  10.5507185  80.8163922  50.8117478
   9.7949618  81.8838018  51.5742090   6.7218482  80.8884603  51.4515662
   6.3836993  80.7725667  50.5636197   7.5908250  80.4875768  51.4316668
   7.2038265  82.0419454  57.4101868   7.1926906  81.6472253  56.5382371
   7.3658904  81.3085527  58.0035639   8.1604856  86.4091047  42.7527018
   7.5092836  86.9945127  42.3661032   8.9549219  86.9397242  42.8122055
   2.0860483  83.4980184  43.1514152   2.8591359  82.9509171  43.0127028
   2.4385882  84.3624433  43.3628614   3.9245526  84.8256566  56.3581052
   3.6335392  85.7302197  56.2427718   4.5602510  84.8673094  57.0725121
   4.8501733  82.2033415  52.9482411   5.4465305  81.9789437  52.2339374
   4.9076704  81.4618160  53.5507859   4.4226761  79.6572850  40.7832602
   4.6752282  79.1354371  40.0216065   3.4851320  79.4938995  40.8859286
   9.4670044  78.6608628  48.5907345  10.2533133  78.2428051  48.2397762
   9.7308748  79.5654720  48.7588994   9.6380121  84.0981479  43.2896002
   9.0025954  84.1716105  44.0016907   9.3077528  84.6875077  42.6115082
  14.8678471  78.5983862  49.4940324  15.6003643  78.0283078  49.7278153
  14.1117827  78.2105462  49.9346830   4.1423050  81.5600956  42.9856977
   4.0259308  80.8845859  43.6538062   4.2525310  81.0733330  42.1689130
   6.4854591  81.0211103  46.6903666   6.1212798  80.4941724  47.4016588
   7.3421707  80.6309572  46.5170152  12.3903891  72.3105436  53.9534933
  12.0587216  73.1800847  53.7296148  11.7949505  71.9941720  54.6328963
   6.1260078  76.0501003  41.6865015   6.2934480  76.9181239  42.0535486
   5.9357247  76.2128284  40.7626304   8.8835411  84.5117982  53.3530845
   8.5836134  85.4143020  53.2446653   8.5386471  84.2450165  54.2051998
   2.3347892  80.9631778  49.3867550   1.4098389  80.8307993  49.5945242
   2.5832306  81.7425998  49.8837492  12.2832555  77.0300522  51.0328283
  11.3749432  76.9615930  50.7387044  12.2320151  77.5072467  51.8610108
   6.1049299  78.5058660  42.6711682   5.9848924  78.9515711  43.5097162
   5.4101887  78.8543978  42.1125220   6.3573421  78.4490167  58.9763180
   5.5806755  79.0084088  58.9666045   6.9963984  78.9346950  59.4978050
  14.1494201  75.2316960  52.8106157  13.5068581  75.5249493  52.1645951
  13.6449130  75.1169881  53.6159353  11.8034365  78.9780133  43.4992016
  12.7152221  79.2107520  43.3239713  11.2944012  79.5617178  42.9367094
   4.6119793  81.2575621  58.5381147   5.3534477  81.7960665  58.2615971
   3.9056778  81.8841909  58.6952699  10.0875133  83.4004761  57.1353308
  10.4958489  82.9587172  56.3907941   9.3652394  82.8257389  57.3887501
   6.4406203  78.3377368  54.5086865   7.2867398  78.7616782  54.6521514
   6.3804840  77.6810992  55.2025428  10.4103947  83.9605952  50.8905597
   9.7812810  84.1251666  50.1881665  10.0229609  84.3747561  51.6616561
  14.2893179  84.8960390  48.2449961  13.6044217  85.2759291  47.6946994
  14.3737028  85.5055716  48.9781909   9.5905648  75.9981736  56.1668039
   9.3466580  76.7523797  55.6302315   9.8665578  76.3767084  57.0015286
  11.5444111  82.5420349  54.8445305  11.7561006  83.1852109  54.1679686
  11.4973859  81.7082665  54.3767235   9.1470340  75.1538169  51.7481877
   8.2854819  75.4519423  52.0398614   9.1732774  75.3708568  50.8162909
   5.9631909  83.6980360  48.1555682   6.4270255  83.9768063  47.3660305
   5.6988707  82.7963804  47.9728773   2.8555990  83.2451841  51.0935446
   3.4257347  83.6739110  50.4552930   3.4464102  82.9634426  51.7919631
   4.9000795  79.8203512  44.9645248   5.6024838  80.2724556  45.4319174
   4.5681424  79.1787331  45.5925141   3.3481157  78.4115269  59.3396457
   2.7179817  79.0931550  59.5731854   3.2417244  78.2998351  58.3949595
  12.6589939  85.4192304  53.0167662  13.4807382  85.0172491  52.7350344
  12.6552341  85.3160538  53.9683778   6.4246542  84.9676347  55.1728372
   6.4890975  85.4296755  56.0086544   5.7157466  84.3373712  55.3010682
  20.7495932  81.7631053  49.3652633  19.9959640  81.1938451  49.2096638
  20.8843473  81.7293717  50.3123268   6.1394560  86.6344455  45.0407353
   6.0040234  87.4795991  45.4692201   6.6804372  86.8363733  44.2773287
   2.6261899  72.7136035  61.7021708   2.2328845  72.1602233  62.3769352
   3.4428040  73.0246613  62.0928226   5.5429860  74.1293914  59.2941965
   6.2839574  74.7301067  59.2146427   5.7747783  73.3871552  58.7360007
   7.7663036  87.2568021  59.1707695   7.3226890  86.4704400  58.8528599
   8.4280250  87.4447172  58.5051586   9.8644274  87.5370821  57.1989096
   9.8462749  88.3579702  56.7069365  10.7864194  87.4124897  57.4239237
   6.3217328  85.0514951  58.0412604   6.8545665  84.2903239  57.8111912
   5.7931409  84.7588603  58.7836759   9.4887023  70.1575017  53.5706246
   9.1451293  71.0476658  53.4945357   9.8565986  69.9676674  52.7075831
   9.4537306  80.1483628  42.0778681   8.9383929  80.9188233  42.3167069
   9.1814614  79.4748764  42.7011743   7.0384417  74.9933329  47.1363920
   6.1826013  74.6040179  46.9569558   7.4511369  75.0725289  46.2763705
   8.5683564  72.5279672  51.5355479   8.0648359  72.4909807  50.7223285
   8.8614171  73.4372415  51.5952136   4.8126450  72.6118402  50.5421661
   5.6779446  72.4161210  50.1827551   4.8803958  72.3828753  51.4691018
  14.4271580  82.9015983  44.0131855  13.6501023  82.5627142  43.5687017
  15.1063061  82.9068606  43.3386820   9.2423609  78.0210720  43.9038462
   8.9373745  78.3356869  44.7548606  10.1954051  78.0992140  43.9465795
   7.6870041  84.1800943  45.5531416   7.1591403  83.4453703  45.2404654
   7.1857544  84.9575620  45.3071385  12.6662887  82.3749964  50.6698463
  12.0086561  83.0649225  50.7578591  13.4703286  82.7646396  51.0132449
   2.4188769  74.8420610  47.9138028   2.9932521  74.6195791  47.1811221
   3.0059751  74.9109304  48.6666629  11.4768346  80.7294336  48.7202405
  11.9900228  81.3624328  49.2224114  12.1269570  80.1295532  48.3545765
   2.7458356  76.8725071  41.9333913   1.9095668  77.2099757  42.2543188
   2.6063125  76.7374050  40.9961050   4.7211436  71.7161858  46.6413097
   4.0675849  71.4010876  46.0169712   4.6791910  71.0937599  47.3672920
   5.8322641  81.9981154  38.5566390   4.9249703  81.7670407  38.7557538
   6.3293673  81.2018773  38.7440371   7.9549177  78.2043792  50.9660745
   7.0371738  78.4258739  50.8082433   8.3709320  78.2790103  50.1072452
   8.7384224  79.6035208  46.0963425   9.4856043  80.1156605  45.7870547
   9.0075814  79.2819260  46.9567819   7.0110875  82.0993748  43.0790380
   6.1022094  81.8152781  43.1762849   7.0405958  82.5192827  42.2193686
  12.2430142  85.7100338  46.8481547  11.7892469  84.8691248  46.9046738
  11.6124109  86.3461736  47.1856327  11.1863062  76.6392324  48.0782215
  10.4485818  76.1269710  48.4092457  11.4389835  76.1992706  47.2665491
  11.2874689  69.4168576  48.6723984  11.5933566  68.5565939  48.3849899
  12.0127294  70.0086196  48.4722978   5.5595769  79.7122369  49.1800175
   5.6144378  78.7596205  49.1042652   4.7486971  79.8681808  49.6641473
   6.7086962  83.6402492  40.4178458   6.2706392  82.9238351  39.9584096
   7.4497403  83.8678607  39.8563550   3.4988129  78.3299429  46.9390554
   2.6855994  78.6293599  47.3455746   3.9947123  77.9355118  47.6565036
   9.0962340  78.7941253  55.7705448   9.4511728  79.0212726  56.6299913
   9.7434471  79.1259630  55.1482703  14.8260077  81.9159689  46.4754777
  14.6877976  82.1061285  45.5475966  14.4696296  82.6779072  46.9322828
   2.9902203  75.9017784  52.5551789   3.6301583  75.7606543  51.8574752
   2.1579734  75.6152298  52.1790391  14.8529457  83.9836216  51.4866048
  15.2865963  83.8911505  52.3349102  15.5661038  83.9593717  50.8486064
   3.7662507  85.2020215  48.6686781   4.5603106  84.7070535  48.4669356
   3.0554200  84.6738078  48.3054487   8.5857352  87.5838310  53.0199149
   8.6394374  88.1529247  53.7876865   7.7172133  87.7540195  52.6553186
   1.4655745  77.2855866  54.5023600   2.1378799  77.0773229  53.8536249
   0.6385532  77.0877952  54.0628832  15.7145006  84.0259917  54.0198934
  15.9080896  84.9305727  54.2658209  15.6145625  83.5667336  54.8537519
   7.3681317  73.9117807  56.5189261   6.7209232  74.6107757  56.4253737
   8.1382333  74.3453951  56.8865509  10.7760115  84.1766660  59.5939814
  10.6245621  83.9477211  58.6769898  10.7664795  85.1337261  59.6071159
   7.5445451  81.7498572  54.5786081   8.4737511  81.9009732  54.4055048
   7.1236481  81.8382593  53.7234727   6.3433783  85.7749237  52.3484618
   6.2044869  85.4068021  53.2210556   5.5548379  86.2896876  52.1768576
   7.8938998  85.1530839  49.7373456   7.5588831  85.1131609  50.6331106
   7.3942944  84.4875555  49.2643866   1.8683242  80.5598469  55.2626037
   1.7303040  79.8278708  55.8637576   2.7788166  80.4707370  54.9810225
  10.8298190  82.4986874  40.0110516  10.2127361  81.7733702  39.9143568
  10.3614679  83.2596234  39.6677590   4.4965543  80.2718429  54.7509717
   5.2065162  79.6311621  54.7096335   4.4534851  80.5231324  55.6735898
  12.4852322  87.2085782  57.6716296  12.4264868  86.5245002  57.0046879
  12.8871840  87.9504772  57.2196922   3.2094477  77.2583647  56.5705356
   2.6731834  76.8074385  57.2226953   2.6211185  77.3929555  55.8275821
   2.6196736  76.7172298  39.1331820   1.7426202  76.5961099  38.7694067
   3.0954489  75.9258376  38.8810709  12.4869729  85.1725366  55.9030276
  11.5996508  84.8351288  56.0256675  13.0568280  84.4408397  56.1399041
   9.1157312  74.8793218  49.0228546   9.6126012  74.1263180  48.7029616
   8.3444294  74.9157535  48.4571755  16.9687070  80.5833583  50.6646837
  16.9576946  81.4658299  50.2940771  16.1004449  80.2305134  50.4701375
  10.1987093  83.6364905  46.5966969   9.2643372  83.7566368  46.4271674
  10.3763761  82.7337372  46.3326979   5.6992281  77.0210601  48.7500231
   5.3290068  76.4681641  49.4381136   6.1951373  76.4168734  48.1975231
  13.5859644  79.4782224  47.1317003  14.0520096  80.3110216  47.0577306
  14.0367145  79.0127206  47.8362262  11.5576307  71.8462811  51.1707905
  10.6439387  72.0767038  51.3390112  11.9869408  71.9301255  52.0221937
  11.3282765  80.0352703  53.6707799  10.6754216  80.2828611  53.0160252
  11.7063145  79.2216842  53.3370276   7.3770338  80.7772514  60.1573836
   6.7010975  80.6766644  60.8276211   8.1997972  80.6211728  60.6209833
   1.0957615  74.4314592  54.9953337   1.1598941  75.2929423  54.5830734
   1.0324735  73.8188593  54.2625695  10.9703996  86.9100699  60.2480106
  11.5143900  87.5230658  59.7535061  10.3890840  87.4680278  60.7647119
  11.3196417  87.8330437  53.0074684  10.3726752  87.7135789  52.9353011
  11.6679190  86.9452936  53.0900946   3.6795990  73.7224576  56.8312926
   4.2030392  73.9686873  57.5939235   3.4608324  74.5544611  56.4116063
   8.3242850  87.6283154  49.2079036   8.1767813  86.6999861  49.3886606
   9.1496344  87.6503244  48.7236112   2.1905095  76.2801221  45.0659529
   2.5301167  76.8087142  44.3438137   2.6377215  76.6181627  45.8418095
  11.9276972  88.4511712  50.2943909  12.8523520  88.2454574  50.1568360
  11.7592275  88.2028114  51.2033251   4.8848535  74.6638271  54.5162597
   4.5445356  73.8646085  54.9183276   4.1787542  74.9639982  53.9439430
   5.5365007  71.7487584  52.9689920   6.3591077  71.2748062  52.8468810
   5.7803071  72.5278068  53.4688606   4.1773242  74.7775842  43.2652821
   4.8981604  75.1557095  42.7616538   3.5538546  75.4964719  43.3687799
   8.3204365  75.4820991  44.2011154   8.5367979  76.3645629  43.8999982
   7.8398432  75.0907205  43.4716796   3.0603586  78.4406705  50.7781898
   2.9148167  78.7547008  51.6706180   2.5828790  79.0591605  50.2252797
   4.9199969  75.4309253  50.8262788   4.9061538  74.5350346  50.4895086
   5.6372397  75.4379916  51.4601074   6.7726100  75.8646593  52.8715915
   6.5143877  76.7863663  52.8700246   6.2411140  75.4677027  53.5616379
  11.7172288  88.9697380  45.6506001  11.8909166  88.4043802  44.8979853
  12.2101180  89.7698275  45.4685491   4.3236865  74.3123633  46.0950358
   4.4452776  73.3840279  46.2941245   4.0338907  74.3262319  45.1828673
   7.1928055  71.9978543  49.2317078   7.2149752  72.0617876  48.2769057
   7.6096114  71.1583052  49.4257584  17.5711679  81.7333803  47.2696300
  18.0142826  80.9841128  46.8715424  16.6938190  81.7243939  46.8870032
  12.7047461  88.2864144  42.7502899  13.3998365  88.9070837  42.9690214
  13.0470611  87.4359495  43.0255277  14.6038884  85.7363850  44.2790230
  15.1290208  86.0751123  43.5539550  14.5161236  84.8010865  44.0953364
   3.8077944  75.8255630  60.3040291   3.8566100  76.7017753  59.9218060
   4.3500459  75.2833023  59.7311934  14.2932790  86.3696753  59.5841428
  13.5028334  86.3520892  59.0445927  14.0566145  86.9085047  60.3390464
  14.4130665  83.2189220  56.8974156  14.4628670  83.0539227  57.8389679
  14.3044588  82.3516479  56.5072037   3.2966924  85.8977766  44.1866245
   3.4455044  86.5813230  43.5332918   4.1033367  85.8782856  44.7015701
  11.7034427  79.2020148  58.2133463  12.6044290  79.0626613  57.9217461
  11.7782402  79.3674603  59.1531640   6.0377233  76.5787003  57.0586649
   5.1680542  76.8720569  56.7869238   6.2736713  77.1627448  57.7793913
  15.9148862  85.6386161  57.1416178  15.6233670  86.0016142  57.9779639
  15.3020993  84.9253170  56.9629510  17.1144544  83.2039041  49.6618748
  17.9491436  83.6428845  49.8256308  17.2503673  82.7277694  48.8426994
  14.1636050  80.7618776  55.6096236  14.6390172  80.9546422  54.8015087
  13.2401615  80.8177962  55.3639619   1.0519557  81.9242943  45.1927314
   0.8065599  81.0205273  45.3907524   1.2215471  81.9260094  44.2506792
   8.7416267  72.7966620  54.5752070   9.2598210  73.5327646  54.2498558
   8.3871399  73.1030613  55.4098829   8.9928861  69.2166902  50.0952966
   9.2730615  68.5490091  50.7213393   9.7779468  69.4095998  49.5827630
  12.8637719  77.6384536  53.8424541  13.8155142  77.7382634  53.8636765
  12.6941170  76.8462805  54.3522626  12.6447606  87.9928916  39.7490522
  12.5661237  87.6588780  40.6426280  13.4657272  88.4850684  39.7481995
  15.3425797  80.8590656  52.9566841  15.3102117  79.9206656  53.1426525
  15.9526421  80.9374692  52.2232666   7.1809128  79.7286709  38.9994045
   8.1268232  79.5992917  39.0682463   6.8023373  78.9901371  39.4763473
  15.4920285  77.6501699  53.0025124  14.9759334  76.8660156  52.8155053
  16.3760234  77.3220416  53.1671644  13.1531012  71.3942715  48.9620937
  12.9555833  71.0857803  49.8464269  13.7630718  72.1204354  49.0918867
  21.1602347  81.9206663  52.0972878  21.8905735  81.6591951  52.6580581
  20.5509292  81.1835385  52.1374946  19.2417644  80.0614525  52.6947329
  18.5150807  79.9270490  52.0863821  18.8264931  80.3691354  53.5004047
   7.0647820  83.7804455  60.4594702   7.9850830  83.9583054  60.6534748
   7.0297403  82.8360500  60.3074401   5.3652045  77.6536685  38.9348930
   4.4583500  77.3569798  39.0111644   5.6428026  77.3566503  38.0683216
   6.9814111  72.1973575  45.0893172   6.1714839  71.8520660  45.4648418
   7.6698528  71.8881119  45.6780783   8.9104659  71.2751622  46.7117468
   9.4635698  71.6947075  47.3707491   9.1474745  70.3487370  46.7540424
   4.9337758  77.2638695  62.4920232   4.8334485  78.2133052  62.4232323
   4.7159300  76.9356934  61.6196302   4.1350830  74.5123620  39.0760909
   4.9969994  74.8378519  39.3356727   4.3201174  73.7255116  38.5633975
  12.2883466  73.3852147  46.2196132  11.7082135  74.0436951  45.8374185
  12.0219399  72.5629491  45.8083550  10.7387032  72.7857204  48.4217453
  11.2386811  72.8973739  47.6131772  11.3822640  72.4818257  49.0618261
   4.7969028  80.6935834  61.3085294   4.3136110  81.4936194  61.5149183
   4.8829967  80.7043779  60.3552738   0.7242366  84.5840369  53.3453727
   1.6785619  84.5524311  53.2783659   0.5254889  84.1230993  54.1603953
   1.3141748  83.1541485  55.9124525   2.1334637  83.6485564  55.9359362
   1.5878556  82.2373453  55.8842093  11.0708344  75.5452237  45.2752481
  10.1834199  75.8301888  45.0572675  11.4862333  75.3846001  44.4279758
  14.4222880  75.5698758  48.9906820  15.1983270  76.0595211  49.2631437
  13.6971014  75.9956812  49.4478689  16.8595439  76.2826377  50.0480761
  17.4539930  76.0422113  49.3374069  16.9322022  75.5633508  50.6754297
  10.2151557  85.3096912  39.3700501  10.9187408  85.5146914  39.9858156
   9.4914206  85.8773674  39.6349584  11.0449368  81.0606773  45.4902771
  10.9884569  81.5175325  44.6510403  11.5977710  80.2997458  45.3125614
  14.8554174  76.8496505  46.3152890  14.5991108  76.4493141  47.1461098
  14.2307042  77.5640299  46.1903029  19.1666512  79.5892578  48.8224182
  18.6066070  79.6585768  49.5955744  18.5610015  79.4133563  48.1023678
  12.1238255  85.7479441  41.4198961  12.9583859  85.3160640  41.2376435
  11.9622598  85.5761455  42.3475855  11.7784147  82.2511554  42.7855300
  11.7232951  82.0855826  41.8443744  11.1530202  82.9587587  42.9417490
   9.0930054  84.5560466  62.1108863   9.9621214  84.7301118  61.7495498
   8.6136806  85.3754883  61.9884592   5.0880273  71.7519663  42.3640618
   5.0758942  72.6961503  42.5208889   5.9803694  71.5689809  42.0700080
   8.9032392  68.3462440  46.6186555   8.1364788  67.7920927  46.7643238
   9.3143097  68.4184309  47.4800707  25.7072226  93.9275779  49.4940324
  26.4397398  93.3574996  49.7278153  24.9511581  93.5397380  49.9346830
  23.2297646  87.6397353  53.9534933  22.8980971  88.5092764  53.7296148
  22.6343259  87.3233637  54.6328963  23.1226309  92.3592439  51.0328283
  22.2143187  92.2907848  50.7387044  23.0713905  92.8364384  51.8610108
  24.9887956  90.5608878  52.8106157  24.3462336  90.8541411  52.1645951
  24.4842884  90.4461798  53.6159353  20.4299402  91.3273654  56.1668039
  20.1860334  92.0815715  55.6302315  20.7059333  91.7059002  57.0015286
  19.9864094  90.4830087  51.7481877  19.1248573  90.7811341  52.0398614
  20.0126529  90.7000486  50.8162909  13.4655654  88.0427952  61.7021708
  13.0722599  87.4894151  62.3769352  14.2821794  88.3538531  62.0928226
  16.3823615  89.4585832  59.2941965  17.1233328  90.0592985  59.2146427
  16.6141538  88.7163469  58.7360007  20.3280778  85.4866934  53.5706246
  19.9845047  86.3768576  53.4945357  20.6959740  85.2968592  52.7075831
  17.8778172  90.3225246  47.1363920  17.0219768  89.9332097  46.9569558
  18.2905123  90.4017207  46.2763705  19.4077318  87.8571590  51.5355479
  18.9042114  87.8201725  50.7223285  19.7007925  88.7664332  51.5952136
  15.6520204  87.9410319  50.5421661  16.5173201  87.7453128  50.1827551
  15.7197713  87.7120671  51.4691018  13.2582523  90.1712527  47.9138028
  13.8326275  89.9487709  47.1811221  13.8453506  90.2401222  48.6666629
  15.5605191  87.0453776  46.6413097  14.9069603  86.7302793  46.0169712
  15.5185665  86.4229517  47.3672920  22.0256816  91.9684242  48.0782215
  21.2879573  91.4561628  48.4092457  22.2783590  91.5284623  47.2665491
  22.1268443  84.7460494  48.6723984  22.4327320  83.8857857  48.3849899
  22.8521048  85.3378114  48.4722978  18.2075072  89.2409725  56.5189261
  17.5602987  89.9399675  56.4253737  18.9776087  89.6745869  56.8865509
  19.9551067  90.2085136  49.0228546  20.4519766  89.4555098  48.7029616
  19.1838048  90.2449452  48.4571755  22.3970061  87.1754729  51.1707905
  21.4833141  87.4058956  51.3390112  22.8263163  87.2593173  52.0221937
  14.5189745  89.0516494  56.8312926  15.0424147  89.2978791  57.5939235
  14.3002078  89.8836529  56.4116063  15.7242290  89.9930189  54.5162597
  15.3839110  89.1938002  54.9183276  15.0181296  90.2931900  53.9439430
  16.3758762  87.0779502  52.9689920  17.1984831  86.6039980  52.8468810
  16.6196825  87.8569985  53.4688606  19.1598119  90.8112909  44.2011154
  19.3761733  91.6937547  43.8999982  18.6792186  90.4199122  43.4716796
  15.7593723  90.7601170  50.8262788  15.7455292  89.8642264  50.4895086
  16.4766151  90.7671834  51.4601074  15.1630619  89.6415550  46.0950358
  15.2846530  88.7132197  46.2941245  14.8732662  89.6554236  45.1828673
  18.0321810  87.3270461  49.2317078  18.0543506  87.3909794  48.2769057
  18.4489869  86.4874970  49.4257584  19.5810021  88.1258537  54.5752070
  20.0991965  88.8619564  54.2498558  19.2265154  88.4322530  55.4098829
  19.8322615  84.5458820  50.0952966  20.1124369  83.8782009  50.7213393
  20.6173222  84.7387915  49.5827630  23.7031474  92.9676454  53.8424541
  24.6548896  93.0674551  53.8636765  23.5334924  92.1754722  54.3522626
  21.7245853  90.0532037  54.0283942  21.1295785  90.3337050  53.3330431
  21.4395550  90.5425938  54.8000683  26.3314040  92.9793617  53.0025124
  25.8153089  92.1952073  52.8155053  27.2153988  92.6512333  53.1671644
  23.9924767  86.7234632  48.9620937  23.7949588  86.4149721  49.8464269
  24.6024472  87.4496271  49.0918867  30.0811398  95.3906443  52.6947329
  29.3544562  95.2562408  52.0863821  29.6658685  95.6983271  53.5004047
  17.8207865  87.5265492  45.0893172  17.0108593  87.1812577  45.4648418
  18.5092282  87.2173036  45.6780783  19.7498413  86.6043539  46.7117468
  20.3029452  87.0238993  47.3707491  19.9868500  85.6779287  46.7540424
  14.9744584  89.8415538  39.0760909  15.8363748  90.1670436  39.3356727
  15.1594928  89.0547034  38.5633975  23.1277220  88.7144064  46.2196132
  22.5475890  89.3728868  45.8374185  22.8613153  87.8921409  45.8083550
  21.5780787  88.1149122  48.4217453  22.0780565  88.2265657  47.6131772
  22.2216395  87.8110175  49.0618261  21.9102099  90.8744155  45.2752481
  21.0227954  91.1593805  45.0572675  22.3256088  90.7137918  44.4279758
  25.2616635  90.8990676  48.9906820  26.0377025  91.3887128  49.2631437
  24.5364769  91.3248730  49.4478689  27.6989193  91.6118295  50.0480761
  28.2933684  91.3714031  49.3374069  27.7715777  90.8925426  50.6754297
  25.6947928  92.1788423  46.3152890  25.4384862  91.7785058  47.1461098
  25.0700796  92.8932217  46.1903029  30.0060266  94.9184496  48.8224182
  29.4459824  94.9877685  49.5955744  29.4003769  94.7425480  48.1023678
  15.9274027  87.0811581  42.3640618  15.9152697  88.0253421  42.5208889
  16.8197449  86.8981726  42.0700080  19.7426146  83.6754358  46.6186555
  18.9758542  83.1212844  46.7643238  20.1536851  83.7476226  47.4800707
   4.0284718  40.2754066  36.2185631   4.7609890  39.7053283  36.4523460
   3.2724074  39.8875667  36.6592136   1.5510138  33.9875641  40.6780239
   1.2193463  34.8571051  40.4541454   0.9555752  33.6711925  41.3574270
   1.4438802  38.7070727  37.7573589   0.5355679  38.6386135  37.4632350
   1.3926397  39.1842672  38.5855415   3.3100448  36.9087165  39.5351463
   2.6674828  37.2019698  38.8891258   2.8055376  36.7940085  40.3404660
   3.4499426  46.5730595  34.9695268   2.7650464  46.9529496  34.4192301
   3.5343275  47.1825921  35.7027215   0.7050357  44.2190554  41.5690611
   0.9167253  44.8622314  40.8924992   0.6580106  43.3852870  41.1012541
   1.8196185  47.0962509  39.7412969   2.6413629  46.6942696  39.4595650
   1.8158588  46.9930743  40.6929084   9.9102178  43.4401258  36.0897940
   9.1565887  42.8708656  35.9341944  10.0449720  43.4063922  37.0368575
   3.5877827  44.5786187  30.7377161   2.8107270  44.2397347  30.2932324
   4.2669308  44.5838811  30.0632126   1.8269134  44.0520169  37.3943769
   1.1692808  44.7419430  37.4823898   2.6309533  44.4416601  37.7377756
   0.6374593  42.4064541  35.4447711   1.1506474  43.0394533  35.9469421
   1.2875816  41.8065737  35.0791071   1.4036389  47.3870543  33.5726854
   0.9498716  46.5461453  33.6292044   0.7730356  48.0231941  33.9101634
   3.9866324  43.5929894  33.2000083   3.8484223  43.7831490  32.2721273
   3.6302543  44.3549277  33.6568135   4.0135704  45.6606421  38.2111355
   4.4472210  45.5681710  39.0594409   4.7267284  45.6363922  37.5731371
   4.8751253  45.7030122  40.7444240   5.0687143  46.6075932  40.9903515
   4.7751871  45.2437541  41.5782825   1.6458568  48.8855987  44.3961603
   1.5871115  48.2015207  43.7292186   2.0478087  49.6274977  43.9442229
   1.6475976  46.8495571  42.6275582   0.7602755  46.5121493  42.7501981
   2.2174527  46.1178602  42.8644348   6.1293316  42.2603788  37.3892144
   6.1183193  43.1428504  37.0186077   5.2610696  41.9075339  37.1946681
   2.7465891  41.1552429  33.8562310   3.2126343  41.9880421  33.7822613
   3.1973391  40.6897411  34.5607569   1.0883219  50.1281917  37.0189216
   2.0129766  49.9224779  36.8813667   0.9198522  49.8798318  37.9278557
   0.8778535  50.6467585  32.3751307   1.0515413  50.0814007  31.6225160
   1.3707426  51.4468480  32.1930797   6.7317926  43.4104008  33.9941607
   7.1749072  42.6611333  33.5960730   5.8544437  43.4014144  33.6115339
   1.8653708  49.9634349  29.4748206   2.5604612  50.5841042  29.6935520
   2.2076858  49.1129700  29.7500583   3.7645131  47.4134055  31.0035536
   4.2896455  47.7521327  30.2784856   3.6767483  46.4781070  30.8198671
   3.4539037  48.0466958  46.3086734   2.6634580  48.0291097  45.7691234
   3.2172391  48.5855252  47.0635771   3.5736912  44.8959425  43.6219463
   3.6234917  44.7309432  44.5634986   3.4650835  44.0286684  43.2317344
   0.8640674  40.8790353  44.9378769   1.7650537  40.7396818  44.6462767
   0.9388649  41.0444808  45.8776947   5.0755109  47.3156366  43.8661484
   4.7839917  47.6786347  44.7024945   4.4627240  46.6023375  43.6874816
   6.2750791  44.8809246  36.3864055   7.1097682  45.3199050  36.5501615
   6.4109920  44.4047899  35.5672300   3.3242297  42.4388981  42.3341542
   3.7996418  42.6316627  41.5260394   2.4007862  42.4948167  42.0884926
   2.0243966  39.3154741  40.5669848   2.9761389  39.4152839  40.5882072
   1.8547416  38.5233010  41.0767932   1.8053852  49.6699121  26.4735829
   1.7267484  49.3358985  27.3671587   2.6263519  50.1620889  26.4727301
   4.5032044  42.5360861  39.6812148   4.4708364  41.5976861  39.8671831
   5.1132667  42.6144897  38.9477972   4.6526532  39.3271904  39.7270431
   4.1365581  38.5430361  39.5400360   5.5366481  38.9990621  39.8916950
   2.3137259  33.0712920  35.6866243   2.1162080  32.7628008  36.5709575
   2.9236965  33.7974559  35.8164173  10.3208594  43.5976867  38.8218184
  11.0511982  43.3362156  39.3825888   9.7115539  42.8605589  38.8620252
   8.4023891  41.7384730  39.4192636   7.6757054  41.6040695  38.8109127
   7.9871177  42.0461559  40.2249354   1.4489713  35.0622352  32.9441439
   0.8688382  35.7207156  32.5619491   1.1825645  34.2399696  32.5328857
   3.5829127  37.2468963  35.7152127   4.3589517  37.7365415  35.9876743
   2.8577261  37.6727017  36.1723996   6.0201686  37.9596582  36.7726067
   6.6146176  37.7192318  36.0619375   6.0928269  37.2403713  37.3999603
   4.0160420  38.5266710  33.0398197   3.7597355  38.1263346  33.8706405
   3.3913288  39.2410504  32.9148336   8.3272758  41.2662783  35.5469488
   7.7672316  41.3355972  36.3201050   7.7216262  41.0903768  34.8268985
   1.2844502  47.4249646  28.1444267   2.1190106  46.9930844  27.9621742
   1.1228845  47.2531660  29.0721162   9.9128777  57.9419297  38.2399444
  10.5507187  57.8226044  37.5362784   9.7949620  58.8900141  38.2987396
   6.7218483  57.8946725  38.1760969   6.3836995  57.7787790  37.2881504
   7.5908251  57.4937890  38.1561975   2.5805299  59.7482202  34.1657860
   2.0170164  59.6572139  33.3974147   2.4657694  58.9282106  34.6460352
   7.2038266  59.0481577  44.1347174   7.1926907  58.6534375  43.2627678
   7.3658905  58.3147649  44.7280946   8.1604857  63.4153169  29.4772325
   7.5092837  64.0007250  29.0906338   8.9549220  63.9459364  29.5367362
   2.0860485  60.5042306  29.8759459   2.8591361  59.9571294  29.7372335
   2.4385883  61.3686556  30.0873920   3.9245527  61.8318689  43.0826358
   3.6335393  62.7364320  42.9673025   4.5602512  61.8735216  43.7970428
   4.8501734  59.2095537  39.6727718   5.4465306  58.9851560  38.9584681
   4.9076706  58.4680283  40.2753166   4.4226762  56.6634973  27.5077909
   4.6752283  56.1416494  26.7461372   3.4851322  56.5001118  27.6104592
   9.4670045  55.6670751  35.3152652  10.2533134  55.2490174  34.9643069
   9.7308750  56.5716843  35.4834301   9.6380123  61.1043601  30.0141309
   9.0025956  61.1778228  30.7262214   9.3077529  61.6937200  29.3360388
  14.8678472  55.6045984  36.2185631  15.6003644  55.0345201  36.4523460
  14.1117828  55.2167585  36.6592136   4.1423051  58.5663078  29.7102284
   4.0259309  57.8907982  30.3783368   4.2525311  58.0795452  28.8934437
   6.4854592  58.0273226  33.4148973   6.1212799  57.5003847  34.1261895
   7.3421708  57.6371695  33.2415458  12.3903893  49.3167558  40.6780239
  12.0587217  50.1862969  40.4541454  11.7949506  49.0003842  41.3574270
   6.1260079  53.0563125  28.4110322   6.2934481  53.9243362  28.7780793
   5.9357248  53.2190407  27.4871611   8.8835412  61.5180104  40.0776152
   8.5836135  62.4205143  39.9691959   8.5386472  61.2512287  40.9297305
   2.3347894  57.9693901  36.1112856   1.4098390  57.8370115  36.3190548
   2.5832307  58.7488120  36.6082799  12.2832556  54.0362644  37.7573589
  11.3749433  53.9678053  37.4632350  12.2320152  54.5134589  38.5855415
   6.1049300  55.5120783  29.3956988   5.9848925  55.9577834  30.2342469
   5.4101888  55.8606100  28.8370527   3.8656192  68.2824425  33.0447120
   3.7880222  69.2332250  33.1235600   3.2617836  67.9370297  33.7022046
   6.3573422  55.4552290  45.7008487   5.5806756  56.0146210  45.6911351
   6.9963985  55.9409073  46.2223357  11.8034366  55.9842256  30.2237322
  12.7152222  56.2169643  30.0485020  11.2944013  56.5679300  29.6612401
   4.6119794  58.2637743  45.2626454   5.3534478  58.8022787  44.9861277
   3.9056780  58.8904032  45.4198005  10.0875134  60.4066884  43.8598615
  10.4958490  59.9649294  43.1153247   9.3652395  59.8319511  44.1132808
   6.4406204  55.3439491  41.2332172   7.2867399  55.7678904  41.3766821
   6.3804841  54.6873115  41.9270735  10.4103948  60.9668074  37.6150904
   9.7812811  61.1313789  36.9126972  10.0229610  61.3809684  38.3861868
  14.2893180  61.9022512  34.9695268  13.6044218  62.2821414  34.4192301
  14.3737030  62.5117839  35.7027215   9.5905649  53.0043859  42.8913346
   9.3466581  53.7585919  42.3547621   9.8665580  53.3829207  43.7260593
  11.5444112  59.5482471  41.5690611  11.7561007  60.1914231  40.8924992
  11.4973860  58.7144788  41.1012541   9.1470341  52.1600292  38.4727183
   8.2854820  52.4581546  38.7643921   9.1732776  52.3770691  37.5408216
   5.9631910  60.7042483  34.8800989   6.4270256  60.9830186  34.0905612
   5.6988708  59.8025927  34.6974080   2.8555991  60.2513964  37.8180752
   3.4257348  60.6801232  37.1798237   3.4464103  59.9696549  38.5164938
   4.9000796  56.8265635  31.6890554   5.6024840  57.2786679  32.1564481
   4.5681425  56.1849454  32.3170447   3.3481158  55.4177392  46.0641764
   2.7179818  56.0993672  46.2977160   3.2417246  55.3060473  45.1194902
  12.6589940  62.4254427  39.7412969  13.4807384  62.0234614  39.4595650
  12.6552343  62.3222661  40.6929084   6.4246543  61.9738470  41.8973679
   6.4890976  62.4358877  42.7331851   5.7157467  61.3435835  42.0255989
   6.1394561  63.6406578  31.7652659   6.0040236  64.4858113  32.1937507
   6.6804373  63.8425855  31.0018593   2.6261901  49.7198157  48.4267015
   2.2328846  49.1664356  49.1014659   3.4428041  50.0308736  48.8173532
   1.4018843  64.2747772  34.4203338   1.5785471  65.1965737  34.2324322
   2.1975677  63.9606191  34.8497717   5.5429862  51.1356036  46.0187271
   6.2839575  51.7363190  45.9391734   5.7747784  50.3933674  45.4605314
   7.7663037  64.2630144  45.8953001   7.3226892  63.4766523  45.5773906
   8.4280251  64.4509295  45.2296892   2.5250159  65.7925946  40.4213680
   3.0757584  65.6643009  39.6490674   1.6861634  66.0920835  40.0708573
   9.8644275  64.5432944  43.9234403   9.8462751  65.3641825  43.4314672
  10.7864195  64.4187019  44.1484544   6.3217330  62.0577073  44.7657911
   6.8545666  61.2965362  44.5357219   5.7931411  61.7650725  45.5082066
   9.4887025  47.1637139  40.2951553   9.1451294  48.0538781  40.2190663
   9.8565987  46.9738797  39.4321138   9.4537307  57.1545750  28.8023988
   8.9383931  57.9250355  29.0412375   9.1814616  56.4810887  29.4257049
   7.0384418  51.9995451  33.8609226   6.1826015  51.6102302  33.6814865
   7.4511370  52.0787412  33.0009012   8.5683565  49.5341795  38.2600786
   8.0648361  49.4971930  37.4468591   8.8614172  50.4434537  38.3197443
   4.8126451  49.6180524  37.2666968   5.6779448  49.4223333  36.9072857
   4.8803960  49.3890876  38.1936325  14.4271581  59.9078105  30.7377161
  13.6501024  59.5689265  30.2932324  15.1063062  59.9130728  30.0632126
   9.2423610  55.0272843  30.6283769   8.9373746  55.3418992  31.4793912
  10.1954053  55.1054262  30.6711102   7.6870042  61.1863066  32.2776723
   7.1591404  60.4515825  31.9649961   7.1857545  61.9637742  32.0316691
  12.6662888  59.3812086  37.3943769  12.0086563  60.0711348  37.4823898
  13.4703288  59.7708518  37.7377756   2.4188770  51.8482732  34.6383335
   2.9932522  51.6257914  33.9056528   3.0059752  51.9171427  35.3911936
   2.7458357  53.8787193  28.6579220   1.9095669  54.2161880  28.9788495
   2.6063127  53.7436173  27.7206357   4.7211438  48.7223981  33.3658404
   4.0675850  48.4072998  32.7415019   4.6791912  48.0999722  34.0918227
   5.8322642  59.0043276  25.2811696   4.9249704  58.7732530  25.4802845
   6.3293674  58.2080895  25.4685678   8.7390721  67.7140783  28.2008382
   8.0652420  68.0172480  28.8093340   9.1256543  68.5169864  27.8513839
   7.9549178  55.2105915  37.6906052   7.0371739  55.4320862  37.5327740
   8.3709322  55.2852225  36.8317759   8.7384226  56.6097330  32.8208732
   9.4856045  57.1218728  32.5115854   9.0075815  56.2881383  33.6813126
   7.0110876  59.1055871  29.8035686   6.1022095  58.8214904  29.9008156
   7.0405960  59.5254950  28.9438993  12.2430143  62.7162461  33.5726854
  11.7892470  61.8753370  33.6292044  11.6124110  63.3523859  33.9101634
  11.1863063  53.6454447  34.8027521  10.4485820  53.1331833  35.1337764
  11.4389836  53.2054828  33.9910798  10.6863083  64.5538957  34.5076672
  10.9786057  65.1144014  33.7889038  11.1961703  64.8467518  35.2629831
  11.2874690  46.4230699  35.3969291  11.5933567  45.5628062  35.1095206
  12.0127295  47.0148319  35.1968284   5.5595770  56.7184492  35.9045482
   5.6144380  55.7658328  35.8287958   4.7486972  56.8743931  36.3886780
   6.7086964  60.6464615  27.1423765   6.2706394  59.9300474  26.6829402
   7.4497405  60.8740730  26.5808856   3.4988130  55.3361551  33.6635860
   2.6855995  55.6355722  34.0701053   3.9947124  54.9417240  34.3810343
   5.6496708  65.3319308  35.5970125   5.6072887  65.5580155  34.6678657
   6.5659407  65.0982683  35.7455926   9.0962342  55.8003376  42.4950754
   9.4511729  56.0274849  43.3545220   9.7434473  56.1321753  41.8728010
  14.8260078  58.9221812  33.2000083  14.6877977  59.1123408  32.2721273
  14.4696297  59.6841195  33.6568135   2.9902205  52.9079907  39.2797095
   3.6301584  52.7668666  38.5820059   2.1579735  52.6214420  38.9035697
  14.8529458  60.9898339  38.2111355  15.2865965  60.8973628  39.0594409
  15.5661039  60.9655839  37.5731371   3.7662509  62.2082337  35.3932088
   4.5603107  61.7132657  35.1914663   3.0554201  61.6800200  35.0299793
   8.5857353  64.5900433  39.7444455   8.6394375  65.1591369  40.5122171
   7.7172134  64.7602318  39.3798493   1.4655746  54.2917989  41.2268907
   2.1378800  54.0835351  40.5781556   0.6385533  54.0940075  40.7874139
  15.7145008  61.0322039  40.7444240  15.9080898  61.9367850  40.9903515
  15.6145626  60.5729458  41.5782825   7.3681318  50.9179930  43.2434568
   6.7209233  51.6169880  43.1499044   8.1382334  51.3516074  43.6110816
  10.7760116  61.1828782  46.3185121  10.6245623  60.9539334  45.4015205
  10.7664796  62.1399384  46.3316466   7.5445453  58.7560695  41.3031387
   8.4737513  58.9071855  41.1300355   7.1236483  58.8444716  40.4480034
   6.3433785  62.7811359  39.0729925   6.2044870  62.4130144  39.9455863
   5.5548381  63.2958999  38.9013883   6.9381936  67.8820456  30.4155461
   7.1133692  67.4108499  31.2301084   6.2514725  68.5086222  30.6436722
   7.8939000  62.1592962  36.4618763   7.5588832  62.1193732  37.3576413
   7.3942945  61.4937678  35.9889173   1.8683244  57.5660592  41.9871344
   1.7303042  56.8340831  42.5882883   2.7788167  57.4769492  41.7055532
  10.8298191  59.5048996  26.7355822  10.2127362  58.7795825  26.6388875
  10.3614680  60.2658357  26.3922897   4.4965544  57.2780551  41.4755024
   5.2065163  56.6373744  41.4341642   4.4534852  57.5293446  42.3981204
  12.4852323  64.2147905  44.3961603  12.4264869  63.5307125  43.7292186
  12.8871841  64.9566895  43.9442229   3.2094478  54.2645769  43.2950663
   2.6731835  53.8136508  43.9472259   2.6211187  54.3991678  42.5521127
   1.5043022  71.0309819  37.1895322   1.7439620  71.6628343  37.8674340
   0.6612218  70.6797859  37.4760681   2.6196737  53.7234421  25.8577127
   1.7426204  53.6023221  25.4939373   3.0954490  52.9320499  25.6056015
  12.4869730  62.1787489  42.6275582  11.5996509  61.8413410  42.7501981
  13.0568281  61.4470520  42.8644348   6.0170884  66.8388941  39.5936826
   5.9441055  67.6443912  40.1056130   5.5748277  67.0380907  38.7684847
   5.8060663  66.0760711  33.1039647   5.0228185  66.6182391  33.1977872
   6.5053408  66.5934691  33.5033888   9.1157313  51.8855340  35.7473853
   9.6126013  51.1325303  35.4274923   8.3444295  51.9219657  35.1817062
  16.9687071  57.5895706  37.3892144  16.9576947  58.4720421  37.0186077
  16.1004450  57.2367257  37.1946681   8.4769567  66.7375775  41.7494984
   9.1897539  67.3723240  41.6770886   7.9859596  66.8339641  40.9334986
  10.1987094  60.6427028  33.3212276   9.2643373  60.7628490  33.1516980
  10.3763763  59.7399494  33.0572286   5.6992282  54.0272723  35.4745537
   5.3290070  53.4743764  36.1626443   6.1951375  53.4230857  34.9220537
  13.5859645  56.4844347  33.8562310  14.0520098  57.3172339  33.7822613
  14.0367146  56.0189329  34.5607569   3.5281481  64.4870218  42.5700555
   4.2290940  65.1206701  42.7229949   3.0576596  64.8284950  41.8096194
  11.6535877  62.8288168  30.8548462  11.9295720  62.7144763  31.7642336
  10.7840375  62.4305653  30.8160635  11.3282767  57.0414826  40.3953105
  10.6754217  57.2890733  39.7405558  11.7063147  56.2278964  40.0615583
   8.2889941  67.0774519  34.4981276   8.4712335  66.2596175  34.9609028
   9.1122927  67.2942211  34.0606166   8.6232106  66.0042704  31.7596324
   9.1519872  65.4935159  31.1466486   8.8860326  65.6885234  32.6241857
   7.3770340  57.7834637  46.8819143   6.7010977  57.6828766  47.5521518
   8.1997974  57.6273851  47.3455140   1.9787854  67.0557821  34.5194100
   1.3098229  67.5403949  34.0358140   1.8400724  67.3027041  35.4337479
   6.1193123  69.0901564  41.1176759   6.6711431  69.2533186  41.8825844
   6.4599316  69.6806002  40.4456783   1.0957616  51.4376714  41.7198643
   1.1598942  52.2991545  41.3076041   1.0324736  50.8250716  40.9871002
  10.9703997  63.9162822  46.9725413  11.5143901  64.5292780  46.4780368
  10.3890842  64.4742400  47.4892426   9.2561510  67.0383540  38.1040441
   9.1312649  66.2373280  37.5951386   9.9140601  67.5329733  37.6154411
  11.3196418  64.8392560  39.7319991  10.3726754  64.7197911  39.6598318
  11.6679191  63.9515058  39.8146252   3.6795992  50.7286699  43.5558233
   4.2030393  50.9748996  44.3184542   3.4608325  51.5606734  43.1361370
   8.3242852  64.6345276  35.9324343   8.1767814  63.7061984  36.1131913
   9.1496345  64.6565367  35.4481418   2.1905096  53.2863343  31.7904835
   2.5301168  53.8149265  31.0683444   2.6377216  53.6243749  32.5663402
  11.9276973  65.4573835  37.0189216  12.8523521  65.2516696  36.8813667
  11.7592277  65.2090236  37.9278557   4.8848537  51.6700394  41.2407903
   4.5445357  50.8708207  41.6428583   4.1787543  51.9702105  40.6684736
   5.5365008  48.7549706  39.6935226   6.3591078  48.2810185  39.5714117
   5.7803072  49.5340190  40.1933913   4.1773243  51.7837965  29.9898128
   4.8981605  52.1619218  29.4861845   3.5538547  52.5026842  30.0933106
   8.3204366  52.4883114  30.9256460   8.5367980  53.3707752  30.6245288
   7.8398433  52.0969327  30.1962102   3.0603587  55.4468827  37.5027205
   2.9148168  55.7609130  38.3951486   2.5828791  56.0653727  36.9498104
   4.9199970  52.4371375  37.5508094   4.9061539  51.5412468  37.2140392
   5.6372398  52.4442039  38.1846380   6.7726101  52.8708715  39.5961222
   6.5143879  53.7925786  39.5945552   6.2411141  52.4739150  40.2861686
  11.7172290  65.9759502  32.3751307  11.8909167  65.4105925  31.6225160
  12.2101181  66.7760397  32.1930797   4.3236866  51.3185755  32.8195665
   4.4452777  50.3902402  33.0186552   4.0338908  51.3324441  31.9073980
   7.1928056  49.0040666  35.9562384   7.2149753  49.0679999  35.0014364
   7.6096115  48.1645174  36.1502891  17.5711681  58.7395925  33.9941607
  18.0142827  57.9903251  33.5960730  16.6938191  58.7306062  33.6115339
  12.7047462  65.2926267  29.4748206  13.3998367  65.9132960  29.6935520
  13.0470612  64.4421618  29.7500583  14.6038885  62.7425972  31.0035536
  15.1290209  63.0813245  30.2784856  14.5161238  61.8072988  30.8198671
   6.2879546  68.8097956  35.3630789   5.8484536  68.3174334  36.0563646
   7.0387663  68.2670923  35.1222865   3.7353418  64.3535965  37.4353091
   3.1133427  63.6906670  37.1355319   4.4058285  64.3797097  36.7526739
   3.8077946  52.8317753  47.0285597   3.8566101  53.7079876  46.6463367
   4.3500460  52.2895146  46.4557240  14.2932791  63.3758876  46.3086734
  13.5028335  63.3583015  45.7691234  14.0566146  63.9147170  47.0635771
  14.4130666  60.2251342  43.6219463  14.4628671  60.0601350  44.5634986
  14.3044590  59.3578601  43.2317344   3.2966925  62.9039888  30.9111552
   3.4455045  63.5875352  30.2578224   4.1033368  62.8844978  31.4261007
  11.7034429  56.2082270  44.9378769  12.6044291  56.0688735  44.6462767
  11.7782403  56.3736725  45.8776947   6.0377234  53.5849125  43.7831956
   5.1680543  53.8782691  43.5114544   6.2736714  54.1689570  44.5039219
  15.9148863  62.6448284  43.8661484  15.6233671  63.0078264  44.7024945
  15.3020994  61.9315292  43.6874816  17.1144545  60.2101164  36.3864055
  17.9491437  60.6490968  36.5501615  17.2503674  59.7339817  35.5672300
  14.1636051  57.7680899  42.3341542  14.6390173  57.9608545  41.5260394
  13.2401617  57.8240084  42.0884926   1.0519558  58.9305066  31.9172621
   0.8065600  58.0267396  32.1152831   1.2215472  58.9322216  30.9752099
   8.7416268  49.8028742  41.2997376   9.2598212  50.5389769  40.9743865
   8.3871401  50.1092735  42.1344135   8.9928862  46.2229025  36.8198273
   9.2730616  45.5552214  37.4458699   9.7779469  46.4158120  36.3072937
   6.7962331  65.3988019  28.3823299   6.2236298  66.0178206  27.9293771
   7.3695124  65.9487380  28.9163221  12.8637720  54.6446659  40.5669848
  13.8155143  54.7444756  40.5882072  12.6941171  53.8524927  41.0767932
  10.8852100  51.7302242  40.7529249  10.2902032  52.0107255  40.0575737
  10.6001797  52.2196143  41.5245990  10.0159590  65.6825169  29.5131881
  10.9490263  65.6170730  29.7164757   9.9282803  66.5181436  29.0546414
  12.6447607  64.9991039  26.4735829  12.5661238  64.6650903  27.3671587
  13.4657274  65.4912807  26.4727301  15.3425798  57.8652778  39.6812148
  15.3102118  56.9268779  39.8671831  15.9526422  57.9436815  38.9477972
   7.1809129  56.7348831  25.7239352   8.1268234  56.6055039  25.7927770
   6.8023374  55.9963493  26.2008780  15.4920287  54.6563822  39.7270431
  14.9759335  53.8722278  39.5400360  16.3760235  54.3282538  39.8916950
  19.2417645  57.0676648  39.4192636  18.5150809  56.9332613  38.8109127
  18.8264932  57.3753476  40.2249354   7.0647822  60.7866577  47.1840009
   7.9850831  60.9645176  47.3780055   7.0297405  59.8422623  47.0319708
   5.3652046  54.6598808  25.6594237   4.4583502  54.3631920  25.7356950
   5.6428027  54.3628626  24.7928523   6.9814112  49.2035697  31.8138478
   6.1714840  48.8582782  32.1893724   7.6698529  48.8943241  32.4026090
   8.9104660  48.2813744  33.4362775   9.4635699  48.7009198  34.0952798
   9.1474747  47.3549492  33.4785731   4.9337759  54.2700818  49.2165539
   4.8334486  55.2195175  49.1477630   4.7159301  53.9419057  48.3441609
   4.1350831  51.5185743  25.8006216   4.9969995  51.8440641  26.0602033
   4.3201175  50.7317239  25.2879282  12.2883467  50.3914269  32.9441439
  11.7082136  51.0499073  32.5619491  12.0219400  49.5691614  32.5328857
  10.7387034  49.7919327  35.1462759  11.2386812  49.9035862  34.3377078
  11.3822642  49.4880380  35.7863568   4.7969029  57.6997957  48.0330600
   4.3136111  58.4998317  48.2394489   4.8829968  57.7105902  47.0798044
   0.7242367  61.5902491  40.0699034   1.6785620  61.5586434  40.0028966
   0.5254891  61.1293115  40.8849260   1.3141749  60.1603607  42.6369832
   2.1334638  60.6547686  42.6604669   1.5878557  59.2435576  42.6087399
  11.0708345  52.5514360  31.9997787  10.1834200  52.8364010  31.7817982
  11.4862334  52.3908123  31.1525064  10.2151559  62.3159034  26.0945807
  10.9187409  62.5209037  26.7103463   9.4914208  62.8835796  26.3594891
  11.0449369  58.0668896  32.2148077  10.9884570  58.5237447  31.3755710
  11.5977711  57.3059580  32.0370920  14.8554175  53.8558628  33.0398197
  14.5991109  53.4555263  33.8706405  14.2307043  54.5702421  32.9148336
   2.2361722  68.0291428  37.2987675   2.1194106  68.9736860  37.1966365
   1.4154168  67.7264989  37.6873474  12.1238256  62.7541564  28.1444267
  12.9583860  62.3222762  27.9621742  11.9622599  62.5823577  29.0721162
  11.7784148  59.2573677  29.5100607  11.7232952  59.0917948  28.5689051
  11.1530204  59.9649710  29.6662796   9.0930056  61.5622589  48.8354169
   9.9621215  61.7363241  48.4740804   8.6136807  62.3817006  48.7129899
   5.0880274  48.7581786  29.0885925   5.0758944  49.7023626  29.2454196
   5.9803696  48.5751931  28.7945386   3.2616236  68.6819690  40.5143603
   4.1643482  68.7143300  40.8310098   3.0353606  67.7520141  40.5289939
   5.0169838  67.4350676  37.1753682   4.0665469  67.4352538  37.0618054
   5.3202324  66.6883411  36.6589716   8.9032393  45.3524563  33.3431862
   8.1364789  44.7983049  33.4888544   9.3143098  45.4246431  34.2046013
  20.7522531  73.2711215  38.2399444  21.3900941  73.1517962  37.5362784
  20.6343374  74.2192059  38.2987396  17.5612238  73.2238643  38.1760969
  17.2230749  73.1079708  37.2881504  18.4302006  72.8229808  38.1561975
  13.4199053  75.0774119  34.1657860  12.8563918  74.9864056  33.3974147
  13.3051448  74.2574024  34.6460352  18.0432021  74.3773495  44.1347174
  18.0320661  73.9826293  43.2627678  18.2052660  73.6439567  44.7280946
  10.9663485  76.5725311  37.0042080  11.7584777  76.2316135  36.5888379
  11.2060135  76.6820286  37.9244233  18.9998612  78.7445087  29.4772325
  18.3486592  79.3299167  29.0906338  19.7942975  79.2751282  29.5367362
  12.9254239  75.8334224  29.8759459  13.6985115  75.2863211  29.7372335
  13.2779638  76.6978473  30.0873920  14.7639282  77.1610606  43.0826358
  14.4729148  78.0656237  42.9673025  15.3996266  77.2027134  43.7970428
  15.6895489  74.5387455  39.6727718  16.2859061  74.3143477  38.9584681
  15.7470460  73.7972200  40.2753166  15.2620517  71.9926890  27.5077909
  15.5146038  71.4708411  26.7461372  14.3245076  71.8293036  27.6104592
  20.3063800  70.9962669  35.3152652  21.0926889  70.5782092  34.9643069
  20.5702504  71.9008761  35.4834301  20.4773877  76.4335519  30.0141309
  19.8419710  76.5070145  30.7262214  20.1471283  77.0229118  29.3360388
  25.7072227  70.9337902  36.2185631  26.4397399  70.3637119  36.4523460
  24.9511583  70.5459502  36.6592136  14.9816806  73.8954996  29.7102284
  14.8653064  73.2199900  30.3783368  15.0919066  73.4087370  28.8934437
  17.3248347  73.3565143  33.4148973  16.9606554  72.8295764  34.1261895
  18.1815462  72.9663612  33.2415458  23.2297647  64.6459476  40.6780239
  22.8980972  65.5154887  40.4541454  22.6343261  64.3295760  41.3574270
  16.9653834  68.3855043  28.4110322  17.1328236  69.2535279  28.7780793
  16.7751003  68.5482325  27.4871611  19.7229167  76.8472022  40.0776152
  19.4229890  77.7497061  39.9691959  19.3780226  76.5804205  40.9297305
  13.1741648  73.2985819  36.1112856  12.2492145  73.1662033  36.3190548
  13.4226061  74.0780038  36.6082799  23.1226311  69.3654562  37.7573589
  22.2143188  69.2969970  37.4632350  23.0713906  69.8426507  38.5855415
  16.9443054  70.8412700  29.3956988  16.8242680  71.2869751  30.2342469
  16.2495643  71.1898018  28.8370527  10.5350459  72.9419092  36.9456645
  10.6642840  73.1953571  37.8596057   9.8547911  73.5346800  36.6261301
  14.7049947  83.6116342  33.0447120  14.6273976  84.5624167  33.1235600
  14.1011590  83.2662215  33.7022046  17.1967176  70.7844208  45.7008487
  16.4200510  71.3438128  45.6911351  17.8357739  71.2700991  46.2223357
  24.9887957  67.5671000  39.5351463  24.3462337  67.8603534  38.8891258
  24.4842885  67.4523921  40.3404660  22.6428121  71.3134174  30.2237322
  23.5545977  71.5461560  30.0485020  22.1337768  71.8971218  29.6612401
  15.4513549  73.5929661  45.2626454  16.1928233  74.1314705  44.9861277
  14.7450534  74.2195950  45.4198005  20.9268888  75.7358801  43.8598615
  21.3352244  75.2941212  43.1153247  20.2046150  75.1611429  44.1132808
  17.2799958  70.6731408  41.2332172  18.1261154  71.0970822  41.3766821
  17.2198596  70.0165033  41.9270735  21.2497703  76.2959992  37.6150904
  20.6206565  76.4605706  36.9126972  20.8623365  76.7101602  38.3861868
  25.1286935  77.2314430  34.9695268  24.4437973  77.6113331  34.4192301
  25.2130784  77.8409757  35.7027215  20.4299404  68.3335777  42.8913346
  20.1860336  69.0877837  42.3547621  20.7059334  68.7121124  43.7260593
  22.3837866  74.8774389  41.5690611  22.5954762  75.5206149  40.8924992
  22.3367615  74.0436706  41.1012541  19.9864095  67.4892210  38.4727183
  19.1248574  67.7873463  38.7643921  20.0126530  67.7062609  37.5408216
  16.8025665  76.0334400  34.8800989  17.2664010  76.3122103  34.0905612
  16.5382463  75.1317845  34.6974080  13.6949746  75.5805882  37.8180752
  14.2651103  76.0093150  37.1798237  14.2857858  75.2988466  38.5164938
  15.7394551  72.1557553  31.6890554  16.4418594  72.6078596  32.1564481
  15.4075179  71.5141371  32.3170447  14.1874912  70.7469309  46.0641764
  13.5573573  71.4285590  46.2977160  14.0811000  70.6352391  45.1194902
   9.4819885  70.4141105  36.9907688   8.6918939  70.6698634  36.5147798
   9.9731132  71.2289443  37.0959728  23.4983694  77.7546344  39.7412969
  24.3201138  77.3526532  39.4595650  23.4946097  77.6514579  40.6929084
  11.4334630  70.7785684  33.9491164  10.6365793  70.8904379  34.4674660
  11.2060222  71.1172337  33.0832055  17.2640298  77.3030388  41.8973679
  17.3284730  77.7650795  42.7331851  16.5551222  76.6727753  42.0255989
   7.7657588  70.6671596  39.4222679   8.0165626  71.5518606  39.6880254
   8.3017136  70.4876197  38.6497770  31.5889687  74.0985093  36.0897940
  30.8353396  73.5292491  35.9341944  31.7237229  74.0647757  37.0368575
  16.9788315  78.9698495  31.7652659  16.8433990  79.8150031  32.1937507
  17.5198128  79.1717773  31.0018593  13.4655655  65.0490075  48.4267015
  13.0722601  64.4956274  49.1014659  14.2821795  65.3600654  48.8173532
  10.4317713  76.4873933  32.3380584  10.9442233  77.2817183  32.4886149
  11.0840426  75.7900224  32.2714186  12.2412598  79.6039690  34.4203338
  12.4179226  80.5257654  34.2324322  13.0369431  79.2898109  34.8497717
  16.3823616  66.4647954  46.0187271  17.1233329  67.0655107  45.9391734
  16.6141539  65.7225592  45.4605314  11.5264954  71.6504321  44.2965501
  11.4118469  70.7489579  44.5972600  10.6709472  71.8968018  43.9450317
  18.6056792  79.5922062  45.8953001  18.1620646  78.8058440  45.5773906
  19.2674005  79.7801212  45.2296892  13.3643913  81.1217863  40.4213680
  13.9151338  80.9934927  39.6490674  12.5255389  81.4212752  40.0708573
  20.7038030  79.8724862  43.9234403  20.6856505  80.6933743  43.4314672
  21.6257950  79.7478937  44.1484544  17.1611084  77.3868991  44.7657911
  17.6939421  76.6257279  44.5357219  16.6325165  77.0942643  45.5082066
  20.3280779  62.4929057  40.2951553  19.9845048  63.3830699  40.2190663
  20.6959742  62.3030715  39.4321138   8.3966630  74.8162588  33.1140155
   9.2341852  75.2259596  32.8973863   8.5744897  73.8762030  33.0840349
  20.2931062  72.4837668  28.8023988  19.7777685  73.2542273  29.0412375
  20.0208370  71.8102804  29.4257049  17.8778173  67.3287369  33.8609226
  17.0219769  66.9394219  33.6814865  18.2905125  67.4079330  33.0009012
  19.4077319  64.8633712  38.2600786  18.9042115  64.8263847  37.4468591
  19.7007926  65.7726455  38.3197443  15.6520205  64.9472442  37.2666968
  16.5173202  64.7515251  36.9072857  15.7197714  64.7182794  38.1936325
  25.2665336  75.2370023  30.7377161  24.4894779  74.8981182  30.2932324
  25.9456817  75.2422646  30.0632126  20.0817365  70.3564760  30.6283769
  19.7767500  70.6710909  31.4793912  21.0347807  70.4346180  30.6711102
  18.5263797  76.5154984  32.2776723  17.9985158  75.7807743  31.9649961
  18.0251299  77.2929660  32.0316691  23.5056643  74.7104004  37.3943769
  22.8480317  75.4003265  37.4823898  24.3097042  75.1000436  37.7377756
  13.2582524  67.1774650  34.6383335  13.8326276  66.9549831  33.9056528
  13.8453507  67.2463344  35.3911936  22.3162102  73.0648377  35.4447711
  22.8293983  73.6978369  35.9469421  22.9663325  72.4649572  35.0791071
  13.5852111  69.2079111  28.6579220  12.7489424  69.5453797  28.9788495
  13.4456881  69.0728091  27.7206357  15.5605192  64.0515899  33.3658404
  14.9069604  63.7364916  32.7415019  15.5185666  63.4291639  34.0918227
  16.6716397  74.3335194  25.2811696  15.7643459  74.1024447  25.4802845
  17.1687429  73.5372813  25.4685678  19.5784476  83.0432701  28.2008382
  18.9046175  83.3464398  28.8093340  19.9650298  83.8461781  27.8513839
  18.7942932  70.5397832  37.6906052  17.8765494  70.7612779  37.5327740
  19.2103076  70.6144143  36.8317759  19.5777980  71.9389248  32.8208732
  20.3249799  72.4510645  32.5115854  19.8469570  71.6173301  33.6813126
  17.8504630  74.4347789  29.8035686  16.9415850  74.1506822  29.9008156
  17.8799714  74.8546867  28.9438993  23.0823898  78.0454378  33.5726854
  22.6286225  77.2045288  33.6292044  22.4517865  78.6815777  33.9101634
  22.0256817  68.9746364  34.8027521  21.2879574  68.4623750  35.1337764
  22.2783591  68.5346746  33.9910798  21.5256837  79.8830875  34.5076672
  21.8179811  80.4435932  33.7889038  22.0355458  80.1759436  35.2629831
  22.1268445  61.7522616  35.3969291  22.4327321  60.8919980  35.1095206
  22.8521049  62.3440236  35.1968284   8.4192801  72.1553303  33.7850888
   8.2217201  71.5622664  33.0601955   7.8639465  71.8505513  34.5026827
  16.3989524  72.0476409  35.9045482  16.4538134  71.0950246  35.8287958
  15.5880726  72.2035848  36.3886780  17.5480718  75.9756532  27.1423765
  17.1100148  75.2592391  26.6829402  18.2891159  76.2032647  26.5808856
  14.3381884  70.6653469  33.6635860  13.5249750  70.9647640  34.0701053
  14.8340879  70.2709158  34.3810343  16.4890462  80.6611226  35.5970125
  16.4466641  80.8872072  34.6678657  17.4053161  80.4274601  35.7455926
  19.9356096  71.1295294  42.4950754  20.2905484  71.3566767  43.3545220
  20.5828227  71.4613670  41.8728010  25.6653833  74.2513729  33.2000083
  25.5271732  74.4415325  32.2721273  25.3090052  75.0133112  33.6568135
  13.8295959  68.2371825  39.2797095  14.4695338  68.0960584  38.5820059
  12.9973490  67.9506338  38.9035697  25.6923213  76.3190256  38.2111355
  26.1259719  76.2265546  39.0594409  26.4054793  76.2947757  37.5731371
  14.6056263  77.5374255  35.3932088  15.3996861  77.0424575  35.1914663
  13.8947955  77.0092118  35.0299793  19.4251107  79.9192351  39.7444455
  19.4788130  80.4883287  40.5122171  18.5565889  80.0894236  39.3798493
  10.9139026  71.6817337  31.4691841   9.9836615  71.6201792  31.6861803
  11.0096498  71.1593290  30.6728482  10.8324576  68.2072150  34.0570082
  11.0931393  69.1217483  33.9479243  11.6541748  67.7396592  34.2066695
  12.3049501  69.6209907  41.2268907  12.9772554  69.4127269  40.5781556
  11.4779287  69.4231993  40.7874139  26.5538762  76.3613957  40.7444240
  26.7474652  77.2659768  40.9903515  26.4539380  75.9021376  41.5782825
  18.2075073  66.2471848  43.2434568  17.5602988  66.9461797  43.1499044
  18.9776088  66.6807992  43.6110816  21.6153871  76.5120700  46.3185121
  21.4639377  76.2831252  45.4015205  21.6058550  77.4691301  46.3316466
  18.3839207  74.0852613  41.3031387  19.3131267  74.2363772  41.1300355
  17.9630237  74.1736633  40.4480034  17.1827539  78.1103277  39.0729925
  17.0438625  77.7422061  39.9455863  16.3942135  78.6250916  38.9013883
  17.7775691  83.2112373  30.4155461  17.9527447  82.7400417  31.2301084
  17.0908479  83.8378140  30.6436722  18.7332754  77.4884880  36.4618763
  18.3982587  77.4485650  37.3576413  18.2336700  76.8229596  35.9889173
  12.7076998  72.8952510  41.9871344  12.5696796  72.1632749  42.5882883
  13.6181922  72.8061410  41.7055532  21.6691946  74.8340914  26.7355822
  21.0521116  74.1087742  26.6388875  21.2008434  75.5950274  26.3922897
  15.3359299  72.6072469  41.4755024  16.0458917  71.9665661  41.4341642
  15.2928607  72.8585364  42.3981204  23.3246077  79.5439822  44.3961603
  23.2658624  78.8599043  43.7292186  23.7265596  80.2858812  43.9442229
  14.0488233  69.5937687  43.2950663  13.5125590  69.1428425  43.9472259
  13.4604941  69.7283596  42.5521127  12.3436776  86.3601736  37.1895322
  12.5833374  86.9920260  37.8674340  11.5005973  86.0089776  37.4760681
  13.4590492  69.0526338  25.8577127  12.5819958  68.9315139  25.4939373
  13.9348245  68.2612417  25.6056015  23.3263485  77.5079406  42.6275582
  22.4390263  77.1705328  42.7501981  23.8962036  76.7762438  42.8644348
   4.9792632  73.8403498  35.9518634   5.6663672  73.5265228  35.3639649
   4.8240761  74.7444863  35.6785885   9.7827354  68.7293695  40.3803658
   9.6985543  68.1219364  39.6454067   8.9610060  69.2202713  40.3813154
  16.8564638  82.1680859  39.5936826  16.7834810  82.9735830  40.1056130
  16.4142031  82.3672824  38.7684847  16.6454418  81.4052629  33.1039647
  15.8621940  81.9474309  33.1977872  17.3447163  81.9226608  33.5033888
  19.9551068  67.2147258  35.7473853  20.4519767  66.4617220  35.4274923
  19.1838049  67.2511575  35.1817062  27.8080825  72.9187624  37.3892144
  27.7970702  73.8012339  37.0186077  26.9398205  72.5659175  37.1946681
  19.3163322  82.0667693  41.7494984  20.0291294  82.7015158  41.6770886
  18.8253350  82.1631559  40.9334986  21.0380849  75.9718945  33.3212276
  20.1037127  76.0920408  33.1516980  21.2157517  75.0691412  33.0572286
  16.5386037  69.3564641  35.4745537  16.1683824  68.8035682  36.1626443
  17.0345129  68.7522775  34.9220537  24.4253400  71.8136265  33.8562310
  24.8913852  72.6464256  33.7822613  24.8760900  71.3481246  34.5607569
  14.3675235  79.8162136  42.5700555  15.0684695  80.4498619  42.7229949
  13.8970350  80.1576868  41.8096194  22.4929631  78.1580086  30.8548462
  22.7689475  78.0436681  31.7642336  21.6234130  77.7597571  30.8160635
  22.3970063  64.1816852  37.8953211  21.4833142  64.4121078  38.0635418
  22.8263164  64.2655296  38.7467244  22.1676521  72.3706744  40.3953105
  21.5147971  72.6182651  39.7405558  22.5456901  71.5570882  40.0615583
  19.1283695  82.4066437  34.4981276  19.3106090  81.5888093  34.9609028
  19.9516681  82.6234129  34.0606166  19.4625861  81.3334622  31.7596324
  19.9913627  80.8227077  31.1466486  19.7254080  81.0177152  32.6241857
  18.2164094  73.1126555  46.8819143  17.5404731  73.0120684  47.5521518
  19.0391728  72.9565768  47.3455140   9.9642953  79.3498491  39.5031658
  10.5496390  78.6042179  39.6359562   9.7667792  79.6602448  40.3868322
  12.8181608  82.3849739  34.5194100  12.1491984  82.8695866  34.0358140
  12.6794478  82.6318959  35.4337479   4.5560608  71.9204091  38.2236101
   4.5944707  71.3867682  39.0173219   4.0500901  71.3939297  37.6047078
  16.9586877  84.4193482  41.1176759  17.5105185  84.5825104  41.8825844
  17.2993070  85.0097920  40.4456783  11.9351370  66.7668632  41.7198643
  11.9992697  67.6283463  41.3076041  11.8718491  66.1542634  40.9871002
  11.4103643  68.8391764  45.3671678  12.0375682  68.4568842  45.9809202
  10.5531562  68.6205966  45.7327370  21.8097751  79.2454740  46.9725413
  22.3537655  79.8584698  46.4780368  21.2284596  79.8034318  47.4892426
   8.1869186  70.6468194  31.2990032   8.4822627  69.7378872  31.2457086
   7.2857221  70.6255933  30.9771035  20.0955264  82.3675458  38.1040441
  19.9706404  81.5665197  37.5951386  20.7534355  82.8621651  37.6154411
  11.7163433  68.7224190  37.2817581  10.9950018  69.3360158  37.1425054
  12.5056688  69.2581955  37.2034227  22.1590173  80.1684478  39.7319991
  21.2120508  80.0489829  39.6598318  22.5072946  79.2806976  39.8146252
  14.5189746  66.0578617  43.5558233  15.0424148  66.3040913  44.3184542
  14.3002079  66.8898651  43.1361370   9.9157027  68.3282291  31.4229358
   9.5869733  67.4479670  31.2404463  10.2696398  68.2729960  32.3105747
  19.1636606  79.9637194  35.9324343  19.0161568  79.0353901  36.1131913
  19.9890100  79.9857285  35.4481418  13.0298850  68.6155261  31.7904835
  13.3694923  69.1441182  31.0683444  13.4770971  68.9535667  32.5663402
  22.7670728  80.7865753  37.0189216  23.6917275  80.5808614  36.8813667
  22.5986031  80.5382154  37.9278557  15.7242291  66.9992312  41.2407903
  15.3839111  66.2000125  41.6428583  15.0181297  67.2994023  40.6684736
  16.3758763  64.0841624  39.6935226  17.1984832  63.6102102  39.5714117
  16.6196826  64.8632108  40.1933913  15.0166997  67.1129883  29.9898128
  15.7375360  67.4911135  29.4861845  14.3932302  67.8318759  30.0933106
  19.1598120  67.8175032  30.9256460  19.3761735  68.6999669  30.6245288
  18.6792187  67.4261245  30.1962102  13.8997342  70.7760745  37.5027205
  13.7541922  71.0901048  38.3951486  13.4222545  71.3945645  36.9498104
  15.7593725  67.7663293  37.5508094  15.7455293  66.8704386  37.2140392
  16.4766153  67.7733957  38.1846380  17.6119855  68.2000633  39.5961222
  17.3537633  69.1217704  39.5945552  17.0804896  67.8031068  40.2861686
  22.5566044  81.3051420  32.3751307  22.7302922  80.7397843  31.6225160
  23.0494935  82.1052315  32.1930797   8.3743004  73.3166089  40.4414866
   7.8296472  74.0925897  40.5735140   9.2522354  73.6636894  40.2833987
  15.1630621  66.6477673  32.8195665  15.2846532  65.7194319  33.0186552
  14.8732663  66.6616359  31.9073980  18.0321811  64.3332584  35.9562384
  18.0543508  64.3971917  35.0014364  18.4489870  63.4937092  36.1502891
  28.4105435  74.0687843  33.9941607  28.8536581  73.3195168  33.5960730
  27.5331946  74.0597979  33.6115339  23.5441217  80.6218185  29.4748206
  24.2392121  81.2424877  29.6935520  23.8864367  79.7713536  29.7500583
   9.1609026  72.4435985  43.3345023   8.4190762  72.5918621  43.9209653
   8.8401770  72.7044251  42.4711772  25.4432640  78.0717890  31.0035536
  25.9683964  78.4105163  30.2784856  25.3554992  77.1364905  30.8198671
  17.1052688  81.9851964  43.1325413  17.4139815  81.7401110  44.0048113
  17.9028170  82.1898602  42.6444283  17.1273300  84.1389873  35.3630789
  16.6878291  83.6466252  36.0563646  17.8781417  83.5962841  35.1222865
   9.6065639  80.3301414  35.3655418  10.4323659  80.0305186  34.9854061
   9.2559691  79.5609037  35.8145206  14.5747173  79.6827882  37.4353091
  13.9527182  79.0198587  37.1355319  15.2452039  79.7089014  36.7526739
   7.8074244  78.2487741  36.3244351   6.9706153  77.8209915  36.1428352
   7.7797890  78.4420184  37.2615142  14.6471700  68.1609670  47.0285597
  14.6959856  69.0371793  46.6463367  15.1894214  67.6187064  46.4557240
  25.1326546  78.7050794  46.3086734  24.3422089  78.6874933  45.7691234
  24.8959900  79.2439087  47.0635771  25.2524421  75.5543260  43.6219463
  25.3022426  75.3893268  44.5634986  25.1438344  74.6870519  43.2317344
  14.1360679  78.2331806  30.9111552  14.2848800  78.9167270  30.2578224
  14.9427123  78.2136896  31.4261007  22.5428183  71.5374188  44.9378769
  23.4438046  71.3980653  44.6462767  22.6176158  71.7028643  45.8776947
  16.8770988  68.9141043  43.7831956  16.0074298  69.2074609  43.5114544
  17.1130469  69.4981488  44.5039219  26.7542618  77.9740202  43.8661484
  26.4627426  78.3370182  44.7024945  26.1414749  77.2607210  43.6874816
  27.9538300  75.5393081  36.3864055  28.7885191  75.9782885  36.5501615
  28.0897429  75.0631735  35.5672300  25.0029806  73.0972816  42.3341542
  25.4783927  73.2900463  41.5260394  24.0795371  73.1532002  42.0884926
  11.8913312  74.2596983  31.9172621  11.6459354  73.3559313  32.1152831
  12.0609227  74.2614134  30.9752099  19.5810022  65.1320660  41.2997376
  20.0991966  65.8681687  40.9743865  19.2265155  65.4384653  42.1344135
  11.1608960  69.9925341  29.4158782  10.4678205  70.0669696  28.7598818
  10.9160712  69.2285685  29.9380299  19.8322616  61.5520942  36.8198273
  20.1124370  60.8844131  37.4458699  20.6173223  61.7450038  36.3072937
  17.6356085  80.7279936  28.3823299  17.0630052  81.3470123  27.9293771
  18.2088879  81.2779298  28.9163221  23.7031475  69.9738576  40.5669848
  24.6548898  70.0736674  40.5882072  23.5334925  69.1816845  41.0767932
  21.7245854  67.0594160  40.7529249  21.1295786  67.3399172  40.0575737
  21.4395551  67.5488060  41.5245990  20.8553345  81.0117086  29.5131881
  21.7884018  80.9462648  29.7164757  20.7676558  81.8473353  29.0546414
  23.4841361  80.3282957  26.4735829  23.4054993  79.9942820  27.3671587
  24.3051028  80.8204725  26.4727301  26.1819553  73.1944696  39.6812148
  26.1495873  72.2560697  39.8671831  26.7920176  73.2728733  38.9477972
  18.0202883  72.0640749  25.7239352  18.9661988  71.9346957  25.7927770
  17.6417128  71.3255411  26.2008780  26.3314041  69.9855739  39.7270431
  25.8153090  69.2014196  39.5400360  27.2153990  69.6574456  39.8916950
  31.9996102  74.2560703  38.8218184  32.7299491  73.9945991  39.3825888
  31.3903048  73.5189425  38.8620252  17.9041576  76.1158495  47.1840009
  18.8244585  76.2937094  47.3780055  17.8691159  75.1714540  47.0319708
  16.2045801  69.9890725  25.6594237  15.2977256  69.6923838  25.7356950
  16.4821782  69.6920543  24.7928523   7.1223741  71.3097089  36.1093283
   6.8026525  70.4562397  35.8167657   6.5757169  71.5245667  36.8651251
  10.9003649  74.0259530  39.8262790  11.1189658  74.9576638  39.8450824
  11.3129422  73.6667504  40.6117594  17.8207866  64.5327615  31.8138478
  17.0108595  64.1874700  32.1893724  18.5092283  64.2235159  32.4026090
  19.7498415  63.6105662  33.4362775  20.3029453  64.0301115  34.0952798
  19.9868501  62.6841410  33.4785731  15.7731514  69.5992736  49.2165539
  15.6728241  70.5487092  49.1477630  15.5553056  69.2710974  48.3441609
  14.9744585  66.8477661  25.8006216  15.8363749  67.1732559  26.0602033
  15.1594929  66.0609156  25.2879282   6.9912001  74.9300000  38.0786405
   6.2975472  74.5153953  37.5656359   7.7384992  74.9720537  37.4819824
  23.1277222  65.7206187  32.9441439  22.5475891  66.3790991  32.5619491
  22.8613154  64.8983532  32.5328857  21.5780788  65.1211245  35.1462759
  22.0780566  65.2327779  34.3377078  22.2216396  64.8172298  35.7863568
  15.6362784  73.0289874  48.0330600  15.1529866  73.8290234  48.2394489
  15.7223723  73.0397819  47.0798044   8.9048744  74.8618254  35.9552420
   8.8819432  74.9605941  35.0034303   9.2149380  75.7083405  36.2769586
  11.5636121  76.9194409  40.0699034  12.5179375  76.8878351  40.0028966
  11.3648645  76.4585033  40.8849260  12.1535504  75.4895525  42.6369832
  12.9728393  75.9839604  42.6604669  12.4272311  74.5727493  42.6087399
  21.9102100  67.8806277  31.9997787  21.0227955  68.1655928  31.7817982
  22.3256089  67.7200041  31.1525064  25.2616636  67.9052798  35.7152127
  26.0377026  68.3949251  35.9876743  24.5364770  68.3310853  36.1723996
  27.6989195  68.6180418  36.7726067  28.2933685  68.3776154  36.0619375
  27.7715778  67.8987548  37.3999603   9.9186350  82.4614029  37.0869232
   9.7840818  81.7014429  36.5207230   9.5018412  83.1854928  36.6198021
  21.0545313  77.6450952  26.0945807  21.7581163  77.8500955  26.7103463
  20.3307962  78.2127714  26.3594891  21.8843124  73.3960813  32.2148077
  21.8278325  73.8529365  31.3755710  22.4371466  72.6351498  32.0370920
  25.6947929  69.1850545  33.0398197  25.4384864  68.7847181  33.8706405
  25.0700797  69.8994339  32.9148336  30.0060267  71.9246618  35.5469488
  29.4459825  71.9939808  36.3201050  29.4003771  71.7487603  34.8268985
  13.0755476  83.3583346  37.2987675  12.9587860  84.3028778  37.1966365
  12.2547922  83.0556907  37.6873474  22.9632011  78.0833481  28.1444267
  23.7977615  77.6514680  27.9621742  22.8016354  77.9115495  29.0721162
  22.6177903  74.5865595  29.5100607  22.5626707  74.4209866  28.5689051
  21.9923958  75.2941628  29.6662796   7.4070418  69.8233659  43.3362029
   8.0529281  69.3132613  43.8249254   7.1987569  70.5602341  43.9105454
  19.9323810  76.8914506  48.8354169  20.8014970  77.0655159  48.4740804
  19.4530561  77.7108923  48.7129899  15.9274028  64.0873704  29.0885925
  15.9152698  65.0315544  29.2454196  16.8197450  63.9043849  28.7945386
  14.1009990  84.0111607  40.5143603  15.0037237  84.0435218  40.8310098
  13.8747360  83.0812058  40.5289939  15.8563592  82.7642594  37.1753682
  14.9059223  82.7644456  37.0618054  16.1596078  82.0175329  36.6589716
  19.7426148  60.6816480  33.3431862  18.9758544  60.1274967  33.4888544
  20.1536853  60.7538349  34.2046013  11.7467909  66.9701276  47.4337043
  12.6099370  66.6138081  47.6440368  11.1733319  66.6315171  48.1212447
  31.5916286  88.6003132  38.2399444  32.2294696  88.4809880  37.5362784
  31.4737129  89.5483976  38.2987396  28.4005992  88.5530561  38.1760969
  28.0624504  88.4371625  37.2881504  29.2695760  88.1521726  38.1561975
  24.2592808  90.4066037  34.1657860  23.6957673  90.3155974  33.3974147
  24.1445203  89.5865941  34.6460352  28.8825775  89.7065412  44.1347174
  28.8714416  89.3118211  43.2627678  29.0446414  88.9731485  44.7280946
  21.8057240  91.9017229  37.0042080  22.5978532  91.5608053  36.5888379
  22.0453890  92.0112204  37.9244233  29.8392366  94.0737005  29.4772325
  29.1880346  94.6591085  29.0906338  30.6336729  94.6043200  29.5367362
  23.7647994  91.1626142  29.8759459  24.5378870  90.6155129  29.7372335
  24.1173392  92.0270391  30.0873920  25.6033036  92.4902524  43.0826358
  25.3122902  93.3948155  42.9673025  26.2390020  92.5319052  43.7970428
  26.5289243  89.8679373  39.6727718  27.1252815  89.6435395  38.9584681
  26.5864215  89.1264118  40.2753166  26.1014271  87.3218808  27.5077909
  26.3539792  86.8000329  26.7461372  25.1638830  87.1584953  27.6104592
  31.1457554  86.3254586  35.3152652  31.9320643  85.9074009  34.9643069
  31.4096259  87.2300678  35.4834301  31.3167632  91.7627437  30.0141309
  30.6813465  91.8362063  30.7262214  30.9865038  92.3521035  29.3360388
  36.5465981  86.2629819  36.2185631  37.2791153  85.6929036  36.4523460
  35.7905337  85.8751420  36.6592136  25.8210560  89.2246914  29.7102284
  25.7046818  88.5491817  30.3783368  25.9312820  88.7379288  28.8934437
  28.1642101  88.6857061  33.4148973  27.8000308  88.1587682  34.1261895
  29.0209217  88.2955530  33.2415458  34.0691402  79.9751394  40.6780239
  33.7374726  80.8446805  40.4541454  33.4737015  79.6587678  41.3574270
  27.8047588  83.7146961  28.4110322  27.9721990  84.5827197  28.7780793
  27.6144757  83.8774242  27.4871611  30.5622921  92.1763940  40.0776152
  30.2623644  93.0788978  39.9691959  30.2173981  91.9096123  40.9297305
  24.0135403  88.6277736  36.1112856  23.0885899  88.4953951  36.3190548
  24.2619816  89.4071956  36.6082799  33.9620065  84.6946480  37.7573589
  33.0536942  84.6261888  37.4632350  33.9107661  85.1718425  38.5855415
  27.7836809  86.1704618  29.3956988  27.6636434  86.6161669  30.2342469
  27.0889397  86.5189936  28.8370527  21.3744214  88.2711010  36.9456645
  21.5036595  88.5245489  37.8596057  20.6941665  88.8638718  36.6261301
  28.0360931  86.1136125  45.7008487  27.2594265  86.6730045  45.6911351
  28.6751494  86.5992908  46.2223357  35.8281711  82.8962918  39.5351463
  35.1856092  83.1895451  38.8891258  35.3236640  82.7815838  40.3404660
  33.4821875  86.6426091  30.2237322  34.3939731  86.8753478  30.0485020
  32.9731522  87.2263136  29.6612401  26.2907303  88.9221579  45.2626454
  27.0321987  89.4606623  44.9861277  25.5844289  89.5487867  45.4198005
  31.7662643  91.0650719  43.8598615  32.1745999  90.6233130  43.1153247
  31.0439904  90.4903347  44.1132808  28.1193713  86.0023326  41.2332172
  28.9654908  86.4262739  41.3766821  28.0592350  85.3456950  41.9270735
  32.0891457  91.6251910  37.6150904  31.4600320  91.7897624  36.9126972
  31.7017119  92.0393519  38.3861868  35.9680689  92.5606348  34.9695268
  35.2831727  92.9405249  34.4192301  36.0524539  93.1701674  35.7027215
  31.2693158  83.6627694  42.8913346  31.0254090  84.4169755  42.3547621
  31.5453089  84.0413042  43.7260593  33.2231621  90.2066307  41.5690611
  33.4348516  90.8498067  40.8924992  33.1761369  89.3728623  41.1012541
  30.8257850  82.8184127  38.4727183  29.9642329  83.1165381  38.7643921
  30.8520285  83.0354526  37.5408216  27.6419419  91.3626318  34.8800989
  28.1057765  91.6414021  34.0905612  27.3776217  90.4609762  34.6974080
  24.5343500  90.9097799  37.8180752  25.1044857  91.3385068  37.1798237
  25.1251612  90.6280384  38.5164938  26.5788305  87.4849470  31.6890554
  27.2812349  87.9370514  32.1564481  26.2468934  86.8433289  32.3170447
  25.0268667  86.0761227  46.0641764  24.3967327  86.7577508  46.2977160
  24.9204755  85.9644308  45.1194902  20.3213639  85.7433023  36.9907688
  19.5312693  85.9990551  36.5147798  20.8124887  86.5581361  37.0959728
  34.3377449  93.0838262  39.7412969  35.1594893  92.6818449  39.4595650
  34.3339852  92.9806496  40.6929084  22.2728385  86.1077602  33.9491164
  21.4759548  86.2196296  34.4674660  22.0453977  86.4464254  33.0832055
  28.1034052  92.6322305  41.8973679  28.1678485  93.0942713  42.7331851
  27.3944976  92.0019670  42.0255989  18.6051342  85.9963513  39.4222679
  18.8559381  86.8810523  39.6880254  19.1410891  85.8168115  38.6497770
  42.4283442  89.4277011  36.0897940  41.6747150  88.8584409  35.9341944
  42.5630983  89.3939675  37.0368575  27.8182070  94.2990413  31.7652659
  27.6827745  95.1441949  32.1937507  28.3591882  94.5009691  31.0018593
  24.3049410  80.3781993  48.4267015  23.9116355  79.8248191  49.1014659
  25.1215550  80.6892571  48.8173532  21.2711467  91.8165851  32.3380584
  21.7835988  92.6109101  32.4886149  21.9234180  91.1192141  32.2714186
  27.2217371  81.7939872  46.0187271  27.9627084  82.3947025  45.9391734
  27.4535293  81.0517510  45.4605314  22.3658709  86.9796239  44.2965501
  22.2512224  86.0781496  44.5972600  21.5103226  87.2259936  43.9450317
  29.4450546  94.9213979  45.8953001  29.0014401  94.1350358  45.5773906
  30.1067760  95.1093130  45.2296892  31.5431784  95.2016779  43.9234403
  31.5250260  96.0225660  43.4314672  32.4651704  95.0770855  44.1484544
  28.0004839  92.7160909  44.7657911  28.5333175  91.9549197  44.5357219
  27.4718920  92.4234561  45.5082066  31.1674534  77.8220975  40.2951553
  30.8238803  78.7122616  40.2190663  31.5353496  77.6322632  39.4321138
  19.2360384  90.1454505  33.1140155  20.0735606  90.5551514  32.8973863
  19.4138652  89.2053947  33.0840349  31.1324816  87.8129586  28.8023988
  30.6171440  88.5834190  29.0412375  30.8602125  87.1394722  29.4257049
  28.7171927  82.6579287  33.8609226  27.8613524  82.2686137  33.6814865
  29.1298879  82.7371247  33.0009012  30.2471074  80.1925630  38.2600786
  29.7435869  80.1555765  37.4468591  30.5401681  81.1018373  38.3197443
  26.4913960  80.2764360  37.2666968  27.3566957  80.0807168  36.9072857
  26.5591469  80.0474711  38.1936325  36.1059090  90.5661940  30.7377161
  35.3288533  90.2273100  30.2932324  36.7850571  90.5714564  30.0632126
  30.9211119  85.6856678  30.6283769  30.6161255  86.0002827  31.4793912
  31.8741562  85.7638098  30.6711102  29.3657551  91.8446901  32.2776723
  28.8378913  91.1099661  31.9649961  28.8645054  92.6221578  32.0316691
  34.3450397  90.0395922  37.3943769  33.6874072  90.7295183  37.4823898
  35.1490796  90.4292354  37.7377756  24.0976279  82.5066568  34.6383335
  24.6720031  82.2841749  33.9056528  24.6847261  82.5755262  35.3911936
  33.1555856  88.3940294  35.4447711  33.6687738  89.0270286  35.9469421
  33.8057080  87.7941490  35.0791071  24.4245866  84.5371029  28.6579220
  23.5883178  84.8745715  28.9788495  24.2850636  84.4020008  27.7206357
  26.3998947  79.3807816  33.3658404  25.7463359  79.0656834  32.7415019
  26.3579421  78.7583557  34.0918227  27.5110151  89.6627112  25.2811696
  26.6037213  89.4316365  25.4802845  28.0081183  88.8664731  25.4685678
  29.6336687  85.8689750  37.6906052  28.7159248  86.0904697  37.5327740
  30.0496831  85.9436060  36.8317759  30.4171735  87.2681166  32.8208732
  31.1643554  87.7802563  32.5115854  30.6863324  86.9465218  33.6813126
  28.6898385  89.7639706  29.8035686  27.7809604  89.4798739  29.9008156
  28.7193469  90.1838785  28.9438993  33.9217652  93.3746296  33.5726854
  33.4679979  92.5337206  33.6292044  33.2911619  94.0107694  33.9101634
  32.8650572  84.3038282  34.8027521  32.1273329  83.7915668  35.1337764
  33.1177345  83.8638664  33.9910798  32.3650592  95.2122793  34.5076672
  32.6573566  95.7727850  33.7889038  32.8749212  95.5051354  35.2629831
  32.9662199  77.0814534  35.3969291  33.2721076  76.2211897  35.1095206
  33.6914804  77.6732154  35.1968284  19.2586555  87.4845221  33.7850888
  19.0610955  86.8914581  33.0601955  18.7033219  87.1797431  34.5026827
  27.2383279  87.3768327  35.9045482  27.2931889  86.4242163  35.8287958
  26.4274481  87.5327766  36.3886780  28.3874473  91.3048450  27.1423765
  27.9493903  90.5884309  26.6829402  29.1284914  91.5324565  26.5808856
  25.1775639  85.9945387  33.6635860  24.3643504  86.2939557  34.0701053
  25.6734633  85.6001076  34.3810343  30.7749851  86.4587211  42.4950754
  31.1299238  86.6858684  43.3545220  31.4221982  86.7905588  41.8728010
  36.5047587  89.5805647  33.2000083  36.3665486  89.7707243  32.2721273
  36.1483806  90.3425030  33.6568135  24.6689714  83.5663742  39.2797095
  25.3089093  83.4252501  38.5820059  23.8367244  83.2798256  38.9035697
  36.5316967  91.6482174  38.2111355  36.9653474  91.5557463  39.0594409
  37.2448548  91.6239675  37.5731371  25.4450017  92.8666173  35.3932088
  26.2390616  92.3716493  35.1914663  24.7341710  92.3384036  35.0299793
  30.2644862  95.2484268  39.7444455  30.3181884  95.8175205  40.5122171
  29.3959643  95.4186153  39.3798493  21.6718330  83.5364067  34.0570082
  21.9325147  84.4509400  33.9479243  22.4935502  83.0688510  34.2066695
  23.1443255  84.9501824  41.2268907  23.8166309  84.7419187  40.5781556
  22.3173042  84.7523910  40.7874139  37.3932517  91.6905875  40.7444240
  37.5868407  92.5951685  40.9903515  37.2933135  91.2313294  41.5782825
  29.0468827  81.5763765  43.2434568  28.3996742  82.2753715  43.1499044
  29.8169843  82.0099909  43.6110816  32.4547625  91.8412618  46.3185121
  32.3033132  91.6123169  45.4015205  32.4452305  92.7983219  46.3316466
  29.2232962  89.4144530  41.3031387  30.1525022  89.5655690  41.1300355
  28.8023992  89.5028551  40.4480034  28.0221293  93.4395195  39.0729925
  27.8832379  93.0713979  39.9455863  27.2335890  93.9542834  38.9013883
  29.5726509  92.8176797  36.4618763  29.2376341  92.7777567  37.3576413
  29.0730454  92.1521513  35.9889173  23.5470753  88.2244427  41.9871344
  23.4090551  87.4924666  42.5882883  24.4575676  88.1353328  41.7055532
  32.5085700  90.1632832  26.7355822  31.8914871  89.4379660  26.6388875
  32.0402189  90.9242192  26.3922897  26.1753053  87.9364387  41.4755024
  26.8852672  87.2957579  41.4341642  26.1322361  88.1877282  42.3981204
  34.1639832  94.8731740  44.3961603  34.1052378  94.1890960  43.7292186
  34.5659350  95.6150730  43.9442229  24.8881987  84.9229605  43.2950663
  24.3519344  84.4720343  43.9472259  24.2998696  85.0575513  42.5521127
  24.2984246  84.3818256  25.8577127  23.4213713  84.2607057  25.4939373
  24.7741999  83.5904334  25.6056015  34.1657239  92.8371324  42.6275582
  33.2784018  92.4997246  42.7501981  34.7355790  92.1054355  42.8644348
  15.8186386  89.1695416  35.9518634  16.5057426  88.8557146  35.3639649
  15.6634515  90.0736780  35.6785885  20.6221108  84.0585612  40.3803658
  20.5379297  83.4511282  39.6454067  19.8003815  84.5494631  40.3813154
  30.7944822  82.5439176  35.7473853  31.2913522  81.7909138  35.4274923
  30.0231804  82.5803492  35.1817062  38.6474580  88.2479541  37.3892144
  38.6364456  89.1304257  37.0186077  37.7791959  87.8951092  37.1946681
  31.8774603  91.3010863  33.3212276  30.9430882  91.4212326  33.1516980
  32.0551271  90.3983330  33.0572286  27.3779791  84.6856559  35.4745537
  27.0077579  84.1327599  36.1626443  27.8738884  84.0814692  34.9220537
  35.2647154  87.1428182  33.8562310  35.7307607  87.9756174  33.7822613
  35.7154655  86.6773164  34.5607569  33.3323385  93.4872004  30.8548462
  33.6083229  93.3728598  31.7642336  32.4627884  93.0889488  30.8160635
  33.2363817  79.5108769  37.8953211  32.3226897  79.7412996  38.0635418
  33.6656919  79.5947213  38.7467244  33.0070276  87.6998661  40.3953105
  32.3541726  87.9474569  39.7405558  33.3850656  86.8862799  40.0615583
  29.0557849  88.4418472  46.8819143  28.3798486  88.3412602  47.5521518
  29.8785483  88.2857686  47.3455140  15.3954362  87.2496009  38.2236101
  15.4338462  86.7159600  39.0173219  14.8894655  86.7231215  37.6047078
  22.7745125  82.0960550  41.7198643  22.8386451  82.9575381  41.3076041
  22.7112245  81.4834551  40.9871002  22.2497397  84.1683682  45.3671678
  22.8769436  83.7860759  45.9809202  21.3925316  83.9497884  45.7327370
  32.6491506  94.5746657  46.9725413  33.1931410  95.1876616  46.4780368
  32.0678351  95.1326236  47.4892426  19.0262940  85.9760111  31.2990032
  19.3216381  85.0670790  31.2457086  18.1250976  85.9547851  30.9771035
  22.5557187  84.0516108  37.2817581  21.8343773  84.6652076  37.1425054
  23.3450443  84.5873873  37.2034227  32.9983927  95.4976395  39.7319991
  32.0514263  95.3781747  39.6598318  33.3466700  94.6098893  39.8146252
  25.3583501  81.3870534  43.5558233  25.8817902  81.6332831  44.3184542
  25.1395834  82.2190569  43.1361370  20.7550782  83.6574209  31.4229358
  20.4263488  82.7771588  31.2404463  21.1090152  83.6021878  32.3105747
  30.0030360  95.2929112  35.9324343  29.8555323  94.3645819  36.1131913
  30.8283854  95.3149202  35.4481418  23.8692605  83.9447179  31.7904835
  24.2088677  84.4733100  31.0683444  24.3164725  84.2827585  32.5663402
  33.6064482  96.1157670  37.0189216  34.5311030  95.9100532  36.8813667
  33.4379786  95.8674072  37.9278557  26.5636046  82.3284229  41.2407903
  26.2232866  81.5292042  41.6428583  25.8575052  82.6285940  40.6684736
  27.2152517  79.4133542  39.6935226  28.0378587  78.9394020  39.5714117
  27.4590581  80.1924026  40.1933913  25.8560752  82.4421800  29.9898128
  26.5769114  82.8203053  29.4861845  25.2326056  83.1610677  30.0933106
  29.9991875  83.1466949  30.9256460  30.2155489  84.0291587  30.6245288
  29.5185942  82.7553163  30.1962102  24.7391096  86.1052663  37.5027205
  24.5935677  86.4192966  38.3951486  24.2616300  86.7237563  36.9498104
  26.5987479  83.0955210  37.5508094  26.5849048  82.1996304  37.2140392
  27.3159907  83.1025874  38.1846380  28.4513610  83.5292551  39.5961222
  28.1931388  84.4509621  39.5945552  27.9198650  83.1322985  40.2861686
  33.3959799  96.6343338  32.3751307  33.5696676  96.0689760  31.6225160
  33.8888690  97.4344233  32.1930797  19.2136758  88.6458007  40.4414866
  18.6690226  89.4217815  40.5735140  20.0916108  88.9928811  40.2833987
  26.0024375  81.9769591  32.8195665  26.1240286  81.0486237  33.0186552
  25.7126417  81.9908277  31.9073980  28.8715565  79.6624501  35.9562384
  28.8937262  79.7263834  35.0014364  29.2883624  78.8229010  36.1502891
  39.2499190  89.3979761  33.9941607  39.6930336  88.6487086  33.5960730
  38.3725700  89.3889897  33.6115339  34.3834971  95.9510102  29.4748206
  35.0785876  96.5716795  29.6935520  34.7258121  95.1005453  29.7500583
  20.0002780  87.7727903  43.3345023  19.2584516  87.9210539  43.9209653
  19.6795524  88.0336169  42.4711772  36.2826394  93.4009808  31.0035536
  36.8077718  93.7397081  30.2784856  36.1948747  92.4656823  30.8198671
  25.4865455  83.4901588  47.0285597  25.5353610  84.3663711  46.6463367
  26.0287969  82.9478981  46.4557240  35.9720300  94.0342711  46.3086734
  35.1815844  94.0166850  45.7691234  35.7353655  94.5731005  47.0635771
  36.0918175  90.8835178  43.6219463  36.1416180  90.7185185  44.5634986
  35.9832099  90.0162437  43.2317344  24.9754434  93.5623723  30.9111552
  25.1242554  94.2459188  30.2578224  25.7820877  93.5428814  31.4261007
  33.3821938  86.8666106  44.9378769  34.2831800  86.7272571  44.6462767
  33.4569912  87.0320561  45.8776947  27.7164743  84.2432961  43.7831956
  26.8468052  84.5366527  43.5114544  27.9524223  84.8273406  44.5039219
  37.5936372  93.3032119  43.8661484  37.3021180  93.6662100  44.7024945
  36.9808503  92.5899128  43.6874816  38.7932054  90.8684999  36.3864055
  39.6278946  91.3074803  36.5501615  38.9291183  90.3923652  35.5672300
  35.8423560  88.4264734  42.3341542  36.3177682  88.6192380  41.5260394
  34.9189126  88.4823920  42.0884926  22.7307067  89.5888901  31.9172621
  22.4853109  88.6851231  32.1152831  22.9002981  89.5906052  30.9752099
  30.4203777  80.4612577  41.2997376  30.9385721  81.1973604  40.9743865
  30.0658910  80.7676571  42.1344135  22.0002714  85.3217259  29.4158782
  21.3071959  85.3961614  28.7598818  21.7554466  84.5577602  29.9380299
  30.6716371  76.8812860  36.8198273  30.9518125  76.2136049  37.4458699
  31.4566978  77.0741956  36.3072937  34.5425229  85.3030494  40.5669848
  35.4942652  85.4028592  40.5882072  34.3728680  84.5108763  41.0767932
  32.5639609  82.3886077  40.7529249  31.9689541  82.6691090  40.0575737
  32.2789306  82.8779978  41.5245990  37.0213307  88.5236614  39.6812148
  36.9889627  87.5852614  39.8671831  37.6313931  88.6020650  38.9477972
  28.8596638  87.3932667  25.7239352  29.8055743  87.2638875  25.7927770
  28.4810883  86.6547329  26.2008780  37.1707796  85.3147657  39.7270431
  36.6546844  84.5306114  39.5400360  38.0547744  84.9866374  39.8916950
  34.8318523  79.0588673  35.6866243  34.6343344  78.7503761  36.5709575
  35.4418228  79.7850312  35.8164173  42.8389857  89.5852621  38.8218184
  43.5693245  89.3237909  39.3825888  42.2296802  88.8481342  38.8620252
  40.9205154  87.7260483  39.4192636  40.1938318  87.5916448  38.8109127
  40.5052441  88.0337312  40.2249354  28.7435331  91.4450413  47.1840009
  29.6638340  91.6229012  47.3780055  28.7084914  90.5006458  47.0319708
  27.0439555  85.3182643  25.6594237  26.1371011  85.0215756  25.7356950
  27.3215536  85.0212461  24.7928523  17.9617496  86.6389006  36.1093283
  17.6420280  85.7854315  35.8167657  17.4150924  86.8537585  36.8651251
  21.7397403  89.3551447  39.8262790  21.9583413  90.2868555  39.8450824
  22.1523177  88.9959422  40.6117594  28.6601621  79.8619533  31.8138478
  27.8502349  79.5166618  32.1893724  29.3486038  79.5527076  32.4026090
  30.5892169  78.9397580  33.4362775  31.1423208  79.3593033  34.0952798
  30.8262256  78.0133328  33.4785731  26.6125268  84.9284653  49.2165539
  26.5121995  85.8779010  49.1477630  26.3946810  84.6002892  48.3441609
  25.8138340  82.1769578  25.8006216  26.6757504  82.5024477  26.0602033
  25.9988684  81.3901074  25.2879282  17.8305756  90.2591918  38.0786405
  17.1369227  89.8445871  37.5656359  18.5778747  90.3012454  37.4819824
  33.9670976  81.0498105  32.9441439  33.3869645  81.7082909  32.5619491
  33.7006909  80.2275449  32.5328857  32.4174543  80.4503162  35.1462759
  32.9174321  80.5619697  34.3377078  33.0610151  80.1464215  35.7863568
  26.4756538  88.3581792  48.0330600  25.9923620  89.1582152  48.2394489
  26.5617477  88.3689737  47.0798044  19.7442498  90.1910172  35.9552420
  19.7213186  90.2897859  35.0034303  20.0543135  91.0375323  36.2769586
  22.4029876  92.2486327  40.0699034  23.3573129  92.2170269  40.0028966
  22.2042400  91.7876950  40.8849260  22.9929258  90.8187443  42.6369832
  23.8122147  91.3131521  42.6604669  23.2666066  89.9019411  42.6087399
  32.7495854  83.2098195  31.9997787  31.8621709  83.4947846  31.7817982
  33.1649843  83.0491958  31.1525064  36.1010390  83.2344716  35.7152127
  36.8770781  83.7241169  35.9876743  35.3758525  83.6602770  36.1723996
  38.5382949  83.9472335  36.7726067  39.1327440  83.7068071  36.0619375
  38.6109533  83.2279466  37.3999603  31.8939068  92.9742870  26.0945807
  32.5974918  93.1792872  26.7103463  31.1701716  93.5419632  26.3594891
  32.7236878  88.7252731  32.2148077  32.6672079  89.1821282  31.3755710
  33.2765220  87.9643416  32.0370920  36.5341684  84.5142463  33.0398197
  36.2778618  84.1139099  33.8706405  35.9094552  85.2286257  32.9148336
  40.8454022  87.2538536  35.5469488  40.2853580  87.3231725  36.3201050
  40.2397525  87.0779521  34.8268985  33.8025765  93.4125399  28.1444267
  34.6371369  92.9806597  27.9621742  33.6410108  93.2407413  29.0721162
  33.4571657  89.9157512  29.5100607  33.4020461  89.7501784  28.5689051
  32.8317713  90.6233545  29.6662796  18.2464172  85.1525577  43.3362029
  18.8923036  84.6424531  43.8249254  18.0381323  85.8894258  43.9105454
  30.7717564  92.2206424  48.8354169  31.6408724  92.3947076  48.4740804
  30.2924316  93.0400841  48.7129899  26.7667783  79.4165621  29.0885925
  26.7546453  80.3607461  29.2454196  27.6591205  79.2335767  28.7945386
  30.5819902  76.0108398  33.3431862  29.8152298  75.4566885  33.4888544
  30.9930607  76.0830267  34.2046013  22.5861663  82.2993194  47.4337043
  23.4493125  81.9429999  47.6440368  22.0127074  81.9607089  48.1212447
  47.3859736 101.5921737  36.2185631  48.1184908 101.0220954  36.4523460
  46.6299092 101.2043338  36.6592136  44.9085156  95.3043311  40.6780239
  44.5768481  96.1738722  40.4541454  44.3130770  94.9879595  41.3574270
  44.8013820 100.0238397  37.7573589  43.8930697  99.9553806  37.4632350
  44.7501415 100.5010342  38.5855415  46.6675466  98.2254836  39.5351463
  46.0249846  98.5187369  38.8891258  46.1630394  98.1107756  40.3404660
  42.1086913  98.9919612  42.8913346  41.8647844  99.7461672  42.3547621
  42.3846843  99.3704960  43.7260593  41.6651604  98.1476045  38.4727183
  40.8036083  98.4457299  38.7643921  41.6914039  98.3646444  37.5408216
  35.1443164  95.7073910  48.4267015  34.7510110  95.1540109  49.1014659
  35.9609304  96.0184489  48.8173532  38.0611125  97.1231789  46.0187271
  38.8020838  97.7238943  45.9391734  38.2929048  96.3809427  45.4605314
  42.0068288  93.1512892  40.2951553  41.6632557  94.0414534  40.2190663
  42.3747251  92.9614550  39.4321138  39.5565682  97.9871204  33.8609226
  38.7007278  97.5978055  33.6814865  39.9692634  98.0663165  33.0009012
  41.0864828  95.5217548  38.2600786  40.5829624  95.4847683  37.4468591
  41.3795435  96.4310290  38.3197443  37.3307714  95.6056277  37.2666968
  38.1960711  95.4099086  36.9072857  37.3985223  95.3766629  38.1936325
  34.9370033  97.8358485  34.6383335  35.5113785  97.6133667  33.9056528
  35.5241016  97.9047180  35.3911936  37.2392701  94.7099734  33.3658404
  36.5857113  94.3948751  32.7415019  37.1973175  94.0875475  34.0918227
  43.7044326  99.6330200  34.8027521  42.9667083  99.1207586  35.1337764
  43.9571100  99.1930581  33.9910798  43.8055954  92.4106452  35.3969291
  44.1114830  91.5503815  35.1095206  44.5308558  93.0024072  35.1968284
  39.8862582  96.9055683  43.2434568  39.2390497  97.6045633  43.1499044
  40.6563597  97.3391827  43.6110816  41.6338577  97.8731094  35.7473853
  42.1307276  97.1201056  35.4274923  40.8625558  97.9095410  35.1817062
  44.0757572  94.8400687  37.8953211  43.1620651  95.0704914  38.0635418
  44.5050673  94.9239131  38.7467244  36.1977255  96.7162452  43.5558233
  36.7211657  96.9624749  44.3184542  35.9789588  97.5482487  43.1361370
  37.4029800  97.6576147  41.2407903  37.0626620  96.8583960  41.6428583
  36.6968806  97.9577858  40.6684736  38.0546272  94.7425460  39.6935226
  38.8772341  94.2685938  39.5714117  38.2984335  95.5215943  40.1933913
  40.8385629  98.4758867  30.9256460  41.0549244  99.3583505  30.6245288
  40.3579696  98.0845080  30.1962102  37.4381234  98.4247128  37.5508094
  37.4242802  97.5288221  37.2140392  38.1553662  98.4317792  38.1846380
  36.8418129  97.3061508  32.8195665  36.9634041  96.3778155  33.0186552
  36.5520172  97.3200194  31.9073980  39.7109320  94.9916419  35.9562384
  39.7331017  95.0555752  35.0014364  40.1277379  94.1520928  36.1502891
  41.2597531  95.7904495  41.2997376  41.7779475  96.5265522  40.9743865
  40.9052664  96.0968488  42.1344135  41.5110125  92.2104778  36.8198273
  41.7911879  91.5427967  37.4458699  42.2960732  92.4033873  36.3072937
  45.3818984 100.6322412  40.5669848  46.3336407 100.7320509  40.5882072
  45.2122434  99.8400680  41.0767932  43.4033363  97.7177995  40.7529249
  42.8083295  97.9983008  40.0575737  43.1183060  98.2071896  41.5245990
  48.0101550 100.6439575  39.7270431  47.4940599  99.8598031  39.5400360
  48.8941499 100.3158291  39.8916950  45.6712277  94.3880590  35.6866243
  45.4737098  94.0795679  36.5709575  46.2811983  95.1142229  35.8164173
  51.7598909 103.0552401  39.4192636  51.0332072 102.9208366  38.8109127
  51.3446195 103.3629229  40.2249354  39.4995375  95.1911450  31.8138478
  38.6896104  94.8458535  32.1893724  40.1879792  94.8818994  32.4026090
  41.4285924  94.2689497  33.4362775  41.9816962  94.6884951  34.0952798
  41.6656010  93.3425245  33.4785731  36.6532094  97.5061496  25.8006216
  37.5151258  97.8316394  26.0602033  36.8382438  96.7192992  25.2879282
  44.8064731  96.3790022  32.9441439  44.2263400  97.0374826  32.5619491
  44.5400663  95.5567367  32.5328857  43.2568297  95.7795080  35.1462759
  43.7568075  95.8911615  34.3377078  43.9003905  95.4756133  35.7863568
  43.5889609  98.5390113  31.9997787  42.7015464  98.8239763  31.7817982
  44.0043598  98.3783876  31.1525064  46.9404145  98.5636634  35.7152127
  47.7164535  99.0533086  35.9876743  46.2152279  98.9894688  36.1723996
  49.3776704  99.2764253  36.7726067  49.9721194  99.0359989  36.0619375
  49.4503287  98.5571384  37.3999603  47.3735438  99.8434381  33.0398197
  47.1172373  99.4431016  33.8706405  46.7488306 100.5578175  32.9148336
  51.6847776 102.5830454  35.5469488  51.1247334 102.6523643  36.3201050
  51.0791280 102.4071438  34.8268985  37.6061537  94.7457539  29.0885925
  37.5940207  95.6899379  29.2454196  38.4984959  94.5627684  28.7945386
  41.4213657  91.3400316  33.3431862  40.6546053  90.7858802  33.4888544
  41.8324362  91.4122184  34.2046013   0.7050359  21.2252676  28.2935918
   0.9167254  21.8684436  27.6170299   0.6580107  20.3914993  27.8257848
   1.8196187  24.1024632  26.4658275   2.6413630  23.7004819  26.1840957
   1.8158589  23.9992866  27.4174391   4.0135705  22.6668544  24.9356662
   4.4472212  22.5743833  25.7839716   4.7267286  22.6426044  24.2976678
   4.8751254  22.7092244  27.4689547   5.0687144  23.6138055  27.7148822
   4.7751873  22.2499663  28.3028132   1.6458570  25.8918110  31.1206909
   1.5871116  25.2077330  30.4537492   2.0478088  26.6337100  30.6687535
   1.6475977  23.8557694  29.3520889   0.7602756  23.5183615  29.4747288
   2.2174528  23.1240725  29.5889654   1.0883220  27.1344040  23.7434522
   2.0129768  26.9286901  23.6058974   0.9198523  26.8860441  24.6523864
   3.4539038  25.0529081  33.0332041   2.6634582  25.0353220  32.4936540
   3.2172393  25.5917375  33.7881077   3.5736913  21.9021547  30.3464769
   3.6234918  21.7371555  31.2880292   3.4650836  21.0348806  29.9562650
   0.8640675  17.8852475  31.6624076   1.7650538  17.7458940  31.3708074
   0.9388650  18.0506930  32.6022254   5.0755110  24.3218489  30.5906791
   4.7839918  24.6848469  31.4270252   4.4627241  23.6085497  30.4120123
   3.3242298  19.4451103  29.0586849   3.7996420  19.6378750  28.2505700
   2.4007863  19.5010289  28.8130233   4.5032045  19.5422983  26.4057454
   4.4708365  18.6038984  26.5917138   5.1132669  19.6207020  25.6723279
  10.3208595  20.6038990  25.5463491  11.0511983  20.3424278  26.1071194
   9.7115540  19.8667712  25.5865559   8.4023892  18.7446853  26.1437942
   7.6757055  18.6102818  25.5354434   7.9871179  19.0523681  26.9494660
   9.9128778  34.9481420  24.9644751  10.5507188  34.8288167  24.2608091
   9.7949621  35.8962264  25.0232703   6.7218484  34.9008848  24.9006275
   6.3836996  34.7849912  24.0126810   7.5908252  34.5000013  24.8807282
   2.5805300  36.7544324  20.8903166   2.0170165  36.6634261  20.1219454
   2.4657695  35.9344229  21.3705659   7.2038267  36.0543699  30.8592481
   7.1926908  35.6596498  29.9872985   7.3658907  35.3209772  31.4526252
   8.1604859  40.4215292  16.2017631   7.5092838  41.0069372  15.8151645
   8.9549222  40.9521487  16.2612669   2.0860486  37.5104429  16.6004766
   2.8591362  36.9633416  16.4617641   2.4385885  38.3748678  16.8119227
   3.9245528  38.8380811  29.8071665   3.6335394  39.7426442  29.6918331
   4.5602513  38.8797339  30.5215734   4.8501735  36.2157660  26.3973025
   5.4465308  35.9913682  25.6829987   4.9076707  35.4742405  26.9998472
   9.4670046  32.6732873  22.0397959  10.2533136  32.2552297  21.6888376
   9.7308751  33.5778966  22.2079607   9.6380124  38.1105724  16.7386616
   9.0025957  38.1840350  17.4507520   9.3077530  38.6999323  16.0605695
  14.8678474  32.6108107  22.9430937  15.6003646  32.0407324  23.1768767
  14.1117829  32.2229707  23.3837443   6.4854593  35.0335348  20.1394280
   6.1212801  34.5065969  20.8507201   7.3421709  34.6433817  19.9660765
  12.3903894  26.3229681  27.4025546  12.0587219  27.1925092  27.1786761
  11.7949507  26.0065965  28.0819576   8.8835413  38.5242227  26.8021459
   8.5836137  39.4267266  26.6937266   8.5386473  38.2574410  27.6542611
   2.3347895  34.9756024  22.8358163   1.4098391  34.8432238  23.0435855
   2.5832308  35.7550243  23.3328105  12.2832557  31.0424767  24.4818896
  11.3749435  30.9740175  24.1877657  12.2320153  31.5196712  25.3100721
   3.8656193  45.2886547  19.7692426   3.7880223  46.2394372  19.8480907
   3.2617837  44.9432420  20.4267353   6.3573423  32.4614413  32.4253793
   5.5806757  33.0208333  32.4156658   6.9963986  32.9471196  32.9468663
  14.1494204  29.2441205  26.2596770  13.5068584  29.5373739  25.6136564
  13.6449132  29.1294126  27.0649967  11.8034367  32.9904379  16.9482629
  12.7152223  33.2231765  16.7730327  11.2944014  33.5741423  16.3857708
   4.6119795  35.2699866  31.9871760   5.3534480  35.8084910  31.7106584
   3.9056781  35.8966155  32.1443312  10.0875135  37.4129006  30.5843922
  10.4958491  36.9711417  29.8398554   9.3652397  36.8381634  30.8378115
   6.4406205  32.3501613  27.9577479   7.2867400  32.7741027  28.1012128
   6.3804843  31.6935237  28.6516042  10.4103950  37.9730197  24.3396211
   9.7812812  38.1375911  23.6372278  10.0229612  38.3871807  25.1107175
  14.2893182  38.9084635  21.6940574  13.6044220  39.2883536  21.1437608
  14.3737031  39.5179962  22.4272522   9.5905650  30.0105982  29.6158652
   9.3466582  30.7648042  29.0792928   9.8665581  30.3891329  30.4505899
  11.5444113  36.5544594  28.2935918  11.7561008  37.1976354  27.6170299
  11.4973861  35.7206910  27.8257848   9.1470342  29.1662415  25.1972490
   8.2854821  29.4643668  25.4889228   9.1732777  29.3832813  24.2653523
   5.9631912  37.7104605  21.6046296   6.4270257  37.9892308  20.8150918
   5.6988710  36.8088050  21.4219386   2.8555993  37.2576087  24.5426059
   3.4257350  37.6863355  23.9043543   3.4464104  36.9758671  25.2410245
   4.9000798  33.8327757  18.4135861   5.6024841  34.2848801  18.8809787
   4.5681426  33.1911576  19.0415754   3.3481159  32.4239514  32.7887070
   2.7179820  33.1055795  33.0222467   3.2417247  32.3122596  31.8440208
  12.6589941  39.4316549  26.4658275  13.4807385  39.0296737  26.1840957
  12.6552344  39.3284783  27.4174391   6.4246545  38.9800593  28.6218986
   6.4890977  39.4421000  29.4577158   5.7157468  38.3497958  28.7501296
  20.7495934  35.7755298  22.8143247  19.9959643  35.2062696  22.6587251
  20.8843475  35.7417962  23.7613881   6.1394562  40.6468700  18.4897966
   6.0040237  41.4920236  18.9182814   6.6804375  40.8487978  17.7263900
   2.6261902  26.7260280  35.1512321   2.2328847  26.1726479  35.8259965
   3.4428042  27.0370858  35.5418839   1.4018844  41.2809894  21.1448644
   1.5785473  42.2027859  20.9569628   2.1975678  40.9668314  21.5743024
   5.5429863  28.1418159  32.7432578   6.2839576  28.7425312  32.6637040
   5.7747786  27.3995797  32.1850620   7.7663039  41.2692267  32.6198308
   7.3226893  40.4828645  32.3019213   8.4280252  41.4571417  31.9542199
   2.5250160  42.7988068  27.1458987   3.0757585  42.6705132  26.3735981
   1.6861636  43.0982957  26.7953879   6.3217331  39.0639196  31.4903218
   6.8545668  38.3027484  31.2602526   5.7931412  38.7712848  32.2327372
   9.4887026  24.1699262  27.0196859   9.1451295  25.0600904  26.9435970
   9.8565988  23.9800920  26.1566444   9.4537309  34.1607873  15.5269295
   8.9383932  34.9312478  15.7657682   9.1814617  33.4873009  16.1502356
   7.0384420  29.0057574  20.5854533   6.1826016  28.6164424  20.4060172
   7.4511371  29.0849535  19.7254319   8.5683566  26.5403917  24.9846093
   8.0648362  26.5034052  24.1713898   8.8614173  27.4496660  25.0442749
   4.8126452  26.6242647  23.9912274   5.6779449  26.4285456  23.6318164
   4.8803961  26.3952999  24.9181631  14.4271583  36.9140228  17.4622468
  13.6501025  36.5751387  17.0177630  15.1063064  36.9192851  16.7877433
   9.2423612  32.0334965  17.3529076   8.9373747  32.3481114  18.2039219
  10.1954054  32.1116385  17.3956409   7.6870044  38.1925189  19.0022030
   7.1591405  37.4577948  18.6895267   7.1857546  38.9699865  18.7561998
  12.6662890  36.3874209  24.1189076  12.0086564  37.0773470  24.2069205
  13.4703289  36.7770641  24.4623062  11.4768348  34.7418582  22.1693018
  11.9900230  35.3748574  22.6714728  12.1269572  34.1419777  21.8036378
   8.7390723  44.7202906  14.9253689   8.0652421  45.0234603  15.5338647
   9.1256545  45.5231986  14.5759146   7.9549179  32.2168037  24.4151358
   7.0371741  32.4382984  24.2573046   8.3709323  32.2914348  23.5563066
   8.7384227  33.6159453  19.5454039   9.4856046  34.1280850  19.2361161
   9.0075817  33.2943506  20.4058432   7.0110877  36.1117994  16.5280993
   6.1022096  35.8277026  16.6253463   7.0405961  36.5317072  15.6684300
  12.2430145  39.7224583  20.2972160  11.7892472  38.8815493  20.3537351
  11.6124111  40.3585982  20.6346941  11.1863064  30.6516569  21.5272828
  10.4485821  30.1393955  21.8583070  11.4389838  30.2116951  20.7156105
  10.6863084  41.5601080  21.2321979  10.9786058  42.1206137  20.5134344
  11.1961704  41.8529641  21.9875138  11.2874691  23.4292821  22.1214597
  11.5933568  22.5690185  21.8340512  12.0127296  24.0210441  21.9213591
   5.5595771  33.7246614  22.6290788   5.6144381  32.7720451  22.5533265
   4.7486973  33.8806053  23.1132087   3.4988131  32.3423674  20.3881167
   2.6855997  32.6417845  20.7946359   3.9947125  31.9479363  21.1055649
   5.6496709  42.3381431  22.3215432   5.6072888  42.5642277  21.3923964
   6.5659408  42.1044805  22.4701233   9.0962343  32.8065498  29.2196061
   9.4511731  33.0336972  30.0790527   9.7434474  33.1383875  28.5973316
  14.8260080  35.9283934  19.9245390  14.6877978  36.1185530  18.9966579
  14.4696299  36.6903317  20.3813441   2.9902206  29.9142030  26.0042402
   3.6301585  29.7730789  25.3065365   2.1579736  29.6276543  25.6281004
  14.8529459  37.9960461  24.9356662  15.2865966  37.9035750  25.7839716
  15.5661040  37.9717962  24.2976678   3.7662510  39.2144460  22.1177395
   4.5603108  38.7194780  21.9159969   3.0554202  38.6862323  21.7545100
   8.5857354  41.5962555  26.4689762   8.6394377  42.1653492  27.2367478
   7.7172136  41.7664440  26.1043799   1.4655748  31.2980112  27.9514213
   2.1378801  31.0897474  27.3026862   0.6385534  31.1002198  27.5119446
  15.7145009  38.0384162  27.4689547  15.9080899  38.9429973  27.7148822
  15.6145627  37.5791581  28.3028132   7.3681320  27.9242053  29.9679874
   6.7209235  28.6232002  29.8744351   8.1382335  28.3578197  30.3356122
  10.7760118  38.1890905  33.0430428  10.6245624  37.9601456  32.1260511
  10.7664797  39.1461506  33.0561773   7.5445454  35.7622817  28.0276694
   8.4737514  35.9133977  27.8545661   7.1236484  35.8506838  27.1725341
   6.3433786  39.7873482  25.7975232   6.2044871  39.4192266  26.6701170
   5.5548382  40.3021121  25.6259189   6.9381938  44.8882578  17.1400768
   7.1133693  44.4170622  17.9546391   6.2514726  45.5148345  17.3682029
   7.8939001  39.1655085  23.1864069   7.5588834  39.1255855  24.0821719
   7.3942947  38.4999801  22.7134480   1.8683245  34.5722715  28.7116651
   1.7303043  33.8402953  29.3128190   2.7788168  34.4831615  28.4300838
   4.4965546  34.2842674  28.2000330   5.2065164  33.6435866  28.1586949
   4.4534854  34.5355569  29.1226511  12.4852324  41.2210027  31.1206909
  12.4264870  40.5369247  30.4537492  12.8871843  41.9629017  30.6687535
   3.2094480  31.2707892  30.0195970   2.6731837  30.8198630  30.6717566
   2.6211188  31.4053801  29.2766434   1.5043023  48.0371941  23.9140628
   1.7439621  48.6690465  24.5919647   0.6612219  47.6859981  24.2005988
  12.4869731  39.1849611  29.3520889  11.5996510  38.8475533  29.4747288
  13.0568283  38.4532642  29.5889654   6.0170885  43.8451064  26.3182132
   5.9441056  44.6506035  26.8301437   5.5748278  44.0443029  25.4930154
   5.8060665  43.0822834  19.8284954   5.0228186  43.6244514  19.9223178
   6.5053410  43.5996813  20.2279195   9.1157315  28.8917463  22.4719159
   9.6126014  28.1387425  22.1520229   8.3444296  28.9281780  21.9062369
  16.9687072  34.5957829  24.1137451  16.9576948  35.4782544  23.7431384
  16.1004451  34.2429379  23.9191988   8.4769568  43.7437898  28.4740291
   9.1897541  44.3785362  28.4016192   7.9859597  43.8401764  27.6580293
  10.1987095  37.6489150  20.0457583   9.2643374  37.7690613  19.8762287
  10.3763764  36.7461617  19.7817592   5.6992283  31.0334846  22.1990844
   5.3290071  30.4805886  22.8871749   6.1951376  30.4292980  21.6465844
  13.5859647  33.4906470  20.5807617  14.0520099  34.3234461  20.5067919
  14.0367147  33.0251451  21.2852875   3.5281482  41.4932341  29.2945862
   4.2290941  42.1268824  29.4475256   3.0576597  41.8347073  28.5341501
  11.6535878  39.8350291  17.5793769  11.9295722  39.7206885  18.4887643
  10.7840377  39.4367776  17.5405942  11.5576309  25.8587057  24.6198518
  10.6439389  26.0891283  24.7880725  11.9869411  25.9425501  25.4712550
  11.3282768  34.0476949  27.1198412  10.6754218  34.2952856  26.4650865
  11.7063148  33.2341087  26.7860889   8.2889942  44.0836642  21.2226582
   8.4712336  43.2658298  21.6854335   9.1122928  44.3004334  20.7851472
   8.6232107  43.0104827  18.4841631   9.1519874  42.4997281  17.8711793
   8.8860327  42.6947357  19.3487164   7.3770341  34.7896760  33.6064449
   6.7010978  34.6890889  34.2766824   8.1997975  34.6335973  34.0700446
   1.9787855  44.0619944  21.2439407   1.3098230  44.5466071  20.7603447
   1.8400725  44.3089164  22.1582785   6.1193124  46.0963687  27.8422065
   6.6711432  46.2595309  28.6071150   6.4599317  46.6868125  27.1702090
   1.0957617  28.4438837  28.4443950   1.1598944  29.3053668  28.0321348
   1.0324737  27.8312838  27.7116308  10.9703998  40.9224945  33.6970720
  11.5143902  41.5354903  33.2025674  10.3890843  41.4804523  34.2137733
   9.2561511  44.0445663  24.8285747   9.1312651  43.2435402  24.3196693
   9.9140602  44.5391856  24.3399717  11.3196419  41.8454683  26.4565297
  10.3726755  41.7260034  26.3843624  11.6679193  40.9577181  26.5391559
   3.6795993  27.7348822  30.2803539   4.2030395  27.9811118  31.0429849
   3.4608326  28.5668856  29.8606677   8.3242853  41.6407399  22.6569650
   8.1767815  40.7124106  22.8377220   9.1496346  41.6627490  22.1726725
  11.9276975  42.4635958  23.7434522  12.8523522  42.2578819  23.6058974
  11.7592278  42.2152359  24.6523864   4.8848538  28.6762517  27.9653210
   4.5445358  27.8770330  28.3673890   4.1787544  28.9764228  27.3930043
   5.5365010  25.7611829  26.4180533   6.3591079  25.2872307  26.2959423
   5.7803073  26.5402313  26.9179219   3.0603588  32.4530950  24.2272512
   2.9148169  32.7671253  25.1196793   2.5828792  33.0715850  23.6743410
   4.9199971  29.4433498  24.2753401   4.9061540  28.5474591  23.9385699
   5.6372399  29.4504161  24.9091687   6.7726102  29.8770838  26.3206528
   6.5143880  30.7987909  26.3190859   6.2411142  29.4801272  27.0106993
   7.1928058  26.0102788  22.6807691   7.2149754  26.0742122  21.7259671
   7.6096117  25.1707297  22.8748197  17.5711682  35.7458048  20.7186914
  18.0142828  34.9965373  20.3206037  16.6938192  35.7368184  20.3360646
  12.7047463  42.2988389  16.1993512  13.3998368  42.9195082  16.4180827
  13.0470613  41.4483741  16.4745890  14.6038886  39.7488095  17.7280843
  15.1290211  40.0875368  17.0030163  14.5161239  38.8135110  17.5443978
   6.2658935  43.6622169  29.8570720   6.5746062  43.4171315  30.7293419
   7.0634417  43.8668807  29.3689590   6.2879547  45.8160078  22.0876096
   5.8484537  45.3236457  22.7808953   7.0387664  45.2733046  21.8468171
   3.7353419  41.3598087  24.1598398   3.1133429  40.6968792  23.8600626
   4.4058286  41.3859219  23.4772046   3.8077947  29.8379875  33.7530904
   3.8566102  30.7141998  33.3708673   4.3500461  29.2957268  33.1802547
  14.4130668  37.2313465  30.3464769  14.4628672  37.0663472  31.2880292
  14.3044591  36.3640724  29.9562650   3.2966926  39.9102011  17.6356858
   3.4455047  40.5937475  16.9823531   4.1033370  39.8907101  18.1506314
  11.7034430  33.2144393  31.6624076  12.6044293  33.0750858  31.3708074
  11.7782404  33.3798848  32.6022254   6.0377235  30.5911248  30.5077262
   5.1680545  30.8844814  30.2359851   6.2736716  31.1751693  31.2284526
  15.9148864  39.6510407  30.5906791  15.6233673  40.0140387  31.4270252
  15.3020996  38.9377415  30.4120123  17.1144547  37.2163286  23.1109361
  17.9491438  37.6553090  23.2746922  17.2503675  36.7401940  22.2917607
  14.1636053  34.7743021  29.0586849  14.6390174  34.9670667  28.2505700
  13.2401618  34.8302207  28.8130233   1.0519559  35.9367188  18.6417927
   0.8065601  35.0329518  18.8398137   1.2215474  35.9384339  17.6997405
   8.7416269  26.8090865  28.0242683   9.2598213  27.5451892  27.6989171
   8.3871402  27.1154858  28.8589442   8.9928863  23.2291147  23.5443579
   9.2730617  22.5614336  24.1704006   9.7779470  23.4220243  23.0318243
   6.7962332  42.4050141  15.1068606   6.2236299  43.0240328  14.6539078
   7.3695125  42.9549503  15.6408528  12.8637722  31.6508781  27.2915155
  13.8155145  31.7506879  27.3127379  12.6941172  30.8587050  27.8013239
  10.8852101  28.7364364  27.4774555  10.2902033  29.0169377  26.7821044
  10.6001798  29.2258265  28.2491297  10.0159592  42.6887291  16.2377188
  10.9490265  42.6232853  16.4410064   9.9282804  43.5243558  15.7791721
  12.6447608  42.0053162  13.1981136  12.5661240  41.6713025  14.0916894
  13.4657275  42.4974930  13.1972608  15.3425799  34.8714901  26.4057454
  15.3102120  33.9330902  26.5917138  15.9526423  34.9498938  25.6723279
  15.4920288  31.6625944  26.4515737  14.9759337  30.8784401  26.2645666
  16.3760236  31.3344661  26.6162257  13.1531015  25.4066960  22.4111550
  12.9555836  25.0982048  23.2954882  13.7630720  26.1328599  22.5409480
  21.1602349  35.9330908  25.5463491  21.8905738  35.6716196  26.1071194
  20.5509295  35.1959630  25.5865559  19.2417646  34.0738770  26.1437942
  18.5150810  33.9394735  25.5354434  18.8264933  34.3815599  26.9494660
   7.0647823  37.7928700  33.9085315   7.9850832  37.9707299  34.1025362
   7.0297406  36.8484745  33.7565014   4.9337761  31.2762940  35.9410845
   4.8334488  32.2257297  35.8722936   4.7159303  30.9481179  35.0686915
  12.2883469  27.3976392  19.6686746  11.7082138  28.0561196  19.2864798
  12.0219401  26.5753737  19.2574163  10.7387035  26.7981450  21.8708066
  11.2386813  26.9097984  21.0622385  11.3822643  26.4942503  22.5108874
   4.7969031  34.7060079  34.7575907   4.3136112  35.5060439  34.9639796
   4.8829970  34.7168024  33.8043351   0.7242368  38.5964614  26.7944341
   1.6785622  38.5648556  26.7274272   0.5254892  38.1355238  27.6094567
   1.3141750  37.1665730  29.3615138   2.1334639  37.6609809  29.3849976
   1.5878558  36.2497698  29.3332706  11.0708347  29.5576482  18.7243094
  10.1834202  29.8426133  18.5063289  11.4862336  29.3970246  17.8770371
  14.4222883  29.5823003  22.4397433  15.1983273  30.0719456  22.7122050
  13.6971017  30.0081058  22.8969303  16.8595441  30.2950623  23.4971374
  17.4539932  30.0546358  22.7864682  16.9322025  29.5757753  24.1244910
  10.2151560  39.3221157  12.8191114  10.9187410  39.5271160  13.4348770
   9.4914209  39.8897919  13.0840197  11.0449370  35.0731018  18.9393384
  10.9884572  35.5299570  18.1001016  11.5977713  34.3121703  18.7616227
  14.8554176  30.8620750  19.7643504  14.5991110  30.4617386  20.5951711
  14.2307044  31.5764544  19.6393643  19.1666514  33.6016823  22.2714795
  18.6066072  33.6710013  23.0446357  18.5610017  33.4257808  21.5514291
   2.2361723  45.0353551  24.0232981   2.1194107  45.9798983  23.9211672
   1.4154169  44.7327112  24.4118780  12.1238257  39.7603686  14.8689574
  12.9583861  39.3284885  14.6867049  11.9622600  39.5885700  15.7966468
  11.7784150  36.2635800  16.2345913  11.7232953  36.0980071  15.2934357
  11.1530205  36.9711832  16.3908103   9.0930057  38.5684711  35.5599476
   9.9621216  38.7425364  35.1986111   8.6136808  39.3879128  35.4375205
   3.2616237  45.6881812  27.2388910   4.1643484  45.7205423  27.5555405
   3.0353607  44.7582263  27.2535245   5.0169839  44.4412799  23.8998988
   4.0665470  44.4414661  23.7863361   5.3202325  43.6945534  23.3835023
  20.7522532  50.2773337  24.9644751  21.3900942  50.1580085  24.2608091
  20.6343375  51.2254181  25.0232703  17.5612239  50.2300765  24.9006275
  17.2230750  50.1141830  24.0126810  18.4302007  49.8291931  24.8807282
  13.4199054  52.0836242  20.8903166  12.8563920  51.9926179  20.1219454
  13.3051450  51.2636146  21.3705659  18.0432022  51.3835617  30.8592481
  18.0320663  50.9888415  29.9872985  18.2052661  50.6501690  31.4526252
  10.9663486  53.5787433  23.7287387  11.7584778  53.2378258  23.3133686
  11.2060137  53.6882408  24.6489540  18.9998613  55.7507210  16.2017631
  18.3486593  56.3361290  15.8151645  19.7942976  56.2813404  16.2612669
  12.9254240  52.8396347  16.6004766  13.6985116  52.2925334  16.4617641
  13.2779639  53.7040596  16.8119227  14.7639283  54.1672729  29.8071665
  14.4729149  55.0718360  29.6918331  15.3996267  54.2089257  30.5215734
  15.6895490  51.5449577  26.3973025  16.2859062  51.3205600  25.6829987
  15.7470461  50.8034323  26.9998472  15.2620518  48.9989013  14.2323216
  15.5146039  48.4770534  13.4706679  14.3245077  48.8355158  14.3349899
  20.3063801  48.0024791  22.0397959  21.0926890  47.5844214  21.6888376
  20.5702505  48.9070883  22.2079607  20.4773878  53.4397641  16.7386616
  19.8419711  53.5132268  17.4507520  20.1471285  54.0291240  16.0605695
  25.7072228  47.9400024  22.9430937  26.4397400  47.3699241  23.1768767
  24.9511584  47.5521625  23.3837443  14.9816807  50.9017119  16.4347590
  14.8653065  50.2262022  17.1028675  15.0919067  50.4149493  15.6179744
  17.3248348  50.3627266  20.1394280  16.9606555  49.8357887  20.8507201
  18.1815464  49.9725735  19.9660765  16.9653835  45.3917166  15.1355628
  17.1328237  46.2597402  15.5026099  16.7751004  45.5544447  14.2116917
  19.7229168  53.8534144  26.8021459  19.4229891  54.7559183  26.6937266
  19.3780228  53.5866328  27.6542611  13.1741649  50.3047941  22.8358163
  12.2492146  50.1724155  23.0435855  13.4226063  51.0842161  23.3328105
  23.1226312  46.3716685  24.4818896  22.2143189  46.3032093  24.1877657
  23.0713908  46.8488630  25.3100721  16.9443056  47.8474823  16.1202295
  16.8242681  48.2931874  16.9587775  16.2495644  48.1960141  15.5615833
  10.5350461  49.9481215  23.6701952  10.6642842  50.2015694  24.5841364
   9.8547912  50.5408923  23.3506607  14.7049948  60.6178465  19.7692426
  14.6273977  61.5686290  19.8480907  14.1011591  60.2724337  20.4267353
  22.6428122  48.3196296  16.9482629  23.5545978  48.5523683  16.7730327
  22.1337769  48.9033340  16.3857708  15.4513550  50.5991784  31.9871760
  16.1928234  51.1376828  31.7106584  14.7450535  51.2258072  32.1443312
  20.9268890  52.7420924  30.5843922  21.3352246  52.3003335  29.8398554
  20.2046151  52.1673552  30.8378115  17.2799960  47.6793531  27.9577479
  18.1261155  48.1032944  28.1012128  17.2198597  47.0227155  28.6516042
  21.2497704  53.3022115  24.3396211  20.6206567  53.4667829  23.6372278
  20.8623366  53.7163724  25.1107175  25.1286936  54.2376553  21.6940574
  24.4437974  54.6175454  21.1437608  25.2130785  54.8471879  22.4272522
  22.3837868  51.8836512  28.2935918  22.5954763  52.5268271  27.6170299
  22.3367616  51.0498828  27.8257848  19.9864097  44.4954332  25.1972490
  19.1248576  44.7935586  25.4889228  20.0126531  44.7124731  24.2653523
  16.8025666  53.0396523  21.6046296  17.2664012  53.3184226  20.8150918
  16.5382464  52.1379967  21.4219386  13.6949747  52.5868004  24.5426059
  14.2651104  53.0155273  23.9043543  14.2857859  52.3050589  25.2410245
  15.7394552  49.1619675  18.4135861  16.4418595  49.6140719  18.8809787
  15.4075181  48.5203494  19.0415754   9.4819886  47.4203228  23.7152994
   8.6918940  47.6760756  23.2393105   9.9731133  48.2351566  23.8205035
  23.4983696  54.7608467  26.4658275  24.3201139  54.3588654  26.1840957
  23.4946098  54.6576701  27.4174391  11.4334631  47.7847807  20.6736471
  10.6365795  47.8966501  21.1919967  11.2060224  48.1234459  19.8077362
  17.2640299  54.3092510  28.6218986  17.3284732  54.7712918  29.4577158
  16.5551223  53.6789875  28.7501296   7.7657589  47.6733718  26.1467985
   8.0165627  48.5580728  26.4125561   8.3017137  47.4938320  25.3743077
  31.5889689  51.1047215  22.8143247  30.8353397  50.5354614  22.6587251
  31.7237230  51.0709880  23.7613881  16.9788317  55.9760618  18.4897966
  16.8433991  56.8212154  18.9182814  17.5198129  56.1779895  17.7263900
  10.4317714  53.4936056  19.0625891  10.9442235  54.2879306  19.2131456
  11.0840427  52.7962346  18.9959493  12.2412599  56.6101812  21.1448644
  12.4179227  57.5319777  20.9569628  13.0369432  56.2960231  21.5743024
  11.5264955  48.6566444  31.0210807  11.4118470  47.7551701  31.3217906
  10.6709473  48.9030141  30.6695624  18.6056793  56.5984184  32.6198308
  18.1620647  55.8120563  32.3019213  19.2674007  56.7863335  31.9542199
  13.3643914  58.1279986  27.1458987  13.9151339  57.9997049  26.3735981
  12.5255390  58.4274875  26.7953879  17.1611085  54.3931114  31.4903218
  17.6939422  53.6319402  31.2602526  16.6325166  54.1004766  32.2327372
   8.3966631  51.8224710  19.8385462   9.2341853  52.2321718  19.6219169
   8.5744899  50.8824152  19.8085656  20.2931063  49.4899791  15.5269295
  19.7777686  50.2604395  15.7657682  20.0208371  48.8164927  16.1502356
  17.8778174  44.3349492  20.5854533  17.0219770  43.9456342  20.4060172
  18.2905126  44.4141452  19.7254319  19.4077321  41.8695835  24.9846093
  18.9042116  41.8325970  24.1713898  19.7007928  42.7788578  25.0442749
  15.6520207  41.9534565  23.9912274  16.5173203  41.7577373  23.6318164
  15.7197715  41.7244916  24.9181631  25.2665337  52.2432145  17.4622468
  24.4894780  51.9043305  17.0177630  25.9456818  52.2484769  16.7877433
  20.0817366  47.3626883  17.3529076  19.7767502  47.6773032  18.2039219
  21.0347808  47.4408303  17.3956409  18.5263798  53.5217106  19.0022030
  17.9985160  52.7869866  18.6895267  18.0251301  54.2991783  18.7561998
  23.5056644  51.7166127  24.1189076  22.8480318  52.4065388  24.2069205
  24.3097043  52.1062559  24.4623062  13.2582526  44.1836772  21.3628641
  13.8326278  43.9611954  20.6301834  13.8453508  44.2525467  22.1157243
  22.3162103  50.0710499  22.1693018  22.8293985  50.7040491  22.6714728
  22.9663327  49.4711695  21.8036378  13.5852113  46.2141233  15.3824527
  12.7489425  46.5515920  15.7033801  13.4456882  46.0790213  14.4451664
  15.5605193  41.0578021  20.0903711  14.9069606  40.7427039  19.4660325
  15.5185667  40.4353762  20.8163534  16.6716398  51.3397316  12.0057003
  15.7643460  51.1086570  12.2048152  17.1687430  50.5434936  12.1930984
  19.5784477  60.0494824  14.9253689  18.9046176  60.3526520  15.5338647
  19.9650299  60.8523904  14.5759146  18.7942934  47.5459955  24.4151358
  17.8765495  47.7674902  24.2573046  19.2103077  47.6206265  23.5563066
  19.5777981  48.9451371  19.5454039  20.3249800  49.4572768  19.2361161
  19.8469571  48.6235423  20.4058432  17.8504632  51.4409911  16.5280993
  16.9415851  51.1568944  16.6253463  17.8799715  51.8608990  15.6684300
  23.0823899  55.0516501  20.2972160  22.6286226  54.2107411  20.3537351
  22.4517866  55.6877899  20.6346941  22.0256819  45.9808487  21.5272828
  21.2879575  45.4685873  21.8583070  22.2783592  45.5408868  20.7156105
  21.5256838  56.8892998  21.2321979  21.8179813  57.4498055  20.5134344
  22.0355459  57.1821558  21.9875138  22.1268446  38.7584739  22.1214597
  22.4327323  37.8982102  21.8340512  22.8521051  39.3502359  21.9213591
   8.4192802  49.1615425  20.5096195   8.2217202  48.5684786  19.7847262
   7.8639466  48.8567636  21.2272134  16.3989526  49.0538532  22.6290788
  16.4538135  48.1012368  22.5533265  15.5880728  49.2097971  23.1132087
  17.5480719  52.9818655  13.8669071  17.1100149  52.2654514  13.4074709
  18.2891160  53.2094770  13.3054163  14.3381886  47.6715592  20.3881167
  13.5249751  47.9709762  20.7946359  14.8340880  47.2771280  21.1055649
  16.4890463  57.6673349  22.3215432  16.4466642  57.8934195  21.3923964
  17.4053162  57.4336723  22.4701233  25.6653834  51.2575852  19.9245390
  25.5271733  51.4477448  18.9966579  25.3090053  52.0195235  20.3813441
  13.8295960  45.2433947  26.0042402  14.4695340  45.1022706  25.3065365
  12.9973491  44.9568461  25.6281004  25.6923214  53.3252379  24.9356662
  26.1259720  53.2327668  25.7839716  26.4054795  53.3009879  24.2976678
  14.6056264  54.5436378  22.1177395  15.3996863  54.0486698  21.9159969
  13.8947957  54.0154241  21.7545100  19.4251109  56.9254473  26.4689762
  19.4788131  57.4945409  27.2367478  18.5565890  57.0956358  26.1043799
  10.9139028  48.6879459  18.1937147   9.9836616  48.6263915  18.4107109
  11.0096500  48.1655412  17.3973788  10.8324577  45.2134272  20.7815389
  11.0931394  46.1279605  20.6724549  11.6541749  44.7458715  20.9312002
  12.3049502  46.6272029  27.9514213  12.9772556  46.4189391  27.3026862
  11.4779289  46.4294115  27.5119446  26.5538763  53.3676080  27.4689547
  26.7474653  54.2721890  27.7148822  26.4539382  52.9083499  28.3028132
  18.3839208  51.0914735  28.0276694  19.3131268  51.2425895  27.8545661
  17.9630238  51.1798756  27.1725341  17.1827540  55.1165400  25.7975232
  17.0438626  54.7484184  26.6701170  16.3942136  55.6313039  25.6259189
  17.7775692  60.2174496  17.1400768  17.9527448  59.7462539  17.9546391
  17.0908480  60.8440262  17.3682029  18.7332755  54.4947002  23.1864069
  18.3982588  54.4547772  24.0821719  18.2336701  53.8291718  22.7134480
  12.7076999  49.9014632  28.7116651  12.5696797  49.1694871  29.3128190
  13.6181923  49.8123532  28.4300838  21.6691947  51.8403037  13.4601129
  21.0521118  51.1149865  13.3634182  21.2008436  52.6012397  13.1168203
  15.3359300  49.6134592  28.2000330  16.0458919  48.9727784  28.1586949
  15.2928608  49.8647486  29.1226511  12.3436778  63.3663859  23.9140628
  12.5833376  63.9982383  24.5919647  11.5005974  63.0151899  24.2005988
  13.4590493  46.0588461  12.5822433  12.5819959  45.9377262  12.2184680
  13.9348246  45.2674539  12.3301322   4.9792633  50.8465621  22.6763940
   5.6663673  50.5327351  22.0884956   4.8240762  51.7506985  22.4031192
   9.7827355  45.7355817  27.1048964   9.6985544  45.1281487  26.3699374
   8.9610062  46.2264836  27.1058461  16.8564639  59.1742981  26.3182132
  16.7834811  59.9797953  26.8301437  16.4142032  59.3734947  25.4930154
  16.6454419  58.4114751  19.8284954  15.8621941  58.9536431  19.9223178
  17.3447164  58.9288731  20.2279195  19.9551069  44.2209381  22.4719159
  20.4519769  43.4679343  22.1520229  19.1838051  44.2573697  21.9062369
  27.8080827  49.9249746  24.1137451  27.7970703  50.8074462  23.7431384
  26.9398206  49.5721297  23.9191988  19.3163323  59.0729815  28.4740291
  20.0291295  59.7077280  28.4016192  18.8253352  59.1693681  27.6580293
  21.0380850  52.9781068  20.0457583  20.1037129  53.0982530  19.8762287
  21.2157518  52.0753535  19.7817592  16.5386038  46.3626764  22.1990844
  16.1683825  45.8097804  22.8871749  17.0345130  45.7584897  21.6465844
  24.4253401  48.8198387  20.5807617  24.8913853  49.6526379  20.5067919
  24.8760902  48.3543369  21.2852875  14.3675236  56.8224259  29.2945862
  15.0684696  57.4560742  29.4475256  13.8970351  57.1638990  28.5341501
  22.4929632  55.1642209  17.5793769  22.7689476  55.0498803  18.4887643
  21.6234131  54.7659693  17.5405942  22.1676522  49.3768866  27.1198412
  21.5147973  49.6244774  26.4650865  22.5456902  48.5633004  26.7860889
  19.1283696  59.4128559  21.2226582  19.3106091  58.5950215  21.6854335
  19.9516682  59.6296252  20.7851472  19.4625862  58.3396745  18.4841631
  19.9913628  57.8289199  17.8711793  19.7254081  58.0239275  19.3487164
   9.9642954  56.3560614  26.2276964  10.5496391  55.6104302  26.3604869
   9.7667793  56.6664571  27.1113628  12.8181610  59.3911861  21.2439407
  12.1491985  59.8757989  20.7603447  12.6794479  59.6381082  22.1582785
   4.5560609  48.9266214  24.9481408   4.5944709  48.3929805  25.7418526
   4.0500902  48.4001420  24.3292385  16.9586878  61.4255605  27.8422065
  17.5105186  61.5887226  28.6071150  17.2993072  62.0160043  27.1702090
  11.9351372  43.7730755  28.4443950  11.9992698  44.6345585  28.0321348
  11.8718492  43.1604756  27.7116308  11.4103644  45.8453887  32.0916984
  12.0375683  45.4630964  32.7054508  10.5531563  45.6268089  32.4572677
   8.1869187  47.6530316  18.0235339   8.4822628  46.7440995  17.9702393
   7.2857223  47.6318056  17.7016341  20.0955266  59.3737580  24.8285747
  19.9706405  58.5727320  24.3196693  20.7534357  59.8683774  24.3399717
  11.7163434  45.7286313  24.0062888  10.9950020  46.3422280  23.8670361
  12.5056690  46.2644078  23.9279534  22.1590174  57.1746600  26.4565297
  21.2120509  57.0551952  26.3843624  22.5072947  56.2869098  26.5391559
   9.9157028  45.3344414  18.1474664   9.5869735  44.4541793  17.9649770
  10.2696399  45.2792083  19.0351053  19.1636607  56.9699317  22.6569650
  19.0161570  56.0416024  22.8377220  19.9890101  56.9919407  22.1726725
  13.0298852  45.6217384  18.5150142  13.3694924  46.1503305  17.7928750
  13.4770972  45.9597790  19.2908708  22.7670729  57.7927875  23.7434522
  23.6917277  57.5870737  23.6058974  22.5986032  57.5444276  24.6523864
  15.7242292  44.0054434  27.9653210  15.3839113  43.2062247  28.3673890
  15.0181299  44.3056145  27.3930043  16.3758764  41.0903747  26.4180533
  17.1984834  40.6164225  26.2959423  16.6196828  41.8694231  26.9179219
  15.0166999  44.1192005  16.7143435  15.7375361  44.4973258  16.2107151
  14.3932303  44.8380882  16.8178413  19.1598122  44.8237154  17.6501767
  19.3761736  45.7061792  17.3490595  18.6792189  44.4323368  16.9207409
  13.8997343  47.7822867  24.2272512  13.7541924  48.0963170  25.1196793
  13.4222547  48.4007768  23.6743410  15.7593726  44.7725415  24.2753401
  15.7455295  43.8766509  23.9385699  16.4766154  44.7796079  24.9091687
  17.6119857  45.2062756  26.3206528  17.3537634  46.1279826  26.3190859
  17.0804897  44.8093190  27.0106993  22.5566045  58.3113543  19.0996614
  22.7302923  57.7459965  18.3470466  23.0494937  59.1114438  18.9176104
   8.3743005  50.3228212  27.1660173   7.8296473  51.0988020  27.2980447
   9.2522355  50.6699016  27.0079294  15.1630622  43.6539796  19.5440971
  15.2846533  42.7256442  19.7431859  14.8732664  43.6678482  18.6319287
  18.0321812  41.3394706  22.6807691  18.0543509  41.4034039  21.7259671
  18.4489871  40.4999215  22.8748197  28.4105436  51.0749966  20.7186914
  28.8536583  50.3257291  20.3206037  27.5331947  51.0660102  20.3360646
  23.5441218  57.6280307  16.1993512  24.2392122  58.2487000  16.4180827
  23.8864368  56.7775658  16.4745890   9.1609027  49.4498108  30.0590330
   8.4190763  49.5980743  30.6454960   8.8401771  49.7106374  29.1957079
  25.4432641  55.0780013  17.7280843  25.9683965  55.4167285  17.0030163
  25.3554993  54.1427028  17.5443978  17.1052690  58.9914086  29.8570720
  17.4139816  58.7463233  30.7293419  17.9028172  59.1960725  29.3689590
  17.1273302  61.1451996  22.0876096  16.6878292  60.6528375  22.7808953
  17.8781419  60.6024964  21.8468171   9.6065641  57.3363537  22.0900724
  10.4323661  57.0367309  21.7099368   9.2559693  56.5671159  22.5390513
  14.5747174  56.6890005  24.1598398  13.9527183  56.0260710  23.8600626
  15.2452041  56.7151137  23.4772046   7.8074246  55.2549863  23.0489658
   6.9706154  54.8272038  22.8673659   7.7797891  55.4482307  23.9860449
  14.1360681  55.2393928  17.6356858  14.2848801  55.9229393  16.9823531
  14.9427124  55.2199018  18.1506314  27.9538301  52.5455204  23.1109361
  28.7885193  52.9845008  23.2746922  28.0897430  52.0693857  22.2917607
  11.8913314  51.2659106  18.6417927  11.6459356  50.3621436  18.8398137
  12.0609228  51.2676256  17.6997405  11.1608961  46.9987464  16.1404089
  10.4678206  47.0731819  15.4844125  10.9160713  46.2347807  16.6625606
  19.8322618  38.5583065  23.5443579  20.1124372  37.8906254  24.1704006
  20.6173225  38.7512161  23.0318243  17.6356086  57.7342059  15.1068606
  17.0630053  58.3532246  14.6539078  18.2088880  58.2841421  15.6408528
  23.7031476  46.9800699  27.2915155  24.6548899  47.0798797  27.3127379
  23.5334927  46.1878967  27.8013239  20.8553346  58.0179209  16.2377188
  21.7884019  57.9524771  16.4410064  20.7676559  58.8535476  15.7791721
  23.4841363  57.3345079  13.1981136  23.4054994  57.0004943  14.0916894
  24.3051029  57.8266847  13.1972608  26.1819554  50.2006819  26.4057454
  26.1495874  49.2622819  26.5917138  26.7920178  50.2790855  25.6723279
  18.0202885  49.0702872  12.4484658  18.9661989  48.9409080  12.5173076
  17.6417130  48.3317533  12.9254086  23.9924769  40.7358878  22.4111550
  23.7949590  40.4273966  23.2954882  24.6024475  41.4620517  22.5409480
  31.9996104  51.2622825  25.5463491  32.7299492  51.0008114  26.1071194
  31.3903049  50.5251547  25.5865559  17.9041577  53.1220618  33.9085315
  18.8244587  53.2999217  34.1025362  17.8691160  52.1776663  33.7565014
  16.2045802  46.9952848  12.3839543  15.2977257  46.6985961  12.4602257
  16.4821783  46.6982666  11.5173830   7.1223742  48.3159211  22.8338590
   6.8026527  47.4624520  22.5412964   6.5757170  48.5307790  23.5896557
  10.9003650  51.0321652  26.5508096  11.1189660  51.9638760  26.5696130
  11.3129424  50.6729627  27.3362900  17.8207868  41.5389738  18.5383785
  17.0108596  41.1936823  18.9139031  18.5092285  41.2297281  19.1271396
  19.7498416  40.6167784  20.1608081  20.3029455  41.0363238  20.8198105
  19.9868502  39.6903533  20.2031037  14.9744587  43.8539783  12.5251523
  15.8363751  44.1794681  12.7847340  15.1594931  43.0671279  12.0124588
   6.9912002  51.9362123  24.8031711   6.2975474  51.5216076  24.2901666
   7.7384993  51.9782659  24.2065130  23.1277223  42.7268310  19.6686746
  22.5475892  43.3853114  19.2864798  22.8613156  41.9045654  19.2574163
  21.5780789  42.1273367  21.8708066  22.0780568  42.2389902  21.0622385
  22.2216397  41.8234420  22.5108874   8.9048745  51.8680377  22.6797726
   8.8819433  51.9668064  21.7279609   9.2149381  52.7145527  23.0014892
  11.5636123  53.9256532  26.7944341  12.5179376  53.8940474  26.7274272
  11.3648646  53.4647155  27.6094567  12.1535505  52.4957648  29.3615138
  12.9728394  52.9901726  29.3849976  12.4272313  51.5789616  29.3332706
  21.9102101  44.8868400  18.7243094  21.0227956  45.1718051  18.5063289
  22.3256090  44.7262163  17.8770371  25.2616637  44.9114921  22.4397433
  26.0377027  45.4011373  22.7122050  24.5364771  45.3372975  22.8969303
  27.6989196  45.6242540  23.4971374  28.2933687  45.3838276  22.7864682
  27.7715779  44.9049671  24.1244910   9.9186351  59.4676151  23.8114539
   9.7840819  58.7076552  23.2452537   9.5018414  60.1917051  23.3443327
  21.0545314  54.6513075  12.8191114  21.7581165  54.8563077  13.4348770
  20.3307963  55.2189837  13.0840197  21.8843125  50.4022936  18.9393384
  21.8278326  50.8591487  18.1001016  22.4371467  49.6413621  18.7616227
  25.6947931  46.1912668  19.7643504  25.4384865  45.7909303  20.5951711
  25.0700799  46.9056462  19.6393643  30.0060269  48.9308741  22.2714795
  29.4459827  49.0001930  23.0446357  29.4003772  48.7549726  21.5514291
  13.0755477  60.3645468  24.0232981  12.9587862  61.3090901  23.9211672
  12.2547924  60.0619030  24.4118780  22.9632012  55.0895604  14.8689574
  23.7977616  54.6576802  14.6867049  22.8016355  54.9177618  15.7966468
  22.6177904  51.5927717  16.2345913  22.5626708  51.4271989  15.2934357
  21.9923959  52.3003750  16.3908103  15.9274030  41.0935826  15.8131232
  15.9152699  42.0377666  15.9699503  16.8197451  40.9105972  15.5190693
  14.1009991  61.0173730  27.2388910  15.0037238  61.0497340  27.5555405
  13.8747362  60.0874181  27.2535245  15.8563593  59.7704717  23.8998988
  14.9059225  59.7706578  23.7863361  16.1596080  59.0237451  23.3835023
  19.7426149  37.6878603  20.0677168  18.9758545  37.1337090  20.2133851
  20.1536854  37.7600472  20.9291320  11.7467910  43.9763399  34.1582350
  12.6099372  43.6200204  34.3685674  11.1733321  43.6377293  34.8457754
  31.5916287  65.6065255  24.9644751  32.2294697  65.4872002  24.2608091
  31.4737130  66.5546099  25.0232703  28.4005993  65.5592683  24.9006275
  28.0624505  65.4433748  24.0126810  29.2695761  65.1583848  24.8807282
  24.2592809  67.4128160  20.8903166  23.6957674  67.3218096  20.1219454
  24.1445204  66.5928064  21.3705659  28.8825776  66.7127535  30.8592481
  28.8714417  66.3180333  29.9872985  29.0446416  65.9793607  31.4526252
  21.8057241  68.9079351  23.7287387  22.5978533  68.5670176  23.3133686
  22.0453891  69.0174326  24.6489540  29.8392368  71.0799127  16.2017631
  29.1880347  71.6653208  15.8151645  30.6336730  71.6105322  16.2612669
  23.7647995  68.1688264  16.6004766  24.5378871  67.6217251  16.4617641
  24.1173394  69.0332514  16.8119227  25.6033037  69.4964647  29.8071665
  25.3122903  70.4010277  29.6918331  26.2390022  69.5381174  30.5215734
  26.5289244  66.8741495  26.3973025  27.1252817  66.6497518  25.6829987
  26.5864216  66.1326241  26.9998472  26.1014273  64.3280930  14.2323216
  26.3539793  63.8062452  13.4706679  25.1638832  64.1647076  14.3349899
  31.1457555  63.3316709  22.0397959  31.9320645  62.9136132  21.6888376
  31.4096260  64.2362801  22.2079607  31.3167633  68.7689559  16.7386616
  30.6813466  68.8424186  17.4507520  30.9865039  69.3583158  16.0605695
  36.5465983  63.2691942  22.9430937  37.2791155  62.6991159  23.1768767
  35.7905338  62.8813542  23.3837443  25.8210561  66.2309036  16.4347590
  25.7046819  65.5553940  17.1028675  25.9312821  65.7441410  15.6179744
  28.1642102  65.6919184  20.1394280  27.8000310  65.1649805  20.8507201
  29.0209218  65.3017653  19.9660765  34.0691403  56.9813516  27.4025546
  33.7374728  57.8508927  27.1786761  33.4737016  56.6649800  28.0819576
  27.8047589  60.7209083  15.1355628  27.9721992  61.5889320  15.5026099
  27.6144758  60.8836365  14.2116917  30.5622922  69.1826062  26.8021459
  30.2623646  70.0851101  26.6937266  30.2173982  68.9158245  27.6542611
  24.0135404  65.6339859  22.8358163  23.0885900  65.5016073  23.0435855
  24.2619817  66.4134078  23.3328105  33.9620066  61.7008602  24.4818896
  33.0536944  61.6324011  24.1877657  33.9107662  62.1780547  25.3100721
  27.7836810  63.1766741  16.1202295  27.6636435  63.6223792  16.9587775
  27.0889399  63.5252058  15.5615833  21.3744215  65.2773133  23.6701952
  21.5036596  65.5307611  24.5841364  20.6941666  65.8700841  23.3506607
  25.5443702  75.9470382  19.7692426  25.4667732  76.8978208  19.8480907
  24.9405346  75.6016255  20.4267353  28.0360932  63.1198248  32.4253793
  27.2594266  63.6792168  32.4156658  28.6751495  63.6055031  32.9468663
  35.8281713  59.9025041  26.2596770  35.1856093  60.1957574  25.6136564
  35.3236641  59.7877961  27.0649967  33.4821876  63.6488214  16.9482629
  34.3939732  63.8815601  16.7730327  32.9731523  64.2325258  16.3857708
  26.2907304  65.9283701  31.9871760  27.0321989  66.4668745  31.7106584
  25.5844290  66.5549990  32.1443312  31.7662644  68.0712842  30.5843922
  32.1746000  67.6295252  29.8398554  31.0439906  67.4965469  30.8378115
  28.1193714  63.0085449  27.9577479  28.9654909  63.4324862  28.1012128
  28.0592352  62.3519073  28.6516042  32.0891459  68.6314032  24.3396211
  31.4600321  68.7959747  23.6372278  31.7017121  69.0455642  25.1107175
  35.9680691  69.5668470  21.6940574  35.2831729  69.9467372  21.1437608
  36.0524540  70.1763797  22.4272522  31.2693159  60.6689817  29.6158652
  31.0254091  61.4231877  29.0792928  31.5453090  61.0475164  30.4505899
  33.2231622  67.2128429  28.2935918  33.4348517  67.8560189  27.6170299
  33.1761370  66.3790746  27.8257848  30.8257851  59.8246250  25.1972490
  29.9642330  60.1227503  25.4889228  30.8520286  60.0416649  24.2653523
  27.6419421  68.3688440  21.6046296  28.1057766  68.6476143  20.8150918
  27.3776219  67.4671885  21.4219386  24.5343502  67.9159922  24.5426059
  25.1044859  68.3447190  23.9043543  25.1251613  67.6342507  25.2410245
  26.5788307  64.4911593  18.4135861  27.2812350  64.9432636  18.8809787
  26.2468935  63.8495412  19.0415754  25.0268668  63.0823349  32.7887070
  24.3967329  63.7639630  33.0222467  24.9204756  62.9706431  31.8440208
  20.3213641  62.7495145  23.7152994  19.5312695  63.0052674  23.2393105
  20.8124888  63.5643483  23.8205035  34.3377450  70.0900385  26.4658275
  35.1594894  69.6880572  26.1840957  34.3339853  69.9868619  27.4174391
  22.2728386  63.1139725  20.6736471  21.4759549  63.2258419  21.1919967
  22.0453978  63.4526377  19.8077362  28.1034054  69.6384428  28.6218986
  28.1678486  70.1004835  29.4577158  27.3944977  69.0081793  28.7501296
  18.6051344  63.0025636  26.1467985  18.8559382  63.8872646  26.4125561
  19.1410892  62.8230237  25.3743077  42.4283443  66.4339133  22.8143247
  41.6747152  65.8646531  22.6587251  42.5630984  66.4001798  23.7613881
  27.8182071  71.3052535  18.4897966  27.6827746  72.1504071  18.9182814
  28.3591884  71.5071813  17.7263900  21.2711469  68.8227973  19.0625891
  21.7835989  69.6171224  19.2131456  21.9234181  68.1254264  18.9959493
  23.0806353  71.9393730  21.1448644  23.2572982  72.8611694  20.9569628
  23.8763187  71.6252149  21.5743024  22.3658710  63.9858362  31.0210807
  22.2512225  63.0843619  31.3217906  21.5103228  64.2322058  30.6695624
  29.4450548  71.9276102  32.6198308  29.0014402  71.1412481  32.3019213
  30.1067761  72.1155252  31.9542199  24.2037669  73.4571904  27.1458987
  24.7545094  73.3288967  26.3735981  23.3649145  73.7566793  26.7953879
  31.5431786  72.2078902  30.6479709  31.5250261  73.0287783  30.1559979
  32.4651706  72.0832977  30.8729851  28.0004840  69.7223031  31.4903218
  28.5333177  68.9611320  31.2602526  27.4718921  69.4296683  32.2327372
  31.1674535  54.8283097  27.0196859  30.8238804  55.7184739  26.9435970
  31.5353497  54.6384755  26.1566444  19.2360385  67.1516628  19.8385462
  20.0735607  67.5613636  19.6219169  19.4138653  66.2116070  19.8085656
  31.1324817  64.8191708  15.5269295  30.6171441  65.5896313  15.7657682
  30.8602126  64.1456845  16.1502356  28.7171929  59.6641409  20.5854533
  27.8613525  59.2748260  20.4060172  29.1298880  59.7433370  19.7254319
  30.2471075  57.1987752  24.9846093  29.7435871  57.1617888  24.1713898
  30.5401682  58.1080495  25.0442749  26.4913961  57.2826482  23.9912274
  27.3566958  57.0869291  23.6318164  26.5591470  57.0536834  24.9181631
  36.1059092  67.5724063  17.4622468  35.3288534  67.2335223  17.0177630
  36.7850573  67.5776686  16.7877433  30.9211121  62.6918801  17.3529076
  30.6161256  63.0064950  18.2039219  31.8741563  62.7700220  17.3956409
  29.3657553  68.8509024  19.0022030  28.8378914  68.1161783  18.6895267
  28.8645055  69.6283700  18.7561998  34.3450399  67.0458044  24.1189076
  33.6874073  67.7357306  24.2069205  35.1490798  67.4354476  24.4623062
  24.0976280  59.5128690  21.3628641  24.6720032  59.2903872  20.6301834
  24.6847263  59.5817385  22.1157243  33.1555857  65.4002417  22.1693018
  33.6687739  66.0332409  22.6714728  33.8057081  64.8003613  21.8036378
  24.4245867  61.5433151  15.3824527  23.5883179  61.8807838  15.7033801
  24.2850637  61.4082131  14.4451664  26.3998948  56.3869939  20.0903711
  25.7463360  56.0718956  19.4660325  26.3579422  55.7645680  20.8163534
  27.5110153  66.6689234  12.0057003  26.6037214  66.4378488  12.2048152
  28.0081185  65.8726853  12.1930984  30.4178232  75.3786741  14.9253689
  29.7439930  75.6818438  15.5338647  30.8044054  76.1815822  14.5759146
  29.6336688  62.8751873  24.4151358  28.7159250  63.0966820  24.2573046
  30.0496832  62.9498183  23.5563066  30.4171736  64.2743288  19.5454039
  31.1643555  64.7864685  19.2361161  30.6863325  63.9527341  20.4058432
  28.6898386  66.7701829  16.5280993  27.7809605  66.4860862  16.6253463
  28.7193470  67.1900908  15.6684300  33.9217654  70.3808418  20.2972160
  33.4679981  69.5399328  20.3537351  33.2911620  71.0169817  20.6346941
  32.8650573  61.3100405  21.5272828  32.1273330  60.7977791  21.8583070
  33.1177347  60.8700786  20.7156105  32.3650593  72.2184915  21.2321979
  32.6573567  72.7789972  20.5134344  32.8749213  72.5113476  21.9875138
  32.9662200  54.0876657  22.1214597  33.2721077  53.2274020  21.8340512
  33.6914805  54.6794277  21.9213591  19.2586557  64.4907343  20.5096195
  19.0610956  63.8976704  19.7847262  18.7033220  64.1859553  21.2272134
  27.2383280  64.3830450  22.6290788  27.2931890  63.4304286  22.5533265
  26.4274482  64.5389889  23.1132087  28.3874474  68.3110573  13.8669071
  27.9493904  67.5946432  13.4074709  29.1284915  68.5386687  13.3054163
  25.1775640  63.0007509  20.3881167  24.3643506  63.3001680  20.7946359
  25.6734634  62.6063198  21.1055649  27.3284218  72.9965266  22.3215432
  27.2860397  73.2226113  21.3923964  28.2446917  72.7628641  22.4701233
  30.7749852  63.4649334  29.2196061  31.1299239  63.6920807  30.0790527
  31.4221983  63.7967711  28.5973316  36.5047589  66.5867770  19.9245390
  36.3665487  66.7769366  18.9966579  36.1483808  67.3487153  20.3813441
  24.6689715  60.5725865  26.0042402  25.3089094  60.4314624  25.3065365
  23.8367245  60.2860378  25.6281004  36.5316968  68.6544297  24.9356662
  36.9653475  68.5619586  25.7839716  37.2448549  68.6301797  24.2976678
  25.4450019  69.8728295  22.1177395  26.2390617  69.3778615  21.9159969
  24.7341711  69.3446158  21.7545100  30.2644863  72.2546391  26.4689762
  30.3181886  72.8237327  27.2367478  29.3959645  72.4248276  26.1043799
  21.7532782  64.0171377  18.1937147  20.8230370  63.9555833  18.4107109
  21.8490254  63.4947330  17.3973788  21.6718331  60.5426190  20.7815389
  21.9325149  61.4571523  20.6724549  22.4935504  60.0750632  20.9312002
  23.1443257  61.9563947  27.9514213  23.8166310  61.7481309  27.3026862
  22.3173043  61.7586033  27.5119446  37.3932518  68.6967997  27.4689547
  37.5868408  69.6013808  27.7148822  37.2933136  68.2375416  28.3028132
  32.4547627  68.8474740  33.0430428  32.3033133  68.6185292  32.1260511
  32.4452306  69.8045342  33.0561773  29.2232963  66.4206653  28.0276694
  30.1525023  66.5717812  27.8545661  28.8023993  66.5090674  27.1725341
  28.0221295  70.4457317  25.7975232  27.8832380  70.0776102  26.6701170
  27.2335891  70.9604957  25.6259189  28.6169447  75.5466414  17.1400768
  28.7921202  75.0754457  17.9546391  27.9302235  76.1732180  17.3682029
  29.5726510  69.8238920  23.1864069  29.2376342  69.7839690  24.0821719
  29.0730456  69.1583636  22.7134480  23.5470754  65.2306550  28.7116651
  23.4090552  64.4986789  29.3128190  24.4575677  65.1415450  28.4300838
  32.5085702  67.1694954  13.4601129  31.8914872  66.4441782  13.3634182
  32.0402190  67.9304315  13.1168203  26.1753055  64.9426509  28.2000330
  26.8852673  64.3019702  28.1586949  26.1322363  65.1939404  29.1226511
  34.1639833  71.8793863  31.1206909  34.1052379  71.1953083  30.4537492
  34.5659352  72.6212853  30.6687535  24.8881988  61.9291727  30.0195970
  24.3519346  61.4782466  30.6717566  24.2998697  62.0637636  29.2766434
  23.1830532  78.6955777  23.9140628  23.4227130  79.3274301  24.5919647
  22.3399728  78.3443817  24.2005988  24.2984247  61.3880379  12.5822433
  23.4213714  61.2669179  12.2184680  24.7742001  60.5966457  12.3301322
  34.1657240  69.8433447  29.3520889  33.2784019  69.5059368  29.4747288
  34.7355792  69.1116478  29.5889654  15.8186388  66.1757538  22.6763940
  16.5057427  65.8619268  22.0884956  15.6634516  67.0798903  22.4031192
  20.6221110  61.0647735  27.1048964  20.5379298  60.4573404  26.3699374
  19.8003816  61.5556753  27.1058461  27.6958394  74.5034899  26.3182132
  27.6228565  75.3089870  26.8301437  27.2535787  74.7026865  25.4930154
  27.4848173  73.7406669  19.8284954  26.7015695  74.2828349  19.9223178
  28.1840919  74.2580649  20.2279195  30.7944824  59.5501298  22.4719159
  31.2913523  58.7971261  22.1520229  30.0231805  59.5865615  21.9062369
  38.6474581  65.2541664  24.1137451  38.6364457  66.1366379  23.7431384
  37.7791960  64.9013215  23.9191988  30.1557077  74.4021733  28.4740291
  30.8685050  75.0369198  28.4016192  29.6647106  74.4985599  27.6580293
  31.8774604  68.3072986  20.0457583  30.9430883  68.4274448  19.8762287
  32.0551273  67.4045452  19.7817592  27.3779792  61.6918681  22.1990844
  27.0077580  61.1389722  22.8871749  27.8738885  61.0876815  21.6465844
  35.2647156  64.1490305  20.5807617  35.7307608  64.9818297  20.5067919
  35.7154656  63.6835287  21.2852875  25.2068991  72.1516176  29.2945862
  25.9078450  72.7852659  29.4475256  24.7364106  72.4930908  28.5341501
  33.3323387  70.4934126  17.5793769  33.6083231  70.3790721  18.4887643
  32.4627885  70.0951611  17.5405942  33.2363818  56.5170892  24.6198518
  32.3226898  56.7475119  24.7880725  33.6656920  56.6009336  25.4712550
  33.0070277  64.7060784  27.1198412  32.3541727  64.9536691  26.4650865
  33.3850657  63.8924922  26.7860889  29.9677451  74.7420477  21.2226582
  30.1499845  73.9242133  21.6854335  30.7910437  74.9588169  20.7851472
  30.3019616  73.6688662  18.4841631  30.8307383  73.1581117  17.8711793
  30.5647836  73.3531192  19.3487164  29.0557850  65.4480595  33.6064449
  28.3798487  65.3474724  34.2766824  29.8785484  65.2919809  34.0700446
  20.8036709  71.6852531  26.2276964  21.3890146  70.9396219  26.3604869
  20.6061547  71.9956488  27.1113628  23.6575364  74.7203779  21.2439407
  22.9885739  75.2049907  20.7603447  23.5188234  74.9672999  22.1582785
  15.3954364  64.2558132  24.9481408  15.4338463  63.7221722  25.7418526
  14.8894657  63.7293337  24.3292385  27.7980633  76.7547522  27.8422065
  28.3498941  76.9179144  28.6071150  28.1386826  77.3451960  27.1702090
  22.7745126  59.1022672  28.4443950  22.8386452  59.9637503  28.0321348
  22.7112246  58.4896674  27.7116308  22.2497399  61.1745805  32.0916984
  22.8769437  60.7922882  32.7054508  21.3925317  60.9560007  32.4572677
  32.6491507  71.5808780  33.6970720  33.1931411  72.1938738  33.2025674
  32.0678352  72.1388358  34.2137733  19.0262941  62.9822234  18.0235339
  19.3216382  62.0732912  17.9702393  18.1250977  62.9609973  17.7016341
  30.9349020  74.7029498  24.8285747  30.8100160  73.9019238  24.3196693
  31.5928111  75.1975691  24.3399717  22.5557188  61.0578230  24.0062888
  21.8343774  61.6714198  23.8670361  23.3450444  61.5935995  23.9279534
  32.9983928  72.5038518  26.4565297  32.0514264  72.3843869  26.3843624
  33.3466702  71.6161016  26.5391559  20.7550783  60.6636332  18.1474664
  20.4263489  59.7833710  17.9649770  21.1090154  60.6084000  19.0351053
  30.0030362  72.2991234  22.6569650  29.8555324  71.3707942  22.8377220
  30.8283855  72.3211325  22.1726725  23.8692606  60.9509301  18.5150142
  24.2088679  61.4795223  17.7928750  24.3164727  61.2889707  19.2908708
  33.6064484  73.1219793  23.7434522  34.5311031  72.9162654  23.6058974
  33.4379787  72.8736194  24.6523864  26.5636047  59.3346352  27.9653210
  26.2232867  58.5354165  28.3673890  25.8575053  59.6348063  27.3930043
  27.2152519  56.4195664  26.4180533  28.0378588  55.9456143  26.2959423
  27.4590582  57.1986148  26.9179219  25.8560753  59.4483923  16.7143435
  26.5769116  59.8265176  16.2107151  25.2326057  60.1672800  16.8178413
  29.9991876  60.1529072  17.6501767  30.2155490  61.0353710  17.3490595
  29.5185943  59.7615285  16.9207409  24.7391097  63.1114785  24.2272512
  24.5935678  63.4255088  25.1196793  24.2616301  63.7299685  23.6743410
  26.5987480  60.1017333  24.2753401  26.5849049  59.2058426  23.9385699
  27.3159908  60.1087997  24.9091687  28.4513611  60.5354673  26.3206528
  28.1931389  61.4571744  26.3190859  27.9198651  60.1385108  27.0106993
  33.3959800  73.6405460  19.0996614  33.5696677  73.0751883  18.3470466
  33.8888691  74.4406355  18.9176104  19.2136760  65.6520129  27.1660173
  18.6690228  66.4279937  27.2980447  20.0916109  65.9990934  27.0079294
  26.0024376  58.9831713  19.5440971  26.1240287  58.0548360  19.7431859
  25.7126419  58.9970399  18.6319287  28.8715567  56.6686624  22.6807691
  28.8937263  56.7325957  21.7259671  29.2883626  55.8291132  22.8748197
  39.2499191  66.4041883  20.7186914  39.6930337  65.6549209  20.3206037
  38.3725701  66.3952020  20.3360646  34.3834972  72.9572225  16.1993512
  35.0785877  73.5778917  16.4180827  34.7258122  72.1067576  16.4745890
  20.0002781  64.7790026  30.0590330  19.2584518  64.9272661  30.6454960
  19.6795526  65.0398291  29.1957079  36.2826395  70.4071930  17.7280843
  36.8077719  70.7459203  17.0030163  36.1948748  69.4718946  17.5443978
  27.9446444  74.3206004  29.8570720  28.2533571  74.0755151  30.7293419
  28.7421926  74.5252642  29.3689590  27.9667056  76.4743914  22.0876096
  27.5272046  75.9820292  22.7808953  28.7175173  75.9316881  21.8468171
  20.4459395  72.6655454  22.0900724  21.2717415  72.3659226  21.7099368
  20.0953447  71.8963077  22.5390513  25.4140928  72.0181923  24.1598398
  24.7920938  71.3552628  23.8600626  26.0845795  72.0443055  23.4772046
  18.6468000  70.5841781  23.0489658  17.8099908  70.1563955  22.8673659
  18.6191646  70.7774224  23.9860449  35.9720301  71.0404834  33.0332041
  35.1815845  71.0228973  32.4936540  35.7353656  71.5793128  33.7881077
  36.0918177  67.8897300  30.3464769  36.1416181  67.7247308  31.2880292
  35.9832100  67.0224559  29.9562650  24.9754435  70.5685846  17.6356858
  25.1242556  71.2521310  16.9823531  25.7820879  70.5490936  18.1506314
  33.3821939  63.8728228  31.6624076  34.2831802  63.7334693  31.3708074
  33.4569913  64.0382683  32.6022254  27.7164744  61.2495083  30.5077262
  26.8468054  61.5428649  30.2359851  27.9524225  61.8335528  31.2284526
  37.5936373  70.3094242  30.5906791  37.3021182  70.6724222  31.4270252
  36.9808505  69.5961250  30.4120123  38.7932056  67.8747122  23.1109361
  39.6278947  68.3136926  23.2746922  38.9291184  67.3985775  22.2917607
  35.8423562  65.4326856  29.0586849  36.3177683  65.6254503  28.2505700
  34.9189127  65.4886042  28.8130233  22.7307068  66.5951024  18.6417927
  22.4853110  65.6913354  18.8398137  22.9002983  66.5968174  17.6997405
  30.4203778  57.4674700  28.0242683  30.9385722  58.2035727  27.6989171
  30.0658911  57.7738693  28.8589442  22.0002716  62.3279381  16.1404089
  21.3071961  62.4023736  15.4844125  21.7554468  61.5639725  16.6625606
  30.6716372  53.8874983  23.5443579  30.9518126  53.2198172  24.1704006
  31.4566979  54.0804078  23.0318243  28.4749841  73.0633976  15.1068606
  27.9023808  73.6824164  14.6539078  29.0482634  73.6133338  15.6408528
  34.5425231  62.3092617  27.2915155  35.4942653  62.4090714  27.3127379
  34.3728681  61.5170885  27.8013239  32.5639610  59.3948200  27.4774555
  31.9689542  59.6753213  26.7821044  32.2789307  59.8842101  28.2491297
  31.6947101  73.3471127  16.2377188  32.6277774  73.2816688  16.4410064
  31.6070313  74.1827393  15.7791721  34.3235117  72.6636997  13.1981136
  34.2448749  72.3296861  14.0916894  35.1444784  73.1558765  13.1972608
  37.0213308  65.5298736  26.4057454  36.9889628  64.5914737  26.5917138
  37.6313932  65.6082773  25.6723279  28.8596639  64.3994789  12.4484658
  29.8055744  64.2700997  12.5173076  28.4810884  63.6609451  12.9254086
  37.1707797  62.3209780  26.4515737  36.6546846  61.5368236  26.2645666
  38.0547745  61.9928496  26.6162257  34.8318524  56.0650795  22.4111550
  34.6343345  55.7565883  23.2954882  35.4418229  56.7912434  22.5409480
  42.8389858  66.5914743  25.5463491  43.5693247  66.3300031  26.1071194
  42.2296804  65.8543465  25.5865559  40.9205155  64.7322606  26.1437942
  40.1938319  64.5978571  25.5354434  40.5052442  65.0399434  26.9494660
  28.7435332  68.4512535  33.9085315  29.6638341  68.6291134  34.1025362
  28.7084915  67.5068581  33.7565014  27.0439556  62.3244766  12.3839543
  26.1371012  62.0277878  12.4602257  27.3215537  62.0274584  11.5173830
  17.9617497  63.6451129  22.8338590  17.6420281  62.7916437  22.5412964
  17.4150925  63.8599707  23.5896557  21.7397404  66.3613570  26.5508096
  21.9583414  67.2930678  26.5696130  22.1523178  66.0021544  27.3362900
  28.6601622  56.8681655  18.5383785  27.8502350  56.5228740  18.9139031
  29.3486039  56.5589199  19.1271396  30.5892170  55.9459702  20.1608081
  31.1423209  56.3655156  20.8198105  30.8262257  55.0195450  20.2031037
  25.8138341  59.1831701  12.5251523  26.6757505  59.5086599  12.7847340
  25.9988685  58.3963197  12.0124588  17.8305757  67.2654041  24.8031711
  17.1369228  66.8507993  24.2901666  18.5778748  67.3074577  24.2065130
  33.9670977  58.0560227  19.6686746  33.3869647  58.7145031  19.2864798
  33.7006910  57.2337572  19.2574163  32.4174544  57.4565285  21.8708066
  32.9174322  57.5681820  21.0622385  33.0610152  57.1526338  22.5108874
  26.4756540  65.3643915  34.7575907  25.9923621  66.1644275  34.9639796
  26.5617479  65.3751860  33.8043351  19.7442499  67.1972294  22.6797726
  19.7213187  67.2959982  21.7279609  20.0543136  68.0437445  23.0014892
  22.4029877  69.2548449  26.7944341  23.3573131  69.2232392  26.7274272
  22.2042401  68.7939073  27.6094567  22.9929259  67.8249565  29.3615138
  23.8122148  68.3193644  29.3849976  23.2666067  66.9081534  29.3332706
  32.7495856  60.2160318  18.7243094  31.8621711  60.5009968  18.5063289
  33.1649845  60.0554081  17.8770371  36.1010392  60.2406839  22.4397433
  36.8770782  60.7303291  22.7122050  35.3758526  60.6664893  22.8969303
  38.5382950  60.9534458  23.4971374  39.1327441  60.7130194  22.7864682
  38.6109534  60.2341588  24.1244910  20.7580106  74.7968069  23.8114539
  20.6234574  74.0368470  23.2452537  20.3412168  75.5208969  23.3443327
  31.8939069  69.9804992  12.8191114  32.5974919  70.1854995  13.4348770
  31.1701718  70.5481754  13.0840197  32.7236879  65.7314854  18.9393384
  32.6672081  66.1883405  18.1001016  33.2765222  64.9705538  18.7616227
  36.5341685  61.5204585  19.7643504  36.2778619  61.1201221  20.5951711
  35.9094553  62.2348379  19.6393643  40.8454023  64.2600659  22.2714795
  40.2853581  64.3293848  23.0446357  40.2397526  64.0841643  21.5514291
  23.9149232  75.6937386  24.0232981  23.7981616  76.6382818  23.9211672
  23.0941678  75.3910947  24.4118780  33.8025766  70.4187522  14.8689574
  34.6371370  69.9868720  14.6867049  33.6410109  70.2469535  15.7966468
  33.4571659  66.9219635  16.2345913  33.4020462  66.7563906  15.2934357
  32.8317714  67.6295668  16.3908103  18.2464174  62.1587699  30.0607335
  18.8923037  61.6486653  30.5494561  18.0381325  62.8956381  30.6350761
  30.7717566  69.2268547  35.5599476  31.6408725  69.4009199  35.1986111
  30.2924317  70.0462964  35.4375205  26.7667784  56.4227744  15.8131232
  26.7546454  57.3669584  15.9699503  27.6591206  56.2397889  15.5190693
  24.9403746  76.3465648  27.2388910  25.8430993  76.3789258  27.5555405
  24.7141116  75.4166099  27.2535245  26.6957348  75.0996634  23.8998988
  25.7452979  75.0998496  23.7863361  26.9989834  74.3529369  23.3835023
  30.5819903  53.0170521  20.0677168  29.8152299  52.4629007  20.2133851
  30.9930608  53.0892389  20.9291320  42.4310041  80.9357173  24.9644751
  43.0688451  80.8163920  24.2608091  42.3130884  81.8838017  25.0232703
  39.2399748  80.8884601  24.9006275  38.9018259  80.7725665  24.0126810
  40.1089516  80.4875766  24.8807282  35.0986563  82.7420077  20.8903166
  34.5351429  82.6510014  20.1219454  34.9838958  81.9219982  21.3705659
  39.7219531  82.0419453  30.8592481  39.7108172  81.6472251  29.9872985
  39.8840170  81.3085525  31.4526252  32.6450995  84.2371269  23.7287387
  33.4372287  83.8962093  23.3133686  32.8847646  84.3466244  24.6489540
  40.6786122  86.4091045  16.2017631  40.0274102  86.9945125  15.8151645
  41.4730485  86.9397240  16.2612669  34.6041749  83.4980182  16.6004766
  35.3772625  82.9509169  16.4617641  34.9567148  84.3624431  16.8119227
  36.4426792  84.8256564  29.8071665  36.1516658  85.7302195  29.6918331
  37.0783776  84.8673092  30.5215734  37.3682999  82.2033413  26.3973025
  37.9646571  81.9789435  25.6829987  37.4257970  81.4618158  26.9998472
  36.9408027  79.6572848  14.2323216  37.1933548  79.1354369  13.4706679
  36.0032586  79.4938994  14.3349899  41.9851310  78.6608627  22.0397959
  42.7714399  78.2428050  21.6888376  42.2490014  79.5654719  22.2079607
  42.1561387  84.0981477  16.7386616  41.5207220  84.1716103  17.4507520
  41.8258794  84.6875076  16.0605695  47.3859737  78.5983860  22.9430937
  48.1184909  78.0283077  23.1768767  46.6299093  78.2105460  23.3837443
  36.6604316  81.5600954  16.4347590  36.5440574  80.8845858  17.1028675
  36.7706576  81.0733328  15.6179744  39.0035857  81.0211101  20.1394280
  38.6394064  80.4941722  20.8507201  39.8602973  80.6309570  19.9660765
  38.6441344  76.0501001  15.1355628  38.8115746  76.9181237  15.5026099
  38.4538513  76.2128283  14.2116917  41.4016677  84.5117980  26.8021459
  41.1017400  85.4143019  26.6937266  41.0567736  84.2450163  27.6542611
  34.8529158  80.9631777  22.8358163  33.9279655  80.8307991  23.0435855
  35.1013572  81.7425996  23.3328105  44.8013821  77.0300520  24.4818896
  43.8930698  76.9615928  24.1877657  44.7501417  77.5072465  25.3100721
  38.6230565  78.5058658  16.1202295  38.5030190  78.9515709  16.9587775
  37.9283153  78.8543976  15.5615833  32.2137969  80.6065050  23.6701952
  32.3430351  80.8599529  24.5841364  31.5335421  81.1992758  23.3506607
  36.3837457  91.2762300  19.7692426  36.3061486  92.2270125  19.8480907
  35.7799100  90.9308173  20.4267353  38.8754687  78.4490166  32.4253793
  38.0988021  79.0084086  32.4156658  39.5145250  78.9346949  32.9468663
  46.6675467  75.2316958  26.2596770  46.0249847  75.5249492  25.6136564
  46.1630396  75.1169879  27.0649967  44.3215631  78.9780132  16.9482629
  45.2333487  79.2107518  16.7730327  43.8125278  79.5617176  16.3857708
  37.1301059  81.2575619  31.9871760  37.8715743  81.7960663  31.7106584
  36.4238044  81.8841908  32.1443312  42.6056398  83.4004759  30.5843922
  43.0139755  82.9587170  29.8398554  41.8833660  82.8257387  30.8378115
  38.9587469  78.3377366  27.9577479  39.8048664  78.7616780  28.1012128
  38.8986106  77.6810991  28.6516042  42.9285213  83.9605950  24.3396211
  42.2994076  84.1251664  23.6372278  42.5410875  84.3747560  25.1107175
  46.8074445  84.8960388  21.6940574  46.1225483  85.2759289  21.1437608
  46.8918294  85.5055715  22.4272522  42.1086914  75.9981735  29.6158652
  41.8647846  76.7523795  29.0792928  42.3846844  76.3767082  30.4505899
  44.0625377  82.5420347  28.2935918  44.2742272  83.1852107  27.6170299
  44.0155125  81.7082663  27.8257848  41.6651606  75.1538168  25.1972490
  40.8036085  75.4519421  25.4889228  41.6914040  75.3708566  24.2653523
  38.4813175  83.6980358  21.6046296  38.9451521  83.9768061  20.8150918
  38.2169973  82.7963803  21.4219386  35.3737256  83.2451840  24.5426059
  35.9438613  83.6739108  23.9043543  35.9645368  82.9634424  25.2410245
  37.4182061  79.8203511  18.4135861  38.1206104  80.2724554  18.8809787
  37.0862690  79.1787329  19.0415754  35.8662423  78.4115267  32.7887070
  35.2361083  79.0931548  33.0222467  35.7598510  78.2998349  31.8440208
  31.1607395  78.0787063  23.7152994  30.3706449  78.3344592  23.2393105
  31.6518642  78.8935401  23.8205035  45.1771205  85.4192302  26.4658275
  45.9988648  85.0172490  26.1840957  45.1733607  85.3160537  27.4174391
  33.1122140  78.4431642  20.6736471  32.3153304  78.5550337  21.1919967
  32.8847733  78.7818295  19.8077362  38.9427808  84.9676346  28.6218986
  39.0072241  85.4296753  29.4577158  38.2338732  84.3373711  28.7501296
  29.4445098  78.3317554  26.1467985  29.6953136  79.2164564  26.4125561
  29.9804646  78.1522155  25.3743077  53.2677198  81.7631051  22.8143247
  52.5140906  81.1938449  22.6587251  53.4024739  81.7293715  23.7613881
  38.6575826  86.6344453  18.4897966  38.5221500  87.4795989  18.9182814
  39.1985638  86.8363731  17.7263900  35.1443165  72.7136033  35.1512321
  34.7510111  72.1602232  35.8259965  35.9609306  73.0246611  35.5418839
  32.1105223  84.1519891  19.0625891  32.6229744  84.9463141  19.2131456
  32.7627936  83.4546182  18.9959493  33.9200108  87.2685647  21.1448644
  34.0966736  88.1903612  20.9569628  34.7156941  86.9544067  21.5743024
  38.0611126  74.1293912  32.7432578  38.8020840  74.7301065  32.6637040
  38.2929049  73.3871550  32.1850620  33.2052464  79.3150279  31.0210807
  33.0905979  78.4135537  31.3217906  32.3496982  79.5613976  30.6695624
  40.2844302  87.2568020  32.6198308  39.8408156  86.4704398  32.3019213
  40.9461516  87.4447170  31.9542199  35.0431423  88.7863821  27.1458987
  35.5938848  88.6580885  26.3735981  34.2042899  89.0858710  26.7953879
  42.3825540  87.5370820  30.6479709  42.3644015  88.3579701  30.1559979
  43.3045460  87.4124895  30.8729851  38.8398594  85.0514949  31.4903218
  39.3726931  84.2903237  31.2602526  38.3112675  84.7588601  32.2327372
  42.0068289  70.1575015  27.0196859  41.6632559  71.0476657  26.9435970
  42.3747252  69.9676673  26.1566444  30.0754140  82.4808545  19.8385462
  30.9129362  82.8905554  19.6219169  30.2532408  81.5407988  19.8085656
  41.9718572  80.1483626  15.5269295  41.4565195  80.9188231  15.7657682
  41.6995880  79.4748762  16.1502356  39.5565683  74.9933327  20.5854533
  38.7007279  74.6040177  20.4060172  39.9692635  75.0725288  19.7254319
  41.0864830  72.5279670  24.9846093  40.5829625  72.4909805  24.1713898
  41.3795437  73.4372413  25.0442749  37.3307716  72.6118400  23.9912274
  38.1960712  72.4161209  23.6318164  37.3985224  72.3828752  24.9181631
  46.9452846  82.9015981  17.4622468  46.1682289  82.5627140  17.0177630
  47.6244327  82.9068604  16.7877433  41.7604875  78.0210718  17.3529076
  41.4555011  78.3356867  18.2039219  42.7135317  78.0992138  17.3956409
  40.2051307  84.1800942  19.0022030  39.6772669  83.4453701  18.6895267
  39.7038810  84.9575618  18.7561998  45.1844153  82.3749962  24.1189076
  44.5267827  83.0649223  24.2069205  45.9884552  82.7646394  24.4623062
  34.9370035  74.8420608  21.3628641  35.5113787  74.6195789  20.6301834
  35.5241017  74.9109302  22.1157243  43.9949612  80.7294335  22.1693018
  44.5081494  81.3624327  22.6714728  44.6450836  80.1295530  21.8036378
  35.2639622  76.8725069  15.3824527  34.4276934  77.2099755  15.7033801
  35.1244391  76.7374049  14.4451664  37.2392702  71.7161857  20.0903711
  36.5857115  71.4010874  19.4660325  37.1973176  71.0937597  20.8163534
  38.3503907  81.9981152  12.0057003  37.4430969  81.7670405  12.2048152
  38.8474939  81.2018771  12.1930984  41.2571986  90.7078659  14.9253689
  40.5833685  91.0110356  15.5338647  41.6437808  91.5107739  14.5759146
  40.4730443  78.2043790  24.4151358  39.5553004  78.4258737  24.2573046
  40.8890586  78.2790101  23.5563066  41.2565490  79.6035206  19.5454039
  42.0037309  80.1156603  19.2361161  41.5257080  79.2819259  20.4058432
  39.5292141  82.0993747  16.5280993  38.6203360  81.8152779  16.6253463
  39.5587224  82.5192825  15.6684300  44.7611408  85.7100336  20.2972160
  44.3073735  84.8691246  20.3537351  44.1305375  86.3461735  20.6346941
  43.7044328  76.6392322  21.5272828  42.9667084  76.1269708  21.8583070
  43.9571101  76.1992704  20.7156105  43.2044347  87.5476833  21.2321979
  43.4967322  88.1081890  20.5134344  43.7142968  87.8405394  21.9875138
  43.8055955  69.4168574  22.1214597  44.1114832  68.5565938  21.8340512
  44.5308560  70.0086194  21.9213591  30.0980311  79.8199261  20.5096195
  29.9004711  79.2268621  19.7847262  29.5426975  79.5151471  21.2272134
  38.0777035  79.7122367  22.6290788  38.1325644  78.7596204  22.5533265
  37.2668237  79.8681806  23.1132087  39.2268228  83.6402490  13.8669071
  38.7887658  82.9238349  13.4074709  39.9678669  83.8678605  13.3054163
  36.0169395  78.3299427  20.3881167  35.2037260  78.6293598  20.7946359
  36.5128389  77.9355116  21.1055649  38.1677972  88.3257184  22.3215432
  38.1254151  88.5518030  21.3923964  39.0840671  88.0920559  22.4701233
  41.6143606  78.7941251  29.2196061  41.9692994  79.0212725  30.0790527
  42.2615737  79.1259628  28.5973316  47.3441343  81.9159687  19.9245390
  47.2059242  82.1061283  18.9966579  46.9877562  82.6779070  20.3813441
  35.5083469  75.9017783  26.0042402  36.1482849  75.7606542  25.3065365
  34.6761000  75.6152296  25.6281004  47.3710723  83.9836214  24.9356662
  47.8047229  83.8911503  25.7839716  48.0842304  83.9593715  24.2976678
  36.2843773  85.2020213  22.1177395  37.0784372  84.7070533  21.9159969
  35.5735466  84.6738076  21.7545100  41.1038618  87.5838308  26.4689762
  41.1575640  88.1529245  27.2367478  40.2353399  87.7540194  26.1043799
  32.5926537  79.3463295  18.1937147  31.6624125  79.2847750  18.4107109
  32.6884009  78.8239247  17.3973788  32.5112086  75.8718108  20.7815389
  32.7718903  76.7863441  20.6724549  33.3329258  75.4042550  20.9312002
  33.9837011  77.2855865  27.9514213  34.6560065  77.0773227  27.3026862
  33.1566798  77.0877951  27.5119446  48.2326272  84.0259915  27.4689547
  48.4262162  84.9305726  27.7148822  48.1326891  83.5667334  28.3028132
  39.8862583  73.9117806  29.9679874  39.2390498  74.6107755  29.8744351
  40.6563599  74.3453950  30.3356122  43.2941381  84.1766658  33.0430428
  43.1426887  83.9477209  32.1260511  43.2846061  85.1337259  33.0561773
  40.0626717  81.7498571  28.0276694  40.9918777  81.9009730  27.8545661
  39.6417747  81.8382591  27.1725341  38.8615049  85.7749235  25.7975232
  38.7226135  85.4068019  26.6701170  38.0729645  86.2896874  25.6259189
  39.4563201  90.8758331  17.1400768  39.6314957  90.4046375  17.9546391
  38.7695989  91.5024098  17.3682029  40.4120264  85.1530838  23.1864069
  40.0770097  85.1131608  24.0821719  39.9124210  84.4875554  22.7134480
  34.3864508  80.5598468  28.7116651  34.2484306  79.8278706  29.3128190
  35.2969432  80.4707368  28.4300838  43.3479456  82.4986872  13.4601129
  42.7308627  81.7733700  13.3634182  42.8795944  83.2596232  13.1168203
  37.0146809  80.2718427  28.2000330  37.7246428  79.6311619  28.1586949
  36.9716117  80.5231322  29.1226511  45.0033588  87.2085780  31.1206909
  44.9446134  86.5245000  30.4537492  45.4053106  87.9504770  30.6687535
  35.7275743  77.2583645  30.0195970  35.1913100  76.8074383  30.6717566
  35.1392451  77.3929554  29.2766434  34.0224286  94.0247694  23.9140628
  34.2620885  94.6566218  24.5919647  33.1793483  93.6735734  24.2005988
  35.1378002  76.7172296  12.5822433  34.2607468  76.5961097  12.2184680
  35.6135755  75.9258375  12.3301322  45.0050995  85.1725364  29.3520889
  44.1177774  84.8351286  29.4747288  45.5749546  84.4408395  29.5889654
  26.6580142  81.5049456  22.6763940  27.3451182  81.1911186  22.0884956
  26.5028271  82.4090821  22.4031192  31.4614864  76.3939653  27.1048964
  31.3773053  75.7865322  26.3699374  30.6397571  76.8848671  27.1058461
  38.5352148  89.8326817  26.3182132  38.4622320  90.6381788  26.8301437
  38.0929541  90.0318782  25.4930154  38.3241928  89.0698587  19.8284954
  37.5409450  89.6120267  19.9223178  39.0234673  89.5872566  20.2279195
  41.6338578  74.8793216  22.4719159  42.1307278  74.1263178  22.1520229
  40.8625560  74.9157533  21.9062369  49.4868335  80.5833582  24.1137451
  49.4758212  81.4658297  23.7431384  48.6185715  80.2305132  23.9191988
  40.9950832  89.7313651  28.4740291  41.7078804  90.3661115  28.4016192
  40.5040861  89.8277517  27.6580293  42.7168359  83.6364903  20.0457583
  41.7824638  83.7566366  19.8762287  42.8945027  82.7337370  19.7817592
  38.2173547  77.0210599  22.1990844  37.8471334  76.4681639  22.8871749
  38.7132639  76.4168733  21.6465844  46.1040910  79.4782223  20.5807617
  46.5701362  80.3110214  20.5067919  46.5548411  79.0127204  21.2852875
  36.0462745  87.4808094  29.2945862  36.7472205  88.1144577  29.4475256
  35.5757860  87.8222826  28.5341501  44.1717141  85.8226044  17.5793769
  44.4476985  85.7082638  18.4887643  43.3021640  85.4243529  17.5405942
  44.0757573  71.8462810  24.6198518  43.1620653  72.0767036  24.7880725
  44.5050674  71.9301254  25.4712550  43.8464031  80.0352702  27.1198412
  43.1935482  80.2828609  26.4650865  44.2244411  79.2216840  26.7860889
  40.8071205  90.0712395  21.2226582  40.9893600  89.2534051  21.6854335
  41.6304191  90.2880087  20.7851472  41.1413371  88.9980580  18.4841631
  41.6701137  88.4873034  17.8711793  41.4041590  88.6823110  19.3487164
  39.8951604  80.7772513  33.6064449  39.2192241  80.6766642  34.2766824
  40.7179238  80.6211726  34.0700446  31.6430463  87.0144449  26.2276964
  32.2283900  86.2688137  26.3604869  31.4455302  87.3248406  27.1113628
  34.4969119  90.0495697  21.2439407  33.8279494  90.5341824  20.7603447
  34.3581988  90.2964917  22.1582785  26.2348118  79.5850049  24.9481408
  26.2732218  79.0513640  25.7418526  25.7288411  79.0585255  24.3292385
  38.6374387  92.0839440  27.8422065  39.1892695  92.2471062  28.6071150
  38.9780581  92.6743878  27.1702090  33.6138880  74.4314590  28.4443950
  33.6780207  75.2929421  28.0321348  33.5506001  73.8188592  27.7116308
  33.0891153  76.5037722  32.0916984  33.7163192  76.1214800  32.7054508
  32.2319072  76.2851924  32.4572677  43.4885262  86.9100698  33.6970720
  44.0325166  87.5230656  33.2025674  42.9072106  87.4680276  34.2137733
  29.8656696  78.3114152  18.0235339  30.1610137  77.4024830  17.9702393
  28.9644732  78.2901891  17.7016341  41.7742775  90.0321416  24.8285747
  41.6493914  89.2311155  24.3196693  42.4321866  90.5267609  24.3399717
  33.3950943  76.3870148  24.0062888  32.6737529  77.0006116  23.8670361
  34.1844199  76.9227913  23.9279534  43.8377683  87.8330436  26.4565297
  42.8908018  87.7135787  26.3843624  44.1860456  86.9452934  26.5391559
  36.1977256  73.7224575  30.2803539  36.7211658  73.9686871  31.0429849
  35.9789590  74.5544609  29.8606677  31.5944537  75.9928249  18.1474664
  31.2657244  75.1125628  17.9649770  31.9483908  75.9375918  19.0351053
  40.8424116  87.6283152  22.6569650  40.6949079  86.6999859  22.8377220
  41.6677610  87.6503243  22.1726725  34.7086361  76.2801219  18.5150142
  35.0482433  76.8087140  17.7928750  35.1558481  76.6181625  19.2908708
  44.4458238  88.4511711  23.7434522  45.3704786  88.2454572  23.6058974
  44.2773541  88.2028112  24.6523864  37.4029801  74.6638270  27.9653210
  37.0626622  73.8646083  28.3673890  36.6968808  74.9639981  27.3930043
  38.0546273  71.7487582  26.4180533  38.8772342  71.2748060  26.2959423
  38.2984337  72.5278066  26.9179219  36.6954508  74.7775841  16.7143435
  37.4162870  75.1557093  16.2107151  36.0719812  75.4964717  16.8178413
  40.8385631  75.4820990  17.6501767  41.0549245  76.3645627  17.3490595
  40.3579698  75.0907203  16.9207409  35.5784852  78.4406703  24.2272512
  35.4329433  78.7547006  25.1196793  35.1010056  79.0591603  23.6743410
  39.2907366  75.8646591  26.3206528  39.0325143  76.7863662  26.3190859
  38.7592406  75.4677025  27.0106993  44.2353554  88.9697378  19.0996614
  44.4090432  88.4043801  18.3470466  44.7282446  89.7698273  18.9176104
  30.0530514  80.9812047  27.1660173  29.5083982  81.7571855  27.2980447
  30.9309864  81.3282852  27.0079294  36.8418131  74.3123631  19.5440971
  36.9634042  73.3840277  19.7431859  36.5520173  74.3262317  18.6319287
  39.7109321  71.9978541  22.6807691  39.7331018  72.0617875  21.7259671
  40.1277380  71.1583050  22.8748197  50.0892945  81.7333801  20.7186914
  50.5324091  80.9841126  20.3206037  49.2119456  81.7243937  20.3360646
  45.2228727  88.2864142  16.1993512  45.9179631  88.9070835  16.4180827
  45.5651877  87.4359494  16.4745890  30.8396536  80.1081943  30.0590330
  30.0978272  80.2564579  30.6454960  30.5189280  80.3690209  29.1957079
  47.1220150  85.7363848  17.7280843  47.6471474  86.0751121  17.0030163
  47.0342502  84.8010863  17.5443978  38.7840199  89.6497922  29.8570720
  39.0927325  89.4047068  30.7293419  39.5815681  89.8544560  29.3689590
  38.8060811  91.8035831  22.0876096  38.3665801  91.3112210  22.7808953
  39.5568928  91.2608799  21.8468171  31.2853150  87.9947372  22.0900724
  32.1111170  87.6951144  21.7099368  30.9347202  87.2254995  22.5390513
  36.2534683  87.3473840  24.1598398  35.6314692  86.6844545  23.8600626
  36.9239550  87.3734972  23.4772046  29.4861755  85.9133699  23.0489658
  28.6493663  85.4855873  22.8673659  29.4585400  86.1066142  23.9860449
  36.3259210  75.8255628  33.7530904  36.3747366  76.7017751  33.3708673
  36.8681724  75.2833021  33.1802547  46.8114056  86.3696752  33.0332041
  46.0209600  86.3520891  32.4936540  46.5747411  86.9085045  33.7881077
  46.9311931  83.2189218  30.3464769  46.9809936  83.0539225  31.2880292
  46.8225854  82.3516477  29.9562650  35.8148190  85.8977764  17.6356858
  35.9636310  86.5813228  16.9823531  36.6214633  85.8782854  18.1506314
  44.2215693  79.2020146  31.6624076  45.1225556  79.0626611  31.3708074
  44.2963668  79.3674601  32.6022254  38.5558499  76.5787001  30.5077262
  37.6861808  76.8720567  30.2359851  38.7917979  77.1627446  31.2284526
  48.4330128  85.6386160  30.5906791  48.1414936  86.0016140  31.4270252
  47.8202259  84.9253168  30.4120123  49.6325810  83.2039039  23.1109361
  50.4672702  83.6428843  23.2746922  49.7684939  82.7277693  22.2917607
  46.6817316  80.7618774  29.0586849  47.1571438  80.9546420  28.2505700
  45.7582881  80.8177960  28.8130233  33.5700823  81.9242941  18.6417927
  33.3246865  81.0205271  18.8398137  33.7396737  81.9260092  17.6997405
  41.2597533  72.7966618  28.0242683  41.7779476  73.5327645  27.6989171
  40.9052665  73.1030611  28.8589442  32.8396470  77.6571299  16.1404089
  32.1465715  77.7315654  15.4844125  32.5948222  76.8931643  16.6625606
  41.5110127  69.2166900  23.5443579  41.7911881  68.5490089  24.1704006
  42.2960734  69.4095996  23.0318243  39.3143595  88.3925894  15.1068606
  38.7417562  89.0116081  14.6539078  39.8876389  88.9425256  15.6408528
  45.3818985  77.6384534  27.2915155  46.3336408  77.7382632  27.3127379
  45.2122436  76.8462803  27.8013239  43.4033365  74.7240117  27.4774555
  42.8083297  75.0045130  26.7821044  43.1183061  75.2134018  28.2491297
  42.5340855  88.6763044  16.2377188  43.4671528  88.6108606  16.4410064
  42.4464068  89.5119311  15.7791721  45.1628872  87.9928915  13.1981136
  45.0842503  87.6588778  14.0916894  45.9838538  88.4850683  13.1972608
  47.8607063  80.8590654  26.4057454  47.8283383  79.9206655  26.5917138
  48.4707687  80.9374691  25.6723279  39.6990394  79.7286707  12.4484658
  40.6449498  79.5992915  12.5173076  39.3204639  78.9901369  12.9254086
  48.0101551  77.6501697  26.4515737  47.4940600  76.8660154  26.2645666
  48.8941500  77.3220414  26.6162257  45.6712278  71.3942713  22.4111550
  45.4737099  71.0857801  23.2954882  46.2811984  72.1204352  22.5409480
  53.6783613  81.9206661  25.5463491  54.4087001  81.6591949  26.1071194
  53.0690558  81.1835383  25.5865559  51.7598910  80.0614523  26.1437942
  51.0332073  79.9270488  25.5354434  51.3446197  80.3691352  26.9494660
  39.5829086  83.7804453  33.9085315  40.5032096  83.9583052  34.1025362
  39.5478669  82.8360498  33.7565014  37.8833311  77.6536683  12.3839543
  36.9764766  77.3569796  12.4602257  38.1609292  77.3566501  11.5173830
  28.8011251  78.9743047  22.8338590  28.4814036  78.1208355  22.5412964
  28.2544679  79.1891625  23.5896557  32.5791159  81.6905488  26.5508096
  32.7977169  82.6222596  26.5696130  32.9916933  81.3313462  27.3362900
  39.4995377  72.1973573  18.5383785  38.6896105  71.8520658  18.9139031
  40.1879794  71.8881117  19.1271396  41.4285925  71.2751620  20.1608081
  41.9816964  71.6947073  20.8198105  41.6656011  70.3487368  20.2031037
  37.4519024  77.2638693  35.9410845  37.3515751  78.2133050  35.8722936
  37.2340566  76.9356932  35.0686915  36.6532096  74.5123619  12.5251523
  37.5151260  74.8378517  12.7847340  36.8382440  73.7255114  12.0124588
  28.6699511  82.5945958  24.8031711  27.9762983  82.1799911  24.2901666
  29.4172502  82.6366495  24.2065130  44.8064732  73.3852145  19.6686746
  44.2263401  74.0436949  19.2864798  44.5400665  72.5629490  19.2574163
  43.2568298  72.7857203  21.8708066  43.7568077  72.8973737  21.0622385
  43.9003906  72.4818256  22.5108874  37.3150294  80.6935832  34.7575907
  36.8317376  81.4936192  34.9639796  37.4011233  80.7043777  33.8043351
  30.5836254  82.5264212  22.6797726  30.5606942  82.6251899  21.7279609
  30.8936890  83.3729363  23.0014892  33.2423632  84.5840367  26.7944341
  34.1966885  84.5524309  26.7274272  33.0436155  84.1230991  27.6094567
  33.8323014  83.1541483  29.3615138  34.6515903  83.6485562  29.3849976
  34.1059822  82.2373451  29.3332706  43.5889610  75.5452235  18.7243094
  42.7015465  75.8301886  18.5063289  44.0043599  75.3845999  17.8770371
  46.9404146  75.5698756  22.4397433  47.7164536  76.0595209  22.7122050
  46.2152280  75.9956811  22.8969303  49.3776705  76.2826376  23.4971374
  49.9721196  76.0422112  22.7864682  49.4503288  75.5633506  24.1244910
  31.5973860  90.1259987  23.8114539  31.4628328  89.3660387  23.2452537
  31.1805923  90.8500886  23.3443327  42.7332823  85.3096910  12.8191114
  43.4368674  85.5146913  13.4348770  42.0095472  85.8773672  13.0840197
  43.5630634  81.0606771  18.9393384  43.5065835  81.5175323  18.1001016
  44.1158976  80.2997456  18.7616227  47.3735440  76.8496503  19.7643504
  47.1172374  76.4493139  20.5951711  46.7488308  77.5640297  19.6393643
  51.6847778  79.5892576  22.2714795  51.1247335  79.6585766  23.0446357
  51.0791281  79.4133561  21.5514291  34.7542986  91.0229304  24.0232981
  34.6375370  91.9674736  23.9211672  33.9335433  90.7202865  24.4118780
  44.2965413  82.2511553  16.2345913  44.2414217  82.0855824  15.2934357
  43.6711468  82.9587585  16.3908103  29.0857928  77.4879617  30.0607335
  29.7316792  76.9778571  30.5494561  28.8775079  78.2248299  30.6350761
  41.6111320  84.5560464  35.5599476  42.4802480  84.7301117  35.1986111
  41.1318072  85.3754881  35.4375205  37.6061539  71.7519662  15.8131232
  37.5940208  72.6961501  15.9699503  38.4984960  71.5689807  15.5190693
  35.7797500  91.6757565  27.2388910  36.6824747  91.7081176  27.5555405
  35.5534871  90.7458016  27.2535245  37.5351102  90.4288552  23.8998988
  36.5846733  90.4290414  23.7863361  37.8383589  89.6821287  23.3835023
  41.4213658  68.3462438  20.0677168  40.6546054  67.7920925  20.2133851
  41.8324363  68.4184307  20.9291320  33.4255419  74.6347234  34.1582350
  34.2886881  74.2784039  34.3685674  32.8520830  74.2961129  34.8457754
  53.2703796  96.2649090  24.9644751  53.9082206  96.1455838  24.2608091
  53.1524639  97.2129934  25.0232703  50.0793502  96.2176518  24.9006275
  49.7412014  96.1017583  24.0126810  50.9483270  95.8167684  24.8807282
  45.9380318  98.0711995  20.8903166  45.3745183  97.9801932  20.1219454
  45.8232713  97.2511899  21.3705659  50.5613285  97.3711370  30.8592481
  50.5501926  96.9764168  29.9872985  50.7233925  96.6377443  31.4526252
  43.4844750  99.5663186  23.7287387  44.2766042  99.2254011  23.3133686
  43.7241400  99.6758162  24.6489540  45.4435504  98.8272100  16.6004766
  46.2166380  98.2801087  16.4617641  45.7960903  99.6916349  16.8119227
  47.2820546 100.1548482  29.8071665  46.9910412 101.0594113  29.6918331
  47.9177531 100.1965010  30.5215734  48.2076753  97.5325331  26.3973025
  48.8040325  97.3081353  25.6829987  48.2651725  96.7910076  26.9998472
  52.8245064  93.9900544  22.0397959  53.6108154  93.5719967  21.6888376
  53.0883769  94.8946636  22.2079607  58.2253492  93.9275777  22.9430937
  58.9578664  93.3574994  23.1768767  57.4692847  93.5397378  23.3837443
  47.4998070  96.8892872  16.4347590  47.3834328  96.2137775  17.1028675
  47.6100330  96.4025246  15.6179744  49.8429611  96.3503019  20.1394280
  49.4787819  95.8233640  20.8507201  50.6996727  95.9601488  19.9660765
  55.7478912  87.6397352  27.4025546  55.4162237  88.5092762  27.1786761
  55.1524525  87.3233636  28.0819576  49.4835098  91.3792919  15.1355628
  49.6509501  92.2473155  15.5026099  49.2932267  91.5420200  14.2116917
  52.2410431  99.8409898  26.8021459  51.9411155 100.7434936  26.6937266
  51.8961491  99.5742081  27.6542611  55.6407575  92.3592438  24.4818896
  54.7324453  92.2907846  24.1877657  55.5895171  92.8364383  25.3100721
  49.4624319  93.8350576  16.1202295  49.3423944  94.2807627  16.9587775
  48.7676908  94.1835894  15.5615833  43.0531724  95.9356968  23.6701952
  43.1824105  96.1891447  24.5841364  42.3729175  96.5284676  23.3506607
  49.7148441  93.7782083  32.4253793  48.9381775  94.3376003  32.4156658
  50.3539004  94.2638866  32.9468663  57.5069222  90.5608876  26.2596770
  56.8643602  90.8541409  25.6136564  57.0024150  90.4461796  27.0649967
  47.9694813  96.5867537  31.9871760  48.7109498  97.1252581  31.7106584
  47.2631799  97.2133825  32.1443312  53.4450153  98.7296677  30.5843922
  53.8533509  98.2879088  29.8398554  52.7227414  98.1549305  30.8378115
  49.7981223  93.6669284  27.9577479  50.6442418  94.0908697  28.1012128
  49.7379861  93.0102908  28.6516042  53.7678968  99.2897868  24.3396211
  53.1387830  99.4543582  23.6372278  53.3804630  99.7039477  25.1107175
  57.6468200 100.2252306  21.6940574  56.9619238 100.6051207  21.1437608
  57.7312049 100.8347632  22.4272522  52.9480668  91.3273652  29.6158652
  52.7041600  92.0815713  29.0792928  53.2240599  91.7059000  30.4505899
  54.9019131  97.8712265  28.2935918  55.1136026  98.5144024  27.6170299
  54.8548879  97.0374581  27.8257848  52.5045360  90.4830085  25.1972490
  51.6429839  90.7811339  25.4889228  52.5307795  90.7000484  24.2653523
  49.3206930  99.0272276  21.6046296  49.7845275  99.3059979  20.8150918
  49.0563728  98.1255720  21.4219386  46.2131011  98.5743757  24.5426059
  46.7832368  99.0031026  23.9043543  46.8039122  98.2926342  25.2410245
  48.2575816  95.1495428  18.4135861  48.9599859  95.6016472  18.8809787
  47.9256444  94.5079247  19.0415754  46.7056177  93.7407185  32.7887070
  46.0754838  94.4223466  33.0222467  46.5992265  93.6290266  31.8440208
  42.0001150  93.4078981  23.7152994  41.2100204  93.6636509  23.2393105
  42.4912397  94.2227319  23.8205035  56.0164959 100.7484220  26.4658275
  56.8382403 100.3464407  26.1840957  56.0127362 100.6452454  27.4174391
  43.9515895  93.7723560  20.6736471  43.1547058  93.8842254  21.1919967
  43.7241487  94.1110212  19.8077362  49.7821563 100.2968263  28.6218986
  49.8465995 100.7588671  29.4577158  49.0732486  99.6665628  28.7501296
  40.2838853  93.6609471  26.1467985  40.5346891  94.5456481  26.4125561
  40.8198401  93.4814073  25.3743077  64.1070952  97.0922969  22.8143247
  63.3534661  96.5230367  22.6587251  64.2418493  97.0585633  23.7613881
  45.9836920  88.0427951  35.1512321  45.5903865  87.4894149  35.8259965
  46.8003060  88.3538529  35.5418839  42.9498978  99.4811809  19.0625891
  43.4623498 100.2755059  19.2131456  43.6021690  98.7838099  18.9959493
  48.9004881  89.4585830  32.7432578  49.6414594  90.0592983  32.6637040
  49.1322804  88.7163468  32.1850620  44.0446219  94.6442197  31.0210807
  43.9299734  93.7427454  31.3217906  43.1890737  94.8905894  30.6695624
  51.1238057 102.5859937  32.6198308  50.6801911 101.7996316  32.3019213
  51.7855270 102.7739088  31.9542199  53.2219295 102.8662737  30.6479709
  53.2037770 103.6871618  30.1559979  54.1439215 102.7416812  30.8729851
  49.6792349 100.3806867  31.4903218  50.2120686  99.6195155  31.2602526
  49.1506430 100.0880519  32.2327372  52.8462044  85.4866933  27.0196859
  52.5026313  86.3768574  26.9435970  53.2141006  85.2968590  26.1566444
  40.9147894  97.8100463  19.8385462  41.7523116  98.2197472  19.6219169
  41.0926162  96.8699905  19.8085656  50.3959438  90.3225245  20.5854533
  49.5401034  89.9332095  20.4060172  50.8086389  90.4017205  19.7254319
  51.9258584  87.8571588  24.9846093  51.4223380  87.8201723  24.1713898
  52.2189191  88.7664331  25.0442749  48.1701470  87.9410318  23.9912274
  49.0354467  87.7453126  23.6318164  48.2378979  87.7120669  24.9181631
  52.5998630  93.3502636  17.3529076  52.2948765  93.6648785  18.2039219
  53.5529072  93.4284056  17.3956409  51.0445061  99.5092859  19.0022030
  50.5166423  98.7745619  18.6895267  50.5432564 100.2867536  18.7561998
  56.0237908  97.7041880  24.1189076  55.3661582  98.3941141  24.2069205
  56.8278307  98.0938312  24.4623062  45.7763789  90.1712525  21.3628641
  46.3507541  89.9487707  20.6301834  46.3634772  90.2401220  22.1157243
  54.8343366  96.0586252  22.1693018  55.3475248  96.6916244  22.6714728
  55.4844590  95.4587448  21.8036378  46.1033376  92.2016987  15.3824527
  45.2670688  92.5391673  15.7033801  45.9638146  92.0665966  14.4451664
  48.0786457  87.0453774  20.0903711  47.4250869  86.7302792  19.4660325
  48.0366931  86.4229515  20.8163534  51.3124197  93.5335708  24.4151358
  50.3946759  93.7550655  24.2573046  51.7284341  93.6082018  23.5563066
  52.0959245  94.9327124  19.5454039  52.8431064  95.4448521  19.2361161
  52.3650834  94.6111176  20.4058432  54.5438082  91.9684240  21.5272828
  53.8060839  91.4561626  21.8583070  54.7964856  91.5284621  20.7156105
  54.6449709  84.7460492  22.1214597  54.9508586  83.8857855  21.8340512
  55.3702314  85.3378112  21.9213591  40.9374065  95.1491178  20.5096195
  40.7398465  94.5560539  19.7847262  40.3820729  94.8443389  21.2272134
  48.9170789  95.0414285  22.6290788  48.9719399  94.0888121  22.5533265
  48.1061991  95.1973724  23.1132087  46.8563149  93.6591345  20.3881167
  46.0431015  93.9585515  20.7946359  47.3522143  93.2647033  21.1055649
  52.4537361  94.1233169  29.2196061  52.8086748  94.3504642  30.0790527
  53.1009492  94.4551546  28.5973316  46.3477224  91.2309700  26.0042402
  46.9876603  91.0898459  25.3065365  45.5154754  90.9444214  25.6281004
  58.2104477  99.3128132  24.9356662  58.6440984  99.2203421  25.7839716
  58.9236058  99.2885633  24.2976678  47.1237528 100.5312131  22.1177395
  47.9178126 100.0362451  21.9159969  46.4129220 100.0029994  21.7545100
  51.9432372 102.9130226  26.4689762  51.9969394 103.4821162  27.2367478
  51.0747154 103.0832111  26.1043799  43.4320291  94.6755212  18.1937147
  42.5017879  94.6139668  18.4107109  43.5277763  94.1531165  17.3973788
  43.3505840  91.2010025  20.7815389  43.6112658  92.1155358  20.6724549
  44.1723013  90.7334468  20.9312002  44.8230766  92.6147782  27.9514213
  45.4953819  92.4065145  27.3026862  43.9960552  92.4169868  27.5119446
  59.0720027  99.3551833  27.4689547  59.2655917 100.2597643  27.7148822
  58.9720645  98.8959252  28.3028132  50.7256338  89.2409723  29.9679874
  50.0784253  89.9399673  29.8744351  51.4957353  89.6745867  30.3356122
  54.1335136  99.5058575  33.0430428  53.9820642  99.2769127  32.1260511
  54.1239815 100.4629177  33.0561773  50.9020472  97.0790488  28.0276694
  51.8312532  97.2301648  27.8545661  50.4811502  97.1674509  27.1725341
  49.7008804 101.1041153  25.7975232  49.5619889 100.7359937  26.6701170
  48.9123400 101.6188792  25.6259189  51.2514019 100.4822755  23.1864069
  50.9163851 100.4423525  24.0821719  50.7517965  99.8167471  22.7134480
  45.2258263  95.8890385  28.7116651  45.0878061  95.1570624  29.3128190
  46.1363186  95.7999285  28.4300838  47.8540563  95.6010345  28.2000330
  48.5640182  94.9603537  28.1586949  47.8109872  95.8523240  29.1226511
  55.8427342 102.5377698  31.1206909  55.7839888 101.8536918  30.4537492
  56.2446861 103.2796688  30.6687535  46.5669497  92.5875563  30.0195970
  46.0306854  92.1366301  30.6717566  45.9786206  92.7221471  29.2766434
  45.9771756  92.0464214  12.5822433  45.1001223  91.9253015  12.2184680
  46.4529509  91.2550292  12.3301322  55.8444749 100.5017282  29.3520889
  54.9571528 100.1643204  29.4747288  56.4143301  99.7700313  29.5889654
  37.4973897  96.8341374  22.6763940  38.1844936  96.5203104  22.0884956
  37.3422025  97.7382738  22.4031192  42.3008619  91.7231570  27.1048964
  42.2166807  91.1157240  26.3699374  41.4791325  92.2140589  27.1058461
  52.4732333  90.2085134  22.4719159  52.9701032  89.4555096  22.1520229
  51.7019314  90.2449450  21.9062369  60.3262090  95.9125499  24.1137451
  60.3151966  96.7950215  23.7431384  59.4579469  95.5597050  23.9191988
  53.5562113  98.9656821  20.0457583  52.6218392  99.0858283  19.8762287
  53.7338782  98.0629288  19.7817592  49.0567301  92.3502517  22.1990844
  48.6865089  91.7973557  22.8871749  49.5526394  91.7460650  21.6465844
  56.9434665  94.8074140  20.5807617  57.4095117  95.6402132  20.5067919
  57.3942165  94.3419122  21.2852875  54.9151327  87.1754727  24.6198518
  54.0014407  87.4058954  24.7880725  55.3444429  87.2593171  25.4712550
  54.6857786  95.3644619  27.1198412  54.0329236  95.6120527  26.4650865
  55.0638166  94.5508757  26.7860889  50.7345359  96.1064430  33.6064449
  50.0585996  96.0058560  34.2766824  51.5572993  95.9503644  34.0700446
  37.0741873  94.9141967  24.9481408  37.1125972  94.3805558  25.7418526
  36.5682166  94.3877173  24.3292385  44.4532635  89.7606508  28.4443950
  44.5173961  90.6221338  28.0321348  44.3899755  89.1480509  27.7116308
  43.9284908  91.8329640  32.0916984  44.5556946  91.4506717  32.7054508
  43.0712826  91.6143842  32.4572677  54.3279016 102.2392615  33.6970720
  54.8718920 102.8522574  33.2025674  53.7465861 102.7972194  34.2137733
  40.7050450  93.6406069  18.0235339  41.0003891  92.7316748  17.9702393
  39.8038486  93.6193809  17.7016341  44.2344697  91.7162066  24.0062888
  43.5131283  92.3298033  23.8670361  45.0237953  92.2519831  23.9279534
  54.6771437 103.1622353  26.4565297  53.7301773 103.0427705  26.3843624
  55.0254211 102.2744851  26.5391559  47.0371011  89.0516492  30.2803539
  47.5605413  89.2978789  31.0429849  46.8183344  89.8836527  29.8606677
  42.4338292  91.3220167  18.1474664  42.1050998  90.4417546  17.9649770
  42.7877663  91.2667836  19.0351053  51.6817871 102.9575070  22.6569650
  51.5342833 102.0291777  22.8377220  52.5071364 102.9795160  22.1726725
  45.5480115  91.6093137  18.5150142  45.8876188  92.1379058  17.7928750
  45.9952235  91.9473543  19.2908708  55.2851993 103.7803628  23.7434522
  56.2098540 103.5746490  23.6058974  55.1167296 103.5320029  24.6523864
  48.2423556  89.9930187  27.9653210  47.9020376  89.1938000  28.3673890
  47.5362562  90.2931898  27.3930043  48.8940028  87.0779500  26.4180533
  49.7166097  86.6039978  26.2959423  49.1378091  87.8569984  26.9179219
  47.5348262  90.1067758  16.7143435  48.2556625  90.4849011  16.2107151
  46.9113566  90.8256635  16.8178413  51.6779385  90.8112907  17.6501767
  51.8942999  91.6937545  17.3490595  51.1973452  90.4199121  16.9207409
  46.4178606  93.7698620  24.2272512  46.2723187  94.0838924  25.1196793
  45.9403810  94.3883521  23.6743410  48.2774989  90.7601168  24.2753401
  48.2636558  89.8642262  23.9385699  48.9947417  90.7671832  24.9091687
  50.1301120  91.1938509  26.3206528  49.8718898  92.1155579  26.3190859
  49.5986160  90.7968943  27.0106993  40.8924269  96.3103965  27.1660173
  40.3477737  97.0863773  27.2980447  41.7703618  96.6574769  27.0079294
  47.6811885  89.6415549  19.5440971  47.8027796  88.7132195  19.7431859
  47.3913928  89.6554235  18.6319287  50.5503076  87.3270459  22.6807691
  50.5724772  87.3909792  21.7259671  50.9671135  86.4874968  22.8748197
  60.9286700  97.0625719  20.7186914  61.3717846  96.3133044  20.3206037
  60.0513210  97.0535855  20.3360646  41.6790290  95.4373861  30.0590330
  40.9372026  95.5856496  30.6454960  41.3583035  95.6982127  29.1957079
  47.1652965  91.1547546  33.7530904  47.2141120  92.0309669  33.3708673
  47.7075479  90.6124939  33.1802547  57.6507810 101.6988669  33.0332041
  56.8603354 101.6812808  32.4936540  57.4141165 102.2376963  33.7881077
  57.7705686  98.5481136  30.3464769  57.8203690  98.3831143  31.2880292
  57.6619609  97.6808395  29.9562650  55.0609448  94.5312064  31.6624076
  55.9619311  94.3918529  31.3708074  55.1357422  94.6966519  32.6022254
  49.3952253  91.9078918  30.5077262  48.5255563  92.2012485  30.2359851
  49.6311734  92.4919363  31.2284526  59.2723882 100.9678077  30.5906791
  58.9808691 101.3308058  31.4270252  58.6596014 100.2545086  30.4120123
  60.4719565  98.5330957  23.1109361  61.3066456  98.9720761  23.2746922
  60.6078693  98.0569610  22.2917607  57.5211071  96.0910692  29.0586849
  57.9965192  96.2838338  28.2505700  56.5976636  96.1469878  28.8130233
  44.4094577  97.2534859  18.6417927  44.1640619  96.3497189  18.8398137
  44.5790492  97.2552009  17.6997405  52.0991287  88.1258535  28.0242683
  52.6173231  88.8619562  27.6989171  51.7446420  88.4322529  28.8589442
  43.6790225  92.9863217  16.1404089  42.9859470  93.0607572  15.4844125
  43.4341977  92.2223560  16.6625606  52.3503881  84.5458818  23.5443579
  52.6305635  83.8782007  24.1704006  53.1354488  84.7387914  23.0318243
  56.2212740  92.9676452  27.2915155  57.1730162  93.0674550  27.3127379
  56.0516190  92.1754720  27.8013239  54.2427119  90.0532035  27.4774555
  53.6477051  90.3337048  26.7821044  53.9576816  90.5425936  28.2491297
  58.7000817  96.1882572  26.4057454  58.6677137  95.2498572  26.5917138
  59.3101441  96.2666608  25.6723279  58.8495306  92.9793615  26.4515737
  58.3334354  92.1952072  26.2645666  59.7335254  92.6512332  26.6162257
  56.5106033  86.7234631  22.4111550  56.3130854  86.4149719  23.2954882
  57.1205738  87.4496270  22.5409480  64.5177367  97.2498578  25.5463491
  65.2480756  96.9883867  26.1071194  63.9084313  96.5127300  25.5865559
  62.5992664  95.3906441  26.1437942  61.8725828  95.2562406  25.5354434
  62.1839951  95.6983270  26.9494660  50.4222841  99.1096371  33.9085315
  51.3425850  99.2874970  34.1025362  50.3872424  98.1652416  33.7565014
  39.6405006  94.3034964  22.8338590  39.3207790  93.4500273  22.5412964
  39.0938434  94.5183543  23.5896557  43.4184913  97.0197405  26.5508096
  43.6370923  97.9514513  26.5696130  43.8310687  96.6605380  27.3362900
  50.3389131  87.5265491  18.5383785  49.5289859  87.1812576  18.9139031
  51.0273548  87.2173034  19.1271396  52.2679679  86.6043538  20.1608081
  52.8210718  87.0238991  20.8198105  52.5049766  85.6779286  20.2031037
  48.2912779  92.5930611  35.9410845  48.1909506  93.5424968  35.8722936
  48.0734321  92.2648850  35.0686915  47.4925850  89.8415536  12.5251523
  48.3545014  90.1670435  12.7847340  47.6776194  89.0547032  12.0124588
  39.5093266  97.9237876  24.8031711  38.8156737  97.5091829  24.2901666
  40.2566257  97.9658412  24.2065130  55.6458486  88.7144063  19.6686746
  55.0657156  89.3728867  19.2864798  55.3794419  87.8921407  19.2574163
  54.0962053  88.1149120  21.8708066  54.5961831  88.2265655  21.0622385
  54.7397661  87.8110173  22.5108874  48.1544049  96.0227750  34.7575907
  47.6711130  96.8228110  34.9639796  48.2404988  96.0335695  33.8043351
  41.4230008  97.8556130  22.6797726  41.4000696  97.9543817  21.7279609
  41.7330645  98.7021280  23.0014892  44.0817386  99.9132285  26.7944341
  45.0360640  99.8816227  26.7274272  43.8829910  99.4522908  27.6094567
  44.6716768  98.4833401  29.3615138  45.4909657  98.9777479  29.3849976
  44.9453576  97.5665369  29.3332706  54.4283364  90.8744153  18.7243094
  53.5409220  91.1593804  18.5063289  54.8437354  90.7137916  17.8770371
  57.7797901  90.8990674  22.4397433  58.5558291  91.3887126  22.7122050
  57.0546035  91.3248728  22.8969303  60.2170459  91.6118293  23.4971374
  60.8114950  91.3714029  22.7864682  60.2897043  90.8925424  24.1244910
  54.4024388  96.3898689  18.9393384  54.3459590  96.8467240  18.1001016
  54.9552731  95.6289374  18.7616227  58.2129194  92.1788421  19.7643504
  57.9566128  91.7785057  20.5951711  57.5882062  92.8932215  19.6393643
  62.5241532  94.9184494  22.2714795  61.9641090  94.9877683  23.0446357
  61.9185035  94.7425479  21.5514291  39.9251683  92.8171535  30.0607335
  40.5710546  92.3070489  30.5494561  39.7168834  93.5540216  30.6350761
  52.4505075  99.8852382  35.5599476  53.3196234 100.0593034  35.1986111
  51.9711826 100.7046799  35.4375205  48.4455293  87.0811579  15.8131232
  48.4333963  88.0253419  15.9699503  49.3378715  86.8981725  15.5190693
  52.2607412  83.6754356  20.0677168  51.4939808  83.1212843  20.2133851
  52.6718117  83.7476225  20.9291320  44.2649174  89.9639152  34.1582350
  45.1280635  89.6075957  34.3685674  43.6914584  89.6253047  34.8457754
  66.5872666 102.9689269  27.4025546  66.2555991 103.8384680  27.1786761
  65.9918280 102.6525553  28.0819576  63.7874423 106.6565570  29.6158652
  63.5435355 107.4107630  29.0792928  64.0634353 107.0350918  30.4505899
  56.8230674 103.3719868  35.1512321  56.4297620 102.8186067  35.8259965
  57.6396815 103.6830447  35.5418839  59.7398635 104.7877747  32.7432578
  60.4808349 105.3884901  32.6637040  59.9716558 104.0455385  32.1850620
  63.6855798 100.8158850  27.0196859  63.3420068 101.7060492  26.9435970
  64.0534761 100.6260508  26.1566444  59.0095225 103.2702235  23.9912274
  59.8748221 103.0745044  23.6318164  59.0772733 103.0412587  24.9181631
  61.5650092 104.5701641  29.9679874  60.9178007 105.2691591  29.8744351
  62.3351107 105.0037785  30.3356122  57.8764765 104.3808410  30.2803539
  58.3999167 104.6270706  31.0429849  57.6577099 105.2128445  29.8606677
  59.0817310 105.3222105  27.9653210  58.7414131 104.5229918  28.3673890
  58.3756317 105.6223816  27.3930043  59.7333782 102.4071417  26.4180533
  60.5559851 101.9331896  26.2959423  59.9771846 103.1861901  26.9179219
  62.9385042 103.4550453  28.0242683  63.4566985 104.1911480  27.6989171
  62.5840174 103.7614446  28.8589442  18.0432023  28.3897740  17.5837788
  18.0320664  27.9950538  16.7118291  18.2052663  27.6563812  18.1771559
  14.7639284  31.1734852  16.5316972  14.4729150  32.0780482  16.4163638
  15.3996269  31.2151379  17.2461041  19.7229169  30.8596267  13.5266765
  19.4229892  31.7621306  13.4182572  19.3780229  30.5928450  14.3787918
  17.1967179  24.7968453  19.1499100  16.4200513  25.3562373  19.1401964
  17.8357742  25.2825236  19.6713970  15.4513551  27.6053906  18.7117067
  16.1928235  28.1438950  18.4351890  14.7450537  28.2320195  18.8688619
  20.9268891  29.7483047  17.3089228  21.3352247  29.3065457  16.5643861
  20.2046152  29.1735674  17.5623421  22.3837869  28.8898634  15.0181224
  22.5954764  29.5330394  14.3415606  22.3367617  28.0560951  14.5503155
  23.4983697  31.7670590  13.1903582  24.3201141  31.3650777  12.9086263
  23.4946100  31.6638824  14.1419698  17.2640300  31.3154633  15.3464292
  17.3284733  31.7775040  16.1822464  16.5551224  30.6851998  15.4746602
  18.6056794  33.6046307  19.3443615  18.1620649  32.8182685  19.0264519
  19.2674008  33.7925457  18.6787506  13.3643916  35.1342108  13.8704293
  13.9151341  35.0059172  13.0981287  12.5255391  35.4336997  13.5199186
  20.7038032  33.8849107  17.3725016  20.6856508  34.7057988  16.8805285
  21.6257952  33.7603182  17.5975157  17.1611087  31.3993236  18.2148524
  17.6939423  30.6381524  17.9847832  16.6325168  31.1066888  18.9572679
  25.6923215  30.3314502  11.6601968  26.1259722  30.2389791  12.5085022
  26.4054796  30.3072002  11.0221984  19.4251110  33.9316596  13.1935069
  19.4788132  34.5007532  13.9612785  18.5565891  34.1018481  12.8289106
  26.5538765  30.3738202  14.1934854  26.7474655  31.2784013  14.4394128
  26.4539383  29.9145621  15.0273439  21.6153873  30.5244945  19.7675734
  21.4639380  30.2955497  18.8505818  21.6058553  31.4815546  19.7807079
  23.3246080  33.5564068  17.8452216  23.2658626  32.8723288  17.1782799
  23.7265598  34.2983058  17.3932842  23.3263487  31.5203652  16.0766196
  22.4390266  31.1829573  16.1992595  23.8962038  30.7886683  16.3134961
  16.8564641  36.1805104  13.0427439  16.7834812  36.9860075  13.5546743
  16.4142034  36.3797070  12.2175460  19.3163324  36.0791938  15.1985598
  20.0291296  36.7139403  15.1261499  18.8253353  36.1755804  14.3825599
  14.3675238  33.8286381  16.0191168  15.0684697  34.4622864  16.1720563
  13.8970353  34.1701113  15.2586808  18.2164097  27.1250800  20.3309756
  17.5404734  27.0244929  21.0012131  19.0391731  26.9690014  20.7945753
  16.9586880  38.4317727  14.5667372  17.5105188  38.5949349  15.3316457
  17.2993073  39.0222165  13.8947397  21.8097754  33.2578985  20.4216026
  22.3537658  33.8708943  19.9270981  21.2284599  33.8158563  20.9383039
  20.0955267  36.3799703  11.5531054  19.9706406  35.5789443  11.0441999
  20.7534358  36.8745896  11.0645024  22.1590175  34.1808723  13.1810604
  21.2120511  34.0614074  13.1088931  22.5072948  33.2931221  13.2636866
  22.7670730  34.7989998  10.4679829  23.6917278  34.5932859  10.3304280
  22.5986034  34.5506399  11.3769171  17.1052691  35.9976209  16.5816026
  17.4139817  35.7525356  17.4538726  17.9028173  36.2022847  16.0934896
  25.1326548  32.7175039  19.7577348  24.3422092  32.6999178  19.2181847
  24.8959903  33.2563333  20.5126384  25.2524423  29.5667505  17.0710076
  25.3022428  29.4017513  18.0125599  25.1438347  28.6994764  16.6807957
  22.5428186  25.5498433  18.3869383  23.4438048  25.4104898  18.0953381
  22.6176160  25.7152888  19.3267560  26.7542620  31.9864447  17.3152098
  26.4627428  32.3494427  18.1515559  26.1414751  31.2731455  17.1365430
  25.0029808  27.1097061  15.7832156  25.4783930  27.3024708  14.9751007
  24.0795374  27.1656247  15.5375539  26.1819555  27.2068941  13.1302761
  26.1495875  26.2684942  13.3162445  26.7920179  27.2852978  12.3968586
  31.9996105  28.2684948  12.2708798  32.7299493  28.0070236  12.8316501
  31.3903050  27.5313670  12.3110866  30.0811402  26.4092811  12.8683249
  29.3544566  26.2748776  12.2599740  29.6658689  26.7169639  13.6739967
  17.9041579  30.1282740  20.6330622  18.8244588  30.3061339  20.8270668
  17.8691162  29.1838786  20.4810321  15.7731516  23.6116981  22.6656152
  15.6728243  24.5611338  22.5968243  15.5553058  23.2835220  21.7932222
  15.6362786  27.0414120  21.4821214  15.1529868  27.8414480  21.6885103
  15.7223726  27.0522064  20.5288658  19.9323813  30.9038752  22.2844783
  20.8014972  31.0779404  21.9231418  19.4530564  31.7233168  22.1620512
  14.1009993  38.0235853  13.9634216  15.0037239  38.0559463  14.2800711
  13.8747363  37.0936304  13.9780552  31.5916288  42.6127378  11.6890057
  32.2294698  42.4934125  10.9853397  31.4737131  43.5608222  11.7478009
  28.4005995  42.5654806  11.6251582  28.0624506  42.4495870  10.7372117
  29.2695763  42.1645971  11.6052588  24.2592810  44.4190282   7.6148473
  23.6957675  44.3280219   6.8464761  24.1445205  43.5990187   8.0950966
  28.8825778  43.7189657  17.5837788  28.8714418  43.3242456  16.7118291
  29.0446417  42.9855730  18.1771559  21.8057242  45.9141474  10.4532693
  22.5978534  45.5732298  10.0378993  22.0453892  46.0236449  11.3734847
  29.8392369  48.0861250   2.9262938  29.1880349  48.6715330   2.5396952
  30.6336732  48.6167445   2.9857975  23.7647996  45.1750387   3.3250072
  24.5378872  44.6279374   3.1862948  24.1173395  46.0394636   3.5364534
  25.6033039  46.5026769  16.5316972  25.3122905  47.4072400  16.4163638
  26.2390023  46.5443297  17.2461041  26.5289246  43.8803618  13.1218331
  27.1252818  43.6559640  12.4075294  26.5864217  43.1388363  13.7243779
  31.1457557  40.3378831   8.7643265  31.9320646  39.9198255   8.4133682
  31.4096261  41.2424924   8.9324914  31.3167634  45.7751682   3.4631922
  30.6813467  45.8486308   4.1752827  30.9865040  46.3645281   2.7851001
  36.5465984  40.2754065   9.6676244  37.2791156  39.7053281   9.9014073
  35.7905340  39.8875665  10.1082749  28.1642104  42.6981306   6.8639586
  27.8000311  42.1711927   7.5752508  29.0209219  42.3079775   6.6906072
  34.0691404  33.9875639  14.1270852  33.7374729  34.8571050  13.9032067
  33.4737018  33.6711923  14.8064883  30.5622924  46.1888185  13.5266765
  30.2623647  47.0913224  13.4182572  30.2173983  45.9220368  14.3787918
  24.0135405  42.6401982   9.5603470  23.0885902  42.5078196   9.7681161
  24.2619818  43.4196201  10.0573412  33.9620068  38.7070725  11.2064203
  33.0536945  38.6386133  10.9122964  33.9107663  39.1842670  12.0346028
  21.3744216  42.2835255  10.3947259  21.5036597  42.5369734  11.3086670
  20.6941668  42.8762963  10.0751914  25.5443704  52.9532505   6.4937733
  25.4667733  53.9040330   6.5726213  24.9405347  52.6078378   7.1512659
  28.0360933  40.1260371  19.1499100  27.2594267  40.6854291  19.1401964
  28.6751496  40.6117153  19.6713970  35.8281714  36.9087163  12.9842076
  35.1856094  37.2019696  12.3381871  35.3236642  36.7940084  13.7895273
  33.4821878  40.6550337   3.6727936  34.3939734  40.8877723   3.4975633
  32.9731525  41.2387381   3.1103014  26.2907306  42.9345824  18.7117067
  27.0321990  43.4730868  18.4351890  25.5844291  43.5612113  18.8688619
  31.7662645  45.0774964  17.3089228  32.1746001  44.6357375  16.5643861
  31.0439907  44.5027592  17.5623421  28.1193715  40.0147571  14.6822785
  28.9654911  40.4386985  14.8257434  28.0592353  39.3581195  15.3761348
  32.0891460  45.6376155  11.0641517  31.4600322  45.8021869  10.3617585
  31.7017122  46.0517765  11.8352481  35.9680692  46.5730593   8.4185881
  35.2831730  46.9529494   7.8682914  36.0524541  47.1825919   9.1517829
  31.2693161  37.6751939  16.3403959  31.0254093  38.4294000  15.8038235
  31.5453091  38.0537287  17.1751206  33.2231623  44.2190552  15.0181224
  33.4348519  44.8622312  14.3415606  33.1761372  43.3852868  14.5503155
  30.8257852  36.8308372  11.9217797  29.9642331  37.1289626  12.2134534
  30.8520287  37.0478771  10.9898829  27.6419422  45.3750563   8.3291602
  28.1057767  45.6538266   7.5396225  27.3776220  44.4734008   8.1464693
  24.5343503  44.9222045  11.2671366  25.1044860  45.3509313  10.6288850
  25.1251615  44.6404629  11.9655551  26.5788308  41.4973715   5.1381167
  27.2812351  41.9494759   5.6055094  26.2468936  40.8557534   5.7661061
  25.0268669  40.0885472  19.5132377  24.3967330  40.7701753  19.7467774
  24.9204757  39.9768554  18.5685515  20.3213642  39.7557268  10.4398301
  19.5312696  40.0114797   9.9638412  20.8124889  40.5705606  10.5450342
  34.3377451  47.0962507  13.1903582  35.1594895  46.6942695  12.9086263
  34.3339854  46.9930741  14.1419698  22.2728387  40.1201847   7.3981778
  21.4759550  40.2320542   7.9165273  22.0453979  40.4588500   6.5322668
  28.1034055  46.6446551  15.3464292  28.1678487  47.1066958  16.1822464
  27.3944979  46.0143915  15.4746602  18.6051345  40.0087759  12.8713292
  18.8559383  40.8934768  13.1370868  19.1410893  39.8292360  12.0988384
  42.4283444  43.4401256   9.5388553  41.6747153  42.8708654   9.3832558
  42.5630986  43.4063920  10.4859188  27.8182072  48.3114658   5.2143273
  27.6827747  49.1566194   5.6428120  28.3591885  48.5133936   4.4509206
  24.3049412  34.3906238  21.8757628  23.9116358  33.8372436  22.5505272
  25.1215552  34.7016816  22.2664145  21.2711470  45.8290096   5.7871198
  21.7835990  46.6233346   5.9376762  21.9234183  45.1316387   5.7204799
  23.0806355  48.9455852   7.8693951  23.2572983  49.8673817   7.6814935
  23.8763188  48.6314272   8.2988331  27.2217373  35.8064117  19.4677884
  27.9627086  36.4071270  19.3882347  27.4535296  35.0641755  18.9095927
  22.3658711  40.9920484  17.7456114  22.2512226  40.0905741  18.0463213
  21.5103229  41.2384181  17.3940931  29.4450549  48.9338225  19.3443615
  29.0014403  48.1474603  19.0264519  30.1067762  49.1217375  18.6787506
  24.2037670  50.4634026  13.8704293  24.7545095  50.3351090  13.0981287
  23.3649146  50.7628915  13.5199186  31.5431787  49.2141024  17.3725016
  31.5250262  50.0349906  16.8805285  32.4651707  49.0895100  17.5975157
  28.0004841  46.7285154  18.2148524  28.5333178  45.9673442  17.9847832
  27.4718922  46.4358806  18.9572679  31.1674536  31.8345220  13.7442166
  30.8238805  32.7246862  13.6681277  31.5353499  31.6446878  12.8811751
  19.2360387  44.1578750   6.5630768  20.0735609  44.5675759   6.3464476
  19.4138654  43.2178193   6.5330962  31.1324819  41.8253831   2.2514601
  30.6171442  42.5958436   2.4902989  30.8602127  41.1518967   2.8747663
  28.7171930  36.6703532   7.3099840  27.8613526  36.2810382   7.1305478
  29.1298882  36.7495493   6.4499625  30.2471076  34.2049875  11.7091399
  29.7435872  34.1680010  10.8959205  30.5401683  35.1142618  11.7688056
  26.4913962  34.2888605  10.7157581  27.3566959  34.0931413  10.3563471
  26.5591471  34.0598957  11.6426938  36.1059093  44.5786186   4.1867775
  35.3288536  44.2397345   3.7422937  36.7850574  44.5838809   3.5122740
  30.9211122  39.6980923   4.0774382  30.6161257  40.0127072   4.9284526
  31.8741564  39.7762343   4.1201715  29.3657554  45.8571146   5.7267336
  28.8378915  45.1223906   5.4140574  28.8645056  46.6345823   5.4807305
  34.3450400  44.0520167  10.8434383  33.6874074  44.7419428  10.9314511
  35.1490799  44.4416599  11.1868369  33.1555859  42.4064540   8.8938324
  33.6687740  43.0394531   9.3960034  33.8057082  41.8065735   8.5281684
  30.4178233  52.3848864   1.6498996  29.7439932  52.6880561   2.2583953
  30.8044055  53.1877944   1.3004453  29.6336689  39.8813995  11.1396665
  28.7159251  40.1028942  10.9818353  30.0496833  39.9560306  10.2808372
  30.4171737  41.2805411   6.2699345  31.1643556  41.7926808   5.9606467
  30.6863327  40.9589464   7.1303739  28.6898387  43.7763952   3.2526300
  27.7809607  43.4922984   3.3498769  28.7193471  44.1963030   2.3929606
  33.9217655  47.3870541   7.0217467  33.4679982  46.5461451   7.0782658
  33.2911622  48.0231939   7.3592247  32.8650574  38.3162527   8.2518135
  32.1273331  37.8039913   8.5828377  33.1177348  37.8762909   7.4401411
  32.3650594  49.2247038   7.9567285  32.6573568  49.7852095   7.2379651
  32.8749215  49.5175599   8.7120444  32.9662202  31.0938779   8.8459904
  33.2721078  30.2336143   8.5585819  33.6914806  31.6856399   8.6458898
  27.2383281  41.3892572   9.3536095  27.2931891  40.4366409   9.2778571
  26.4274483  41.5452011   9.8377393  25.1775641  40.0069632   7.1126474
  24.3643507  40.3063802   7.5191666  25.6734636  39.6125321   7.8300956
  27.3284219  50.0027389   9.0460738  27.2860398  50.2288235   8.1169270
  28.2446918  49.7690763   9.1946540  30.7749853  40.4711456  15.9441368
  31.1299241  40.6982930  16.8035833  31.4221984  40.8029833  15.3218623
  36.5047590  43.5929892   6.6490697  36.3665489  43.7831488   5.7211886
  36.1483809  44.3549275   7.1058748  24.6689716  37.5787987  12.7287709
  25.3089095  37.4376747  12.0310672  23.8367247  37.2922501  12.3526311
  36.5316970  45.6606419  11.6601968  36.9653476  45.5681708  12.5085022
  37.2448550  45.6363920  11.0221984  25.4450020  46.8790418   8.8422701
  26.2390619  46.3840738   8.6405276  24.7341712  46.3508281   8.4790407
  30.2644864  49.2608513  13.1935069  30.3181887  49.8299450  13.9612785
  29.3959646  49.4310398  12.8289106  23.1443258  38.9626070  14.6759520
  23.8166311  38.7543432  14.0272169  22.3173044  38.7648156  14.2364752
  37.3932519  45.7030120  14.1934854  37.5868409  46.6075930  14.4394128
  37.2933137  45.2437539  15.0273439  29.0468830  35.5888011  16.6925181
  28.3996745  36.2877960  16.5989657  29.8169845  36.0224154  17.0601429
  32.4547628  45.8536863  19.7675734  32.3033134  45.6247414  18.8505818
  32.4452307  46.8107464  19.7807079  29.2232964  43.4268775  14.7522001
  30.1525024  43.5779935  14.5790968  28.8023994  43.5152796  13.8970647
  28.0221296  47.4519440  12.5220538  27.8832382  47.0838224  13.3946476
  27.2335892  47.9667079  12.3504496  28.6169448  52.5528536   3.8646075
  28.7921204  52.0816580   4.6791697  27.9302236  53.1794303   4.0927335
  29.5726511  46.8301043   9.9109376  29.2376344  46.7901813  10.8067026
  29.0730457  46.1645758   9.4379786  23.5470755  42.2368673  15.4361957
  23.4090553  41.5048911  16.0373496  24.4575679  42.1477573  15.1546145
  26.1753056  41.9488632  14.9245637  26.8852674  41.3081824  14.8832255
  26.1322364  42.2001527  15.8471818  34.1639834  48.8855985  17.8452216
  34.1052381  48.2015205  17.1782799  34.5659353  49.6274975  17.3932842
  24.8881990  38.9353850  16.7441276  24.3519347  38.4844588  17.3962873
  24.2998698  39.0699759  16.0011741  23.1830533  55.7017899  10.6385935
  23.4227131  56.3336423  11.3164953  22.3399730  55.3505939  10.9251294
  34.1657242  46.8495569  16.0766196  33.2784020  46.5121491  16.1992595
  34.7355793  46.1178600  16.3134961  15.8186389  43.1819661   9.4009247
  16.5057429  42.8681391   8.8130262  15.6634518  44.0861026   9.1276499
  20.6221111  38.0709857  13.8294271  20.5379300  37.4635527  13.0944681
  19.8003817  38.5618876  13.8303767  27.6958395  51.5097022  13.0427439
  27.6228567  52.3151993  13.5546743  27.2535788  51.7088987  12.2175460
  27.4848175  50.7468792   6.5530260  26.7015697  51.2890472   6.6468485
  28.1840920  51.2642771   6.9524502  30.7944825  36.5563421   9.1964466
  31.2913524  35.8033383   8.8765536  30.0231806  36.5927738   8.6307675
  38.6474582  42.2603787  10.8382757  38.6364459  43.1428502  10.4676690
  37.7791962  41.9075337  10.6437294  30.1557079  51.4083856  15.1985598
  30.8685051  52.0431320  15.1261499  29.6647107  51.5047722  14.3825599
  31.8774606  45.3135108   6.7702889  30.9430884  45.4336571   6.6007594
  32.0551274  44.4107575   6.5062899  27.3779794  38.6980804   8.9236150
  27.0077581  38.1451844   9.6117056  27.8738886  38.0938937   8.3711150
  35.2647157  41.1552428   7.3052923  35.7307609  41.9880419   7.2313226
  35.7154657  40.6897409   8.0098182  25.2068992  49.1578299  16.0191168
  25.9078452  49.7914782  16.1720563  24.7364107  49.4993031  15.2586808
  33.3323388  47.4996249   4.3039075  33.6083232  47.3852843   5.2132950
  32.4627887  47.1013734   4.2651249  33.2363820  33.5233015  11.3443825
  32.3226899  33.7537241  11.5126032  33.6656921  33.6071459  12.1957857
  33.0070278  41.7122906  13.8443719  32.3541728  41.9598814  13.1896172
  33.3850658  40.8987045  13.5106196  29.9677452  51.7482600   7.9471889
  30.1499847  50.9304256   8.4099641  30.7910438  51.9650292   7.5096779
  30.3019618  50.6750785   5.2086938  30.8307384  50.1643239   4.5957100
  30.5647837  50.3593315   6.0732471  29.0557851  42.4542718  20.3309756
  28.3798488  42.3536847  21.0012131  29.8785485  42.2981931  20.7945753
  20.8036710  48.6914654  12.9522271  21.3890147  47.9458342  13.0850175
  20.6061549  49.0018611  13.8358935  23.6575365  51.7265901   7.9684713
  22.9885741  52.2112029   7.4848754  23.5188235  51.9735122   8.8828092
  15.3954365  41.2620254  11.6726714  15.4338464  40.7283845  12.4663832
  14.8894658  40.7355460  11.0537691  27.7980634  53.7609645  14.5667372
  28.3498942  53.9241266  15.3316457  28.1386827  54.3514083  13.8947397
  22.7745127  36.1084795  15.1689257  22.8386454  36.9699626  14.7566654
  22.7112248  35.4958796  14.4361615  22.2497400  38.1807927  18.8162291
  22.8769439  37.7985005  19.4299815  21.3925319  37.9622129  19.1817983
  32.6491508  48.5870902  20.4216026  33.1931412  49.2000861  19.9270981
  32.0678353  49.1450481  20.9383039  30.9349021  51.7091621  11.5531054
  30.8100161  50.9081360  11.0441999  31.5928112  52.2037814  11.0645024
  22.5557190  38.0640353  10.7308194  21.8343775  38.6776321  10.5915668
  23.3450445  38.5998118  10.6524840  32.9983930  49.5100641  13.1810604
  32.0514265  49.3905992  13.1088931  33.3466703  48.6223139  13.2636866
  25.3583503  35.3994780  17.0048846  25.8817905  35.6457076  17.7675155
  25.1395836  36.2314814  16.5851983  30.0030363  49.3053357   9.3814956
  29.8555325  48.3770064   9.5622526  30.8283857  49.3273448   8.8972032
  33.6064485  50.1281916  10.4679829  34.5311032  49.9224777  10.3304280
  33.4379788  49.8798317  11.3769171  26.5636048  36.3408475  14.6898517
  26.2232868  35.5416288  15.0919196  25.8575054  36.6410185  14.1175350
  27.2152520  33.4257787  13.1425840  28.0378589  32.9518265  13.0204730
  27.4590583  34.2048271  13.6424526  24.7391099  40.1176908  10.9517818
  24.5935679  40.4317211  11.8442100  24.2616302  40.7361808  10.3988717
  26.5987482  37.1079456  10.9998708  26.5849050  36.2120549  10.6631006
  27.3159910  37.1150119  11.6336994  28.4513612  37.5416796  13.0451835
  28.1931390  38.4633867  13.0436166  27.9198653  37.1447230  13.7352299
  33.3959801  50.6467583   5.8241921  33.5696679  50.0814005   5.0715773
  33.8888692  51.4468478   5.6421410  19.2136761  42.6582252  13.8905479
  18.6690229  43.4342060  14.0225754  20.0916111  43.0053057  13.7324601
  28.8715568  33.6748746   9.4052998  28.8937265  33.7388079   8.4504977
  29.2883627  32.8353255   9.5993504  39.2499192  43.4104006   7.4432220
  39.6930338  42.6611331   7.0451344  38.3725703  43.4014142   7.0605952
  34.3834974  49.9634347   2.9238819  35.0785878  50.5841040   3.1426133
  34.7258124  49.1129699   3.1991197  20.0002783  41.7852148  16.7835636
  19.2584519  41.9334784  17.3700267  19.6795527  42.0460414  15.9202386
  36.2826397  47.4134053   4.4526150  36.8077721  47.7521326   3.7275470
  36.1948749  46.4781068   4.2689284  27.9446445  51.3268127  16.5816026
  28.2533572  51.0817273  17.4538726  28.7421927  51.5314765  16.0934896
  27.9667057  53.4806036   8.8121403  27.5272048  52.9882415   9.5054259
  28.7175174  52.9379004   8.5713478  20.4459396  49.6717577   8.8146031
  21.2717416  49.3721349   8.4344674  20.0953448  48.9025200   9.2635819
  25.4140930  49.0244045  10.8843704  24.7920939  48.3614750  10.5845932
  26.0845796  49.0505177  10.2017352  18.6468001  47.5903904   9.7734964
  17.8099910  47.1626078   9.5918966  18.6191647  47.7836347  10.7105756
  25.4865457  37.5025833  20.4776210  25.5353613  38.3787956  20.0953980
  26.0287971  36.9603226  19.9047854  35.9720303  48.0466957  19.7577348
  35.1815846  48.0291095  19.2181847  35.7353657  48.5855250  20.5126384
  36.0918178  44.8959423  17.0710076  36.1416183  44.7309430  18.0125599
  35.9832101  44.0286682  16.6807957  24.9754436  47.5747969   4.3602165
  25.1242557  48.2583433   3.7068838  25.7820880  47.5553059   4.8751621
  33.3821940  40.8790351  18.3869383  34.2831803  40.7396816  18.0953381
  33.4569915  41.0444806  19.3267560  27.7164745  38.2557206  17.2322569
  26.8468055  38.5490772  16.9605158  27.9524226  38.8397651  17.9529833
  37.5936375  47.3156364  17.3152098  37.3021183  47.6786345  18.1515559
  36.9808506  46.6023373  17.1365430  38.7932057  44.8809244   9.8354668
  39.6278948  45.3199048   9.9992228  38.9291186  44.4047897   9.0162914
  35.8423563  42.4388979  15.7832156  36.3177684  42.6316625  14.9751007
  34.9189128  42.4948165  15.5375539  22.7307069  43.6013146   5.3663234
  22.4853111  42.6975476   5.5643444  22.9002984  43.6030297   4.4242712
  30.4203779  34.4736823  14.7487989  30.9385723  35.2097850  14.4234478
  30.0658912  34.7800816  15.5834749  30.6716373  30.8937105  10.2688886
  30.9518127  30.2260294  10.8949313  31.4566980  31.0866201   9.7563550
  28.4749842  50.0696099   1.8313912  27.9023809  50.6886286   1.3784384
  29.0482636  50.6195461   2.3653834  34.5425232  39.3154739  14.0160461
  35.4942655  39.4152837  14.0372685  34.3728682  38.5233008  14.5258546
  32.5639611  36.4010322  14.2019862  31.9689543  36.6815335  13.5066351
  32.2789308  36.8904223  14.9736603  31.6947102  50.3533249   2.9622495
  32.6277775  50.2878811   3.1655370  31.6070315  51.1889516   2.5037027
  34.3235118  49.6699120  -0.0773558  34.2448750  49.3358983   0.8162200
  35.1444785  50.1620887  -0.0782085  37.0213310  42.5360859  13.1302761
  36.9889630  41.5976860  13.3162445  37.6313933  42.6144896  12.3968586
  37.1707798  39.3271902  13.1761044  36.6546847  38.5430359  12.9890973
  38.0547747  38.9990619  13.3407564  34.8318525  33.0712918   9.1356857
  34.6343346  32.7628006  10.0200189  35.4418231  33.7974557   9.2654787
  42.8389859  43.5976866  12.2708798  43.5693248  43.3362154  12.8316501
  42.2296805  42.8605588  12.3110866  40.9205157  41.7384728  12.8683249
  40.1938320  41.6040693  12.2599740  40.5052443  42.0461557  13.6739967
  28.7435333  45.4574658  20.6330622  29.6638342  45.6353257  20.8270668
  28.7084916  44.5130703  20.4810321  17.9617498  40.6513252   9.5583897
  17.6420282  39.7978560   9.2658271  17.4150926  40.8661830  10.3141864
  21.7397406  43.3675693  13.2753403  21.9583415  44.2992800  13.2941437
  22.1523179  43.0083667  14.0608207  26.6125271  38.9408898  22.6656152
  26.5121998  39.8903255  22.5968243  26.3946813  38.6127137  21.7932222
  17.8305758  44.2716163  11.5277018  17.1369229  43.8570116  11.0146973
  18.5778749  44.3136700  10.9310437  33.9670979  35.0622350   6.3932052
  33.3869648  35.7207154   6.0110105  33.7006911  34.2399695   5.9819470
  32.4174545  34.4627408   8.5953373  32.9174323  34.5743942   7.7867691
  33.0610153  34.1588460   9.2354181  26.4756541  42.3706037  21.4821214
  25.9923623  43.1706397  21.6885103  26.5617480  42.3813982  20.5288658
  19.7442501  44.2034417   9.4043033  19.7213189  44.3022104   8.4524916
  20.0543137  45.0499568   9.7260199  22.4029878  46.2610572  13.5189647
  23.3573132  46.2294514  13.4519579  22.2042402  45.8001196  14.3339873
  22.9929261  44.8311688  16.0860445  23.8122150  45.3255767  16.1095282
  23.2666068  43.9143656  16.0578013  32.7495857  37.2222440   5.4488401
  31.8621712  37.5072091   5.2308595  33.1649846  37.0616204   4.6015677
  36.1010393  37.2468961   9.1642740  36.8770783  37.7365414   9.4367357
  35.3758527  37.6727015   9.6214609  38.5382952  37.9596580  10.2216680
  39.1327442  37.7192316   9.5109989  38.6109535  37.2403711  10.8490217
  20.7580107  51.8030191  10.5359845  20.6234575  51.0430592   9.9697843
  20.3412169  52.5271091  10.0688634  31.8939070  46.9867115  -0.4563579
  32.5974920  47.1917117   0.1594076  31.1701719  47.5543877  -0.1914496
  32.7236881  42.7376976   5.6638691  32.6672082  43.1945528   4.8246323
  33.2765223  41.9767661   5.4861533  36.5341686  38.5266708   6.4888810
  36.2778621  38.1263344   7.3197018  35.9094554  39.2410502   6.3638949
  40.8454024  41.2662781   8.9960102  40.2853582  41.3355971   9.7691664
  40.2397528  41.0903766   8.2759598  23.9149233  52.6999508  10.7478288
  23.7981617  53.6444941  10.6456978  23.0941679  52.3973070  11.1364087
  33.8025768  47.4249644   1.5934881  34.6371372  46.9930843   1.4112355
  33.6410111  47.2531658   2.5211775  33.4571660  43.9281757   2.9591220
  33.4020464  43.7626029   2.0179664  32.8317715  44.6357790   3.1153410
  18.2464175  39.1649822  16.7852642  18.8923038  38.6548776  17.2739867
  18.0381326  39.9018503  17.3596067  30.7717567  46.2330669  22.2844783
  31.6408727  46.4071322  21.9231418  30.2924318  47.0525086  22.1620512
  24.9403747  53.3527770  13.9634216  25.8430994  53.3851381  14.2800711
  24.7141117  52.4228221  13.9780552  26.6957349  52.1058757  10.6244295
  25.7452980  52.1060618  10.5108667  26.9989835  51.3591491  10.1080330
  22.5861666  36.3117439  20.8827656  23.4493127  35.9554244  21.0930981
  22.0127076  35.9731334  21.5703061  42.4310043  57.9419295  11.6890057
  43.0688453  57.8226043  10.9853397  42.3130886  58.8900139  11.7478009
  39.2399749  57.8946723  11.6251582  38.9018261  57.7787788  10.7372117
  40.1089517  57.4937888  11.6052588  35.0986565  59.7482200   7.6148473
  34.5351430  59.6572137   6.8464761  34.9838960  58.9282104   8.0950966
  39.7219532  59.0481575  17.5837788  39.7108173  58.6534373  16.7118291
  39.8840171  58.3147648  18.1771559  32.6450997  61.2433391  10.4532693
  33.4372289  60.9024216  10.0378993  32.8847647  61.3528366  11.3734847
  40.6786123  63.4153167   2.9262938  40.0274103  64.0007248   2.5396952
  41.4730486  63.9459362   2.9857975  34.6041751  60.5042305   3.3250072
  35.3772627  59.9571292   3.1862948  34.9567149  61.3686554   3.5364534
  36.4426793  61.8318687  16.5316972  36.1516659  62.7364318  16.4163638
  37.0783778  61.8735215  17.2461041  37.3683000  59.2095535  13.1218331
  37.9646572  58.9851558  12.4075294  37.4257972  58.4680281  13.7243779
  36.9408028  56.6634971   0.9568522  37.1933549  56.1416492   0.1951985
  36.0032587  56.5001116   1.0595206  41.9851311  55.6670749   8.7643265
  42.7714400  55.2490172   8.4133682  42.2490016  56.5716841   8.9324914
  42.1561389  61.1043599   3.4631922  41.5207222  61.1778226   4.1752827
  41.8258795  61.6937198   2.7851001  47.3859738  55.6045982   9.6676244
  48.1184910  55.0345199   9.9014073  46.6299094  55.2167583  10.1082749
  36.6604317  58.5663077   3.1592897  36.5440575  57.8907980   3.8273981
  36.7706577  58.0795451   2.3425050  39.0035858  58.0273224   6.8639586
  38.6394065  57.5003845   7.5752508  39.8602974  57.6371693   6.6906072
  44.9085159  49.3167556  14.1270852  44.5768483  50.1862967  13.9032067
  44.3130772  49.0003840  14.8064883  38.6441345  53.0563124   1.8600935
  38.8115747  53.9243360   2.2271406  38.4538514  53.2190405   0.9362224
  41.4016678  61.5180102  13.5266765  41.1017401  62.4205141  13.4182572
  41.0567738  61.2512286  14.3787918  34.8529160  57.9693899   9.5603470
  33.9279656  57.8370113   9.7681161  35.1013573  58.7488119  10.0573412
  44.8013822  54.0362643  11.2064203  43.8930699  53.9678051  10.9122964
  44.7501418  54.5134588  12.0346028  38.6230566  55.5120781   2.8447602
  38.5030191  55.9577832   3.6833082  37.9283154  55.8606099   2.2861140
  32.2137971  57.6127173  10.3947259  32.3430352  57.8661652  11.3086670
  31.5335422  58.2054881  10.0751914  36.3837458  68.2824423   6.4937733
  36.3061488  69.2332248   6.5726213  35.7799102  67.9370295   7.1512659
  38.8754688  55.4552288  19.1499100  38.0988022  56.0146208  19.1401964
  39.5145251  55.9409071  19.6713970  46.6675468  52.2379081  12.9842076
  46.0249849  52.5311614  12.3381871  46.1630397  52.1232001  13.7895273
  44.3215632  55.9842254   3.6727936  45.2333488  56.2169641   3.4975633
  43.8125279  56.5679298   3.1103014  37.1301060  58.2637742  18.7117067
  37.8715744  58.8022786  18.4351890  36.4238046  58.8904030  18.8688619
  42.6056400  60.4066882  17.3089228  43.0139756  59.9649293  16.5643861
  41.8833661  59.8319510  17.5623421  38.9587470  55.3439489  14.6822785
  39.8048665  55.7678902  14.8257434  38.8986107  54.6873113  15.3761348
  42.9285214  60.9668073  11.0641517  42.2994077  61.1313787  10.3617585
  42.5410876  61.3809682  11.8352481  46.8074446  61.9022510   8.4185881
  46.1225484  62.2821412   7.8682914  46.8918296  62.5117837   9.1517829
  42.1086915  53.0043857  16.3403959  41.8647847  53.7585918  15.8038235
  42.3846846  53.3829205  17.1751206  44.0625378  59.5482470  15.0181224
  44.2742273  60.1914229  14.3415606  44.0155126  58.7144786  14.5503155
  41.6651607  52.1600290  11.9217797  40.8036086  52.4581544  12.2134534
  41.6914042  52.3770689  10.9898829  38.4813176  60.7042481   8.3291602
  38.9451522  60.9830184   7.5396225  38.2169974  59.8025925   8.1464693
  35.3737257  60.2513962  11.2671366  35.9438614  60.6801231  10.6288850
  35.9645369  59.9696547  11.9655551  37.4182062  56.8265633   5.1381167
  38.1206106  57.2786677   5.6055094  37.0862691  56.1849452   5.7661061
  35.8662424  55.4177390  19.5132377  35.2361084  56.0993671  19.7467774
  35.7598512  55.3060471  18.5685515  31.1607396  55.0849186  10.4398301
  30.3706450  55.3406714   9.9638412  31.6518644  55.8997524  10.5450342
  45.1771206  62.4254425  13.1903582  45.9988650  62.0234612  12.9086263
  45.1733609  62.3222659  14.1419698  33.1122142  55.4493765   7.3981778
  32.3153305  55.5612459   7.9165273  32.8847734  55.7880417   6.5322668
  38.9427809  61.9738468  15.3464292  39.0072242  62.4358875  16.1822464
  38.2338733  61.3435833  15.4746602  29.4445099  55.3379676  12.8713292
  29.6953138  56.2226686  13.1370868  29.9804648  55.1584278  12.0988384
  53.2677199  58.7693173   9.5388553  52.5140907  58.2000571   9.3832558
  53.4024740  58.7355838  10.4859188  38.6575827  63.6406576   5.2143273
  38.5221502  64.4858111   5.6428120  39.1985639  63.8425853   4.4509206
  35.1443167  49.7198156  21.8757628  34.7510112  49.1664354  22.5505272
  35.9609307  50.0308734  22.2664145  32.1105224  61.1582014   5.7871198
  32.6229745  61.9525264   5.9376762  32.7627937  60.4608304   5.7204799
  33.9200109  64.2747770   7.8693951  34.0966737  65.1965735   7.6814935
  34.7156943  63.9606189   8.2988331  38.0611128  51.1356035  19.4677884
  38.8020841  51.7363188  19.3882347  38.2929050  50.3933672  18.9095927
  33.2052466  56.3212402  17.7456114  33.0905981  55.4197659  18.0463213
  32.3496983  56.5676099  17.3940931  40.2844303  64.2630142  19.3443615
  39.8408158  63.4766521  19.0264519  40.9461517  64.4509293  18.6787506
  35.0431425  65.7925944  13.8704293  35.5938850  65.6643007  13.0981287
  34.2042900  66.0920833  13.5199186  42.3825541  64.5432942  17.3725016
  42.3644017  65.3641823  16.8805285  43.3045461  64.4187017  17.5975157
  38.8398596  62.0577072  18.2148524  39.3726932  61.2965360  17.9847832
  38.3112677  61.7650723  18.9572679  42.0068291  47.1637138  13.7442166
  41.6632560  48.0538779  13.6681277  42.3747253  46.9738795  12.8811751
  30.0754141  59.4870668   6.5630768  30.9129363  59.8967676   6.3464476
  30.2532409  58.5470110   6.5330962  41.9718573  57.1545749   2.2514601
  41.4565197  57.9250353   2.4902989  41.6995882  56.4810885   2.8747663
  39.5565684  51.9995449   7.3099840  38.7007281  51.6102300   7.1305478
  39.9692636  52.0787410   6.4499625  41.0864831  49.5341793  11.7091399
  40.5829626  49.4971928  10.8959205  41.3795438  50.4434535  11.7688056
  37.3307717  49.6180522  10.7157581  38.1960714  49.4223331  10.3563471
  37.3985226  49.3890874  11.6426938  46.9452847  59.9078103   4.1867775
  46.1682290  59.5689263   3.7422937  47.6244328  59.9130727   3.5122740
  41.7604876  55.0272841   4.0774382  41.4555012  55.3418990   4.9284526
  42.7135319  55.1054261   4.1201715  40.2051308  61.1863064   5.7267336
  39.6772670  60.4515824   5.4140574  39.7038811  61.9637740   5.4807305
  45.1844154  59.3812085  10.8434383  44.5267829  60.0711346  10.9314511
  45.9884553  59.7708517  11.1868369  34.9370036  51.8482730   8.0873948
  35.5113788  51.6257912   7.3547141  35.5241018  51.9171425   8.8402549
  43.9949613  57.7356457   8.8938324  44.5081495  58.3686449   9.3960034
  44.6450837  57.1357653   8.5281684  35.2639623  53.8787191   2.1069833
  34.4276935  54.2161878   2.4279108  35.1244393  53.7436171   1.1696970
  37.2392704  48.7223979   6.8149017  36.5857116  48.4072996   6.1905632
  37.1973178  48.0999720   7.5408840  38.3503908  59.0043274  -1.2697691
  37.4430970  58.7732528  -1.0706542  38.8474940  58.2080894  -1.0823709
  41.2571987  67.7140782   1.6498996  40.5833686  68.0172478   2.2583953
  41.6437809  68.5169862   1.3004453  40.4730444  55.2105913  11.1396665
  39.5553005  55.4320860  10.9818353  40.8890588  55.2852223  10.2808372
  41.2565492  56.6097329   6.2699345  42.0037311  57.1218726   5.9606467
  41.5257081  56.2881381   7.1303739  39.5292142  59.1055869   3.2526300
  38.6203361  58.8214902   3.3498769  39.5587226  59.5254948   2.3929606
  44.7611409  62.7162459   7.0217467  44.3073736  61.8753369   7.0782658
  44.1305376  63.3523857   7.3592247  43.7044329  53.6454445   8.2518135
  42.9667086  53.1331831   8.5828377  43.9571102  53.2054826   7.4401411
  43.2044349  64.5538955   7.9567285  43.4967323  65.1144013   7.2379651
  43.7142969  64.8467516   8.7120444  43.8055956  46.4230697   8.8459904
  44.1114833  45.5628060   8.5585819  44.5308561  47.0148317   8.6458898
  30.0980312  56.8261383   7.2341502  29.9004712  56.2330744   6.5092568
  29.5426976  56.5213594   7.9517441  38.0777036  56.7184490   9.3536095
  38.1325646  55.7658326   9.2778571  37.2668238  56.8743929   9.8377393
  39.2268230  60.6464613   0.5914378  38.7887660  59.9300472   0.1320015
  39.9678671  60.8740728   0.0299469  36.0169396  55.3361550   7.1126474
  35.2037261  55.6355720   7.5191666  36.5128390  54.9417238   7.8300956
  38.1677974  65.3319307   9.0460738  38.1254153  65.5580153   8.1169270
  39.0840673  65.0982681   9.1946540  41.6143608  55.8003374  15.9441368
  41.9692995  56.0274847  16.8035833  42.2615739  56.1321751  15.3218623
  47.3441344  58.9221810   6.6490697  47.2059243  59.1123406   5.7211886
  46.9877563  59.6841193   7.1058748  35.5083471  52.9079905  12.7287709
  36.1482850  52.7668664  12.0310672  34.6761001  52.6214419  12.3526311
  47.3710724  60.9898337  11.6601968  47.8047231  60.8973626  12.5085022
  48.0842305  60.9655837  11.0221984  36.2843774  62.2082336   8.8422701
  37.0784373  61.7132656   8.6405276  35.5735467  61.6800199   8.4790407
  41.1038619  64.5900431  13.1935069  41.1575641  65.1591367  13.9612785
  40.2353400  64.7602316  12.8289106  32.5926538  56.3525417   4.9182454
  31.6624126  56.2909873   5.1352416  32.6884010  55.8301370   4.1219095
  32.5112087  52.8780230   7.5060695  32.7718904  53.7925563   7.3969856
  33.3329259  52.4104673   7.6557308  33.9837012  54.2917987  14.6759520
  34.6560066  54.0835349  14.0272169  33.1566799  54.0940073  14.2364752
  48.2326274  61.0322038  14.1934854  48.4262164  61.9367848  14.4394128
  48.1326892  60.5729457  15.0273439  39.8862584  50.9179928  16.6925181
  39.2390499  51.6169878  16.5989657  40.6563600  51.3516072  17.0601429
  43.2941382  61.1828780  19.7675734  43.1426889  60.9539332  18.8505818
  43.2846062  62.1399382  19.7807079  40.0626719  58.7560693  14.7522001
  40.9918779  58.9071853  14.5790968  39.6417749  58.8444714  13.8970647
  38.8615050  62.7811358  12.5220538  38.7226136  62.4130142  13.3946476
  38.0729647  63.2958997  12.3504496  39.4563202  67.8820454   3.8646075
  39.6314958  67.4108497   4.6791697  38.7695990  68.5086220   4.0927335
  40.4120266  62.1592960   9.9109376  40.0770098  62.1193730  10.8067026
  39.9124211  61.4937676   9.4379786  34.3864510  57.5660590  15.4361957
  34.2484308  56.8340829  16.0373496  35.2969433  57.4769490  15.1546145
  43.3479457  59.5048995   0.1846436  42.7308628  58.7795823   0.0879488
  42.8795946  60.2658355  -0.1586490  37.0146810  57.2780550  14.9245637
  37.7246429  56.6373742  14.8832255  36.9716118  57.5293444  15.8471818
  45.0033589  64.2147903  17.8452216  44.9446135  63.5307123  17.1782799
  45.4053107  64.9566893  17.3932842  35.7275744  54.2645767  16.7441276
  35.1913101  53.8136506  17.3962873  35.1392453  54.3991676  16.0011741
  34.0224288  71.0309817  10.6385935  34.2620886  71.6628341  11.3164953
  33.1793484  70.6797857  10.9251294  35.1378003  53.7234419  -0.6932260
  34.2607470  53.6023220  -1.0570013  35.6135756  52.9320497  -0.9453371
  45.0050996  62.1787487  16.0766196  44.1177775  61.8413409  16.1992595
  45.5749547  61.4470518  16.3134961  26.6580143  58.5111579   9.4009247
  27.3451183  58.1973309   8.8130262  26.5028272  59.4152943   9.1276499
  31.4614865  53.4001775  13.8294271  31.3773054  52.7927445  13.0944681
  30.6397572  53.8910793  13.8303767  38.5352150  66.8388939  13.0427439
  38.4622321  67.6443911  13.5546743  38.0929543  67.0380905  12.2175460
  38.3241929  66.0760709   6.5530260  37.5409451  66.6182389   6.6468485
  39.0234674  66.5934689   6.9524502  41.6338579  51.8855339   9.1964466
  42.1307279  51.1325301   8.8765536  40.8625561  51.9219655   8.6307675
  49.4868337  57.5895704  10.8382757  49.4758213  58.4720420  10.4676690
  48.6185716  57.2367255  10.6437294  40.9950833  66.7375773  15.1985598
  41.7078805  67.3723238  15.1261499  40.5040862  66.8339639  14.3825599
  42.7168360  60.6427026   6.7702889  41.7824639  60.7628488   6.6007594
  42.8945029  59.7399493   6.5062899  38.2173548  54.0272722   8.9236150
  37.8471336  53.4743762   9.6117056  38.7132641  53.4230855   8.3711150
  46.1040911  56.4844345   7.3052923  46.5701364  57.3172337   7.2313226
  46.5548412  56.0189327   8.0098182  36.0462747  64.4870217  16.0191168
  36.7472206  65.1206700  16.1720563  35.5757862  64.8284948  15.2586808
  44.1717142  62.8288166   4.3039075  44.4476986  62.7144761   5.2132950
  43.3021641  62.4305651   4.2651249  44.0757574  48.8524932  11.3443825
  43.1620654  49.0829159  11.5126032  44.5050676  48.9363376  12.1957857
  43.8464033  57.0414824  13.8443719  43.1935483  57.2890732  13.1896172
  44.2244413  56.2278962  13.5106196  40.8071207  67.0774517   7.9471889
  40.9893601  66.2596173   8.4099641  41.6304193  67.2942210   7.5096779
  41.1413372  66.0042702   5.2086938  41.6701138  65.4935157   4.5957100
  41.4041592  65.6885233   6.0732471  39.8951606  57.7834635  20.3309756
  39.2192243  57.6828765  21.0012131  40.7179240  57.6273849  20.7945753
  31.6430465  64.0206572  12.9522271  32.2283902  63.2750260  13.0850175
  31.4455303  64.3310528  13.8358935  34.4969120  67.0557819   7.9684713
  33.8279495  67.5403947   7.4848754  34.3581990  67.3027040   8.8828092
  26.2348119  56.5912172  11.6726714  26.2732219  56.0575763  12.4663832
  25.7288412  56.0647377  11.0537691  38.6374389  69.0901563  14.5667372
  39.1892697  69.2533184  15.3316457  38.9780582  69.6806000  13.8947397
  33.6138882  51.4376712  15.1689257  33.6780208  52.2991543  14.7566654
  33.5506002  50.8250714  14.4361615  33.0891154  53.5099845  18.8162291
  33.7163193  53.1276922  19.4299815  32.2319073  53.2914047  19.1817983
  43.4885263  63.9162820  20.4216026  44.0325167  64.5292778  19.9270981
  42.9072108  64.4742399  20.9383039  29.8656697  55.3176274   4.7480646
  30.1610138  54.4086953   4.6947699  28.9644733  55.2964014   4.4261648
  41.7742776  67.0383538  11.5531054  41.6493915  66.2373278  11.0441999
  42.4321867  67.5329732  11.0645024  33.3950944  53.3932271  10.7308194
  32.6737530  54.0068238  10.5915668  34.1844200  53.9290036  10.6524840
  43.8377684  64.8392558  13.1810604  42.8908020  64.7197909  13.1088931
  44.1860457  63.9515056  13.2636866  36.1977258  50.7286697  17.0048846
  36.7211659  50.9748994  17.7675155  35.9789591  51.5606732  16.5851983
  31.5944539  52.9990372   4.8719971  31.2657245  52.1187751   4.6895077
  31.9483909  52.9438040   5.7596360  40.8424118  64.6345274   9.3814956
  40.6949080  63.7061982   9.5622526  41.6677611  64.6565365   8.8972032
  34.7086362  53.2863342   5.2395448  35.0482434  53.8149263   4.5174057
  35.1558482  53.6243748   6.0154015  44.4458239  65.4573833  10.4679829
  45.3704787  65.2516695  10.3304280  44.2773543  65.2090234  11.3769171
  37.4029803  51.6700392  14.6898517  37.0626623  50.8708205  15.0919196
  36.6968809  51.9702103  14.1175350  38.0546274  48.7549705  13.1425840
  38.8772344  48.2810183  13.0204730  38.2984338  49.5340188  13.6424526
  36.6954509  51.7837963   3.4388741  37.4162871  52.1619216   2.9352458
  36.0719813  52.5026840   3.5423719  40.8385632  52.4883112   4.3747074
  41.0549246  53.3707750   4.0735902  40.3579699  52.0969326   3.6452716
  35.5784853  55.4468825  10.9517818  35.4329434  55.7609128  11.8442100
  35.1010057  56.0653726  10.3988717  37.4381236  52.4371373  10.9998708
  37.4242805  51.5412467  10.6631006  38.1553664  52.4442037  11.6336994
  39.2907367  52.8708714  13.0451835  39.0325145  53.7925784  13.0436166
  38.7592407  52.4739148  13.7352299  44.2353556  65.9759501   5.8241921
  44.4090433  65.4105923   5.0715773  44.7282447  66.7760396   5.6421410
  30.0530515  57.9874170  13.8905479  29.5083983  58.7633978  14.0225754
  30.9309865  58.3344974  13.7324601  36.8418132  51.3185754   6.2686278
  36.9634043  50.3902400   6.4677165  36.5520174  51.3324440   5.3564593
  39.7109322  49.0040664   9.4052998  39.7331019  49.0679997   8.4504977
  40.1277381  48.1645173   9.5993504  50.0892947  58.7395924   7.4432220
  50.5324093  57.9903249   7.0451344  49.2119457  58.7306060   7.0605952
  45.2228728  65.2926265   2.9238819  45.9179633  65.9132958   3.1426133
  45.5651878  64.4421616   3.1991197  30.8396537  57.1144066  16.7835636
  30.0978273  57.2626701  17.3700267  30.5189281  57.3752332  15.9202386
  47.1220151  62.7425971   4.4526150  47.6471475  63.0813243   3.7275470
  47.0342504  61.8072986   4.2689284  38.7840200  66.6560044  16.5816026
  39.0927326  66.4109191  17.4538726  39.5815682  66.8606683  16.0934896
  38.8060812  68.8097954   8.8121403  38.3665802  68.3174333   9.5054259
  39.5568929  68.2670922   8.5713478  31.2853151  65.0009495   8.8146031
  32.1111171  64.7013267   8.4344674  30.9347203  64.2317117   9.2635819
  36.2534684  64.3535963  10.8843704  35.6314693  63.6906668  10.5845932
  36.9239551  64.3797095  10.2017352  29.4861756  62.9195821   9.7734964
  28.6493664  62.4917996   9.5918966  29.4585401  63.1128265  10.7105756
  36.3259212  52.8317751  20.4776210  36.3747367  53.7079874  20.0953980
  36.8681726  52.2895144  19.9047854  46.8114057  63.3758874  19.7577348
  46.0209601  63.3583013  19.2181847  46.5747412  63.9147168  20.5126384
  46.9311932  60.2251341  17.0710076  46.9809937  60.0601348  18.0125599
  46.8225856  59.3578600  16.6807957  35.8148191  62.9039886   4.3602165
  35.9636311  63.5875351   3.7068838  36.6214634  62.8844976   4.8751621
  44.2215695  56.2082269  18.3869383  45.1225557  56.0688734  18.0953381
  44.2963669  56.3736723  19.3267560  38.5558500  53.5849123  17.2322569
  37.6861809  53.8782689  16.9605158  38.7917980  54.1689568  17.9529833
  48.4330129  62.6448282  17.3152098  48.1414937  63.0078263  18.1515559
  47.8202260  61.9315290  17.1365430  49.6325811  60.2101162   9.8354668
  50.4672703  60.6490966   9.9992228  49.7684940  59.7339815   9.0162914
  46.6817317  57.7680897  15.7832156  47.1571439  57.9608543  14.9751007
  45.7582883  57.8240083  15.5375539  33.5700824  58.9305064   5.3663234
  33.3246866  58.0267394   5.5643444  33.7396738  58.9322214   4.4242712
  41.2597534  49.8028740  14.7487989  41.7779478  50.5389767  14.4234478
  40.9052667  50.1092734  15.5834749  32.8396471  54.6633422   2.8649395
  32.1465716  54.7377777   2.2089431  32.5948223  53.8993765   3.3870912
  41.5110128  46.2229023  10.2688886  41.7911882  45.5552212  10.8949313
  42.2960735  46.4158118   9.7563550  39.3143596  65.3988017   1.8313912
  38.7417564  66.0178204   1.3784384  39.8876390  65.9487378   2.3653834
  45.3818986  54.6446657  14.0160461  46.3336409  54.7444755  14.0372685
  45.2122437  53.8524925  14.5258546  43.4033366  51.7302240  14.2019862
  42.8083298  52.0107253  13.5066351  43.1183063  52.2196141  14.9736603
  42.5340856  65.6825167   2.9622495  43.4671529  65.6170729   3.1655370
  42.4464069  66.5181434   2.5037027  45.1628873  64.9991037  -0.0773558
  45.0842504  64.6650901   0.8162200  45.9838540  65.4912805  -0.0782085
  47.8607064  57.8652777  13.1302761  47.8283384  56.9268777  13.3162445
  48.4707688  57.9436813  12.3968586  39.6990395  56.7348830  -0.8270035
  40.6449500  56.6055038  -0.7581617  39.3204640  55.9963491  -0.3500607
  48.0101553  54.6563820  13.1761044  47.4940601  53.8722277  12.9890973
  48.8941501  54.3282537  13.3407564  45.6712280  48.4004836   9.1356857
  45.4737101  48.0919924  10.0200189  46.2811985  49.1266474   9.2654787
  53.6783614  58.9268783  12.2708798  54.4087002  58.6654072  12.8316501
  53.0690559  58.1897505  12.3110866  51.7598911  57.0676646  12.8683249
  51.0332075  56.9332611  12.2599740  51.3446198  57.3753475  13.6739967
  39.5829088  60.7866576  20.6330622  40.5032097  60.9645175  20.8270668
  39.5478671  59.8422621  20.4810321  37.8833312  54.6598806  -0.8915150
  36.9764768  54.3631919  -0.8152436  38.1609293  54.3628624  -1.7580864
  28.8011253  55.9805169   9.5583897  28.4814037  55.1270478   9.2658271
  28.2544681  56.1953747  10.3141864  32.5791160  58.6967610  13.2753403
  32.7977170  59.6284718  13.2941437  32.9916934  58.3375585  14.0608207
  39.4995378  49.2035696   5.2629091  38.6896106  48.8582781   5.6384337
  40.1879795  48.8943239   5.8516703  41.4285926  48.2813742   6.8853388
  41.9816965  48.7009196   7.5443411  41.6656013  47.3549491   6.9276344
  36.6532097  51.5185741  -0.7503171  37.5151261  51.8440639  -0.4907353
  36.8382441  50.7317237  -1.2630105  28.6699513  59.6008081  11.5277018
  27.9762984  59.1862034  11.0146973  29.4172504  59.6428617  10.9310437
  44.8064733  50.3914268   6.3932052  44.2263402  51.0499072   6.0110105
  44.5400666  49.5691612   5.9819470  43.2568300  49.7919325   8.5953373
  43.7568078  49.9035860   7.7867691  43.9003908  49.4880378   9.2354181
  37.3150295  57.6997955  21.4821214  36.8317377  58.4998315  21.6885103
  37.4011234  57.7105900  20.5288658  30.5836255  59.5326335   9.4043033
  30.5606943  59.6314022   8.4524916  30.8936892  60.3791485   9.7260199
  33.2423633  61.5902490  13.5189647  34.1966886  61.5586432  13.4519579
  33.0436157  61.1293113  14.3339873  33.8323015  60.1603606  16.0860445
  34.6515904  60.6547684  16.1095282  34.1059823  59.2435574  16.0578013
  43.5889611  52.5514358   5.4488401  42.7015466  52.8364009   5.2308595
  44.0043600  52.3908121   4.6015677  46.9404147  52.5760879   9.1642740
  47.7164538  53.0657331   9.4367357  46.2152282  53.0018933   9.6214609
  49.3776706  53.2888498  10.2216680  49.9721197  53.0484234   9.5109989
  49.4503290  52.5695629  10.8490217  31.5973862  67.1322109  10.5359845
  31.4628330  66.3722510   9.9697843  31.1805924  67.8563009  10.0688634
  42.7332825  62.3159033  -0.4563579  43.4368675  62.5209035   0.1594076
  42.0095473  62.8835795  -0.1914496  43.5630635  58.0668894   5.6638691
  43.5065836  58.5237445   4.8246323  44.1158977  57.3059578   5.4861533
  47.3735441  53.8558626   6.4888810  47.1172375  53.4555261   7.3197018
  46.7488309  54.5702420   6.3638949  51.6847779  56.5954699   8.9960102
  51.1247337  56.6647888   9.7691664  51.0791282  56.4195684   8.2759598
  34.7542988  68.0291426  10.7478288  34.6375372  68.9736859  10.6456978
  33.9335434  67.7264988  11.1364087  44.6419522  62.7541562   1.5934881
  45.4765126  62.3222760   1.4112355  44.4803865  62.5823576   2.5211775
  44.2965414  59.2573675   2.9591220  44.2414218  59.0917947   2.0179664
  43.6711470  59.9649708   3.1153410  29.0857929  54.4941740  16.7852642
  29.7316793  53.9840694  17.2739867  28.8775080  55.2310421  17.3596067
  41.6111321  61.5622587  22.2844783  42.4802481  61.7363239  21.9231418
  41.1318073  62.3817004  22.1620512  37.6061540  48.7581784   2.5376538
  37.5940210  49.7023624   2.6944809  38.4984962  48.5751930   2.2436000
  35.7797502  68.6819688  13.9634216  36.6824748  68.7143298  14.2800711
  35.5534872  67.7520139  13.9780552  37.5351104  67.4350675  10.6244295
  36.5846735  67.4352536  10.5108667  37.8383590  66.6883409  10.1080330
  41.4213659  45.3524561   6.7922475  40.6546055  44.7983047   6.9379157
  41.8324364  45.4246430   7.6536627  33.4255420  51.6409357  20.8827656
  34.2886882  51.2846161  21.0930981  32.8520831  51.3023251  21.5703061
  53.2703797  73.2711213  11.6890057  53.9082207  73.1517960  10.9853397
  53.1524640  74.2192057  11.7478009  50.0793504  73.2238641  11.6251582
  49.7412015  73.1079706  10.7372117  50.9483272  72.8229806  11.6052588
  45.9380319  75.0774117   7.6148473  45.3745184  74.9864054   6.8464761
  45.8232714  74.2574022   8.0950966  50.5613287  74.3773493  17.5837788
  50.5501927  73.9826291  16.7118291  50.7233926  73.6439565  18.1771559
  43.4844751  76.5725309  10.4532693  44.2766043  76.2316134  10.0378993
  43.7241401  76.6820284  11.3734847  45.4435505  75.8334222   3.3250072
  46.2166381  75.2863209   3.1862948  45.7960904  76.6978472   3.5364534
  47.2820548  77.1610605  16.5316972  46.9910414  78.0656235  16.4163638
  47.9177532  77.2027132  17.2461041  48.2076754  74.5387453  13.1218331
  48.8040327  74.3143476  12.4075294  48.2651726  73.7972199  13.7243779
  52.8245066  70.9962667   8.7643265  53.6108155  70.5782090   8.4133682
  53.0883770  71.9008759   8.9324914  58.2253493  70.9337900   9.6676244
  58.9578665  70.3637117   9.9014073  57.4692849  70.5459500  10.1082749
  47.4998072  73.8954994   3.1592897  47.3834330  73.2199898   3.8273981
  47.6100332  73.4087368   2.3425050  49.8429613  73.3565141   6.8639586
  49.4787820  72.8295762   7.5752508  50.6996728  72.9663611   6.6906072
  55.7478913  64.6459474  14.1270852  55.4162238  65.5154885  13.9032067
  55.1524527  64.3295758  14.8064883  49.4835100  68.3855041   1.8600935
  49.6509502  69.2535278   2.2271406  49.2932269  68.5482323   0.9362224
  52.2410433  76.8472020  13.5266765  51.9411156  77.7497059  13.4182572
  51.8961492  76.5804203  14.3787918  45.6922914  73.2985817   9.5603470
  44.7673411  73.1662031   9.7681161  45.9407327  74.0780036  10.0573412
  55.6407577  69.3654560  11.2064203  54.7324454  69.2969969  10.9122964
  55.5895172  69.8426505  12.0346028  49.4624320  70.8412699   2.8447602
  49.3423946  71.2869749   3.6833082  48.7676909  71.1898016   2.2861140
  43.0531725  72.9419090  10.3947259  43.1824106  73.1953569  11.3086670
  42.3729177  73.5346798  10.0751914  49.7148442  70.7844206  19.1499100
  48.9381776  71.3438126  19.1401964  50.3539005  71.2700989  19.6713970
  57.5069223  67.5670999  12.9842076  56.8643603  67.8603532  12.3381871
  57.0024151  67.4523919  13.7895273  47.9694815  73.5929659  18.7117067
  48.7109499  74.1314703  18.4351890  47.2631800  74.2195948  18.8688619
  53.4450154  75.7358800  17.3089228  53.8533510  75.2941210  16.5643861
  52.7227416  75.1611427  17.5623421  49.7981224  70.6731406  14.6822785
  50.6442419  71.0970820  14.8257434  49.7379862  70.0165031  15.3761348
  53.7678969  76.2959990  11.0641517  53.1387831  76.4605704  10.3617585
  53.3804631  76.7101600  11.8352481  57.6468201  77.2314428   8.4185881
  56.9619239  77.6113330   7.8682914  57.7312050  77.8409755   9.1517829
  52.9480670  68.3335775  16.3403959  52.7041601  69.0877835  15.8038235
  53.2240600  68.7121122  17.1751206  54.9019132  74.8774387  15.0181224
  55.1136028  75.5206147  14.3415606  54.8548881  74.0436704  14.5503155
  52.5045361  67.4892208  11.9217797  51.6429840  67.7873461  12.2134534
  52.5307796  67.7062607  10.9898829  49.3206931  76.0334398   8.3291602
  49.7845276  76.3122101   7.5396225  49.0563729  75.1317843   8.1464693
  46.2131012  75.5805880  11.2671366  46.7832369  76.0093148  10.6288850
  46.8039124  75.2988465  11.9655551  48.2575817  72.1557551   5.1381167
  48.9599860  72.6078594   5.6055094  47.9256445  71.5141370   5.7661061
  46.7056178  70.7469307  19.5132377  46.0754839  71.4285588  19.7467774
  46.5992266  70.6352389  18.5685515  42.0001151  70.4141103  10.4398301
  41.2100205  70.6698632   9.9638412  42.4912398  71.2289441  10.5450342
  56.0164960  77.7546343  13.1903582  56.8382404  77.3526530  12.9086263
  56.0127363  77.6514577  14.1419698  43.9515896  70.7785683   7.3981778
  43.1547059  70.8904377   7.9165273  43.7241488  71.1172335   6.5322668
  49.7821564  77.3030386  15.3464292  49.8465996  77.7650793  16.1822464
  49.0732488  76.6727751  15.4746602  40.2838854  70.6671594  12.8713292
  40.5346892  71.5518604  13.1370868  40.8198402  70.4876195  12.0988384
  64.1070953  74.0985091   9.5388553  63.3534662  73.5292489   9.3832558
  64.2418495  74.0647756  10.4859188  45.9836921  65.0490073  21.8757628
  45.5903867  64.4956272  22.5505272  46.8003061  65.3600652  22.2664145
  42.9498979  76.4873931   5.7871198  43.4623499  77.2817182   5.9376762
  43.6021692  75.7900222   5.7204799  44.7593864  79.6039688   7.8693951
  44.9360492  80.5257652   7.6814935  45.5550697  79.2898107   8.2988331
  48.9004882  66.4647952  19.4677884  49.6414595  67.0655105  19.3882347
  49.1322805  65.7225590  18.9095927  44.0446220  71.6504320  17.7456114
  43.9299735  70.7489577  18.0463213  43.1890738  71.8968016  17.3940931
  51.1238058  79.5922060  19.3443615  50.6801912  78.8058438  19.0264519
  51.7855271  79.7801210  18.6787506  45.8825179  81.1217862  13.8704293
  46.4332604  80.9934925  13.0981287  45.0436655  81.4212751  13.5199186
  53.2219296  79.8724860  17.3725016  53.2037771  80.6933741  16.8805285
  54.1439216  79.7478935  17.5975157  49.6792350  77.3868989  18.2148524
  50.2120687  76.6257278  17.9847832  49.1506431  77.0942641  18.9572679
  52.8462045  62.4929055  13.7442166  52.5026314  63.3830697  13.6681277
  53.2141008  62.3030713  12.8811751  40.9147896  74.8162586   6.5630768
  41.7523118  75.2259594   6.3464476  41.0926163  73.8762028   6.5330962
  50.3959439  67.3287367   7.3099840  49.5401035  66.9394218   7.1305478
  50.8086391  67.4079328   6.4499625  51.9258585  64.8633710  11.7091399
  51.4223381  64.8263846  10.8959205  52.2189192  65.7726453  11.7688056
  48.1701471  64.9472440  10.7157581  49.0354468  64.7515249  10.3563471
  48.2378980  64.7182792  11.6426938  52.5998631  70.3564758   4.0774382
  52.2948766  70.6710908   4.9284526  53.5529073  70.4346178   4.1201715
  51.0445063  76.5154982   5.7267336  50.5166424  75.7807741   5.4140574
  50.5432565  77.2929658   5.4807305  56.0237909  74.7104002  10.8434383
  55.3661583  75.4003264  10.9314511  56.8278308  75.1000434  11.1868369
  45.7763790  67.1774648   8.0873948  46.3507542  66.9549830   7.3547141
  46.3634773  67.2463343   8.8402549  54.8343368  73.0648375   8.8938324
  55.3475249  73.6978367   9.3960034  55.4844591  72.4649570   8.5281684
  46.1033377  69.2079109   2.1069833  45.2670690  69.5453796   2.4279108
  45.9638147  69.0728089   1.1696970  48.0786458  64.0515897   6.8149017
  47.4250870  63.7364914   6.1905632  48.0366932  63.4291637   7.5408840
  51.3124198  70.5397831  11.1396665  50.3946760  70.7612778  10.9818353
  51.7284342  70.6144141  10.2808372  52.0959246  71.9389246   6.2699345
  52.8431065  72.4510643   5.9606467  52.3650836  71.6173299   7.1303739
  54.6449711  61.7522614   8.8459904  54.9508587  60.8919978   8.5585819
  55.3702315  62.3440235   8.6458898  40.9374067  72.1553301   7.2341502
  40.7398467  71.5622662   6.5092568  40.3820731  71.8505511   7.9517441
  48.9170790  72.0476408   9.3536095  48.9719400  71.0950244   9.2778571
  48.1061992  72.2035847   9.8377393  46.8563150  70.6653467   7.1126474
  46.0431016  70.9647638   7.5191666  47.3522145  70.2709156   7.8300956
  49.0071728  80.6611224   9.0460738  48.9647907  80.8872071   8.1169270
  49.9234427  80.4274599   9.1946540  52.4537362  71.1295292  15.9441368
  52.8086750  71.3566765  16.8035833  53.1009493  71.4613669  15.3218623
  46.3477225  68.2371823  12.7287709  46.9876604  68.0960582  12.0310672
  45.5154756  67.9506336  12.3526311  58.2104479  76.3190255  11.6601968
  58.6440985  76.2265544  12.5085022  58.9236059  76.2947755  11.0221984
  47.1237529  77.5374253   8.8422701  47.9178127  77.0424573   8.6405276
  46.4129221  77.0092116   8.4790407  51.9432373  79.9192349  13.1935069
  51.9969396  80.4883285  13.9612785  51.0747155  80.0894234  12.8289106
  43.4320292  71.6817335   4.9182454  42.5017881  71.6201790   5.1352416
  43.5277764  71.1593288   4.1219095  43.3505842  68.2072148   7.5060695
  43.6112659  69.1217481   7.3969856  44.1723014  67.7396590   7.6557308
  44.8230767  69.6209905  14.6759520  45.4953820  69.4127267  14.0272169
  43.9960553  69.4231991  14.2364752  59.0720028  76.3613955  14.1934854
  59.2655918  77.2659766  14.4394128  58.9720646  75.9021374  15.0273439
  50.7256339  66.2471846  16.6925181  50.0784254  66.9461796  16.5989657
  51.4957354  66.6807990  17.0601429  54.1335137  76.5120698  19.7675734
  53.9820643  76.2831250  18.8505818  54.1239816  77.4691299  19.7807079
  50.9020473  74.0852611  14.7522001  51.8312533  74.2363770  14.5790968
  50.4811503  74.1736632  13.8970647  49.7008805  78.1103275  12.5220538
  49.5619891  77.7422060  13.3946476  48.9123401  78.6250915  12.3504496
  51.2514020  77.4884878   9.9109376  50.9163853  77.4485648  10.8067026
  50.7517966  76.8229594   9.4379786  45.2258264  72.8952508  15.4361957
  45.0878062  72.1632747  16.0373496  46.1363188  72.8061408  15.1546145
  47.8540565  72.6072467  14.9245637  48.5640183  71.9665659  14.8832255
  47.8109873  72.8585362  15.8471818  55.8427343  79.5439821  17.8452216
  55.7839890  78.8599041  17.1782799  56.2446862  80.2858811  17.3932842
  46.5669499  69.5937685  16.7441276  46.0306856  69.1428424  17.3962873
  45.9786207  69.7283594  16.0011741  44.8618042  86.3601734  10.6385935
  45.1014640  86.9920259  11.3164953  44.0187239  86.0089774  10.9251294
  45.9771758  69.0526337  -0.6932260  45.1001224  68.9315137  -1.0570013
  46.4529511  68.2612415  -0.9453371  55.8444751  77.5079405  16.0766196
  54.9571529  77.1705326  16.1992595  56.4143302  76.7762436  16.3134961
  37.4973898  73.8403496   9.4009247  38.1844938  73.5265226   8.8130262
  37.3422027  74.7444861   9.1276499  42.3008620  68.7293693  13.8294271
  42.2166809  68.1219362  13.0944681  41.4791326  69.2202711  13.8303767
  49.3745904  82.1680857  13.0427439  49.3016076  82.9735828  13.5546743
  48.9323297  82.3672823  12.2175460  52.4732334  67.2147256   9.1964466
  52.9701033  66.4617219   8.8765536  51.7019315  67.2511573   8.6307675
  60.3262091  72.9187622  10.8382757  60.3151967  73.8012337  10.4676690
  59.4579471  72.5659173  10.6437294  51.8344588  82.0667691  15.1985598
  52.5472560  82.7015156  15.1261499  51.3434616  82.1631557  14.3825599
  53.5562115  75.9718944   6.7702889  52.6218393  76.0920406   6.6007594
  53.7338783  75.0691410   6.5062899  49.0567303  69.3564639   8.9236150
  48.6865090  68.8035680   9.6117056  49.5526395  68.7522773   8.3711150
  56.9434666  71.8136263   7.3052923  57.4095118  72.6464254   7.2313226
  57.3942166  71.3481244   8.0098182  46.8856501  79.8162134  16.0191168
  47.5865961  80.4498617  16.1720563  46.4151616  80.1576866  15.2586808
  54.9151329  64.1816850  11.3443825  54.0014408  64.4121077  11.5126032
  55.3444430  64.2655294  12.1957857  54.6857787  72.3706742  13.8443719
  54.0329237  72.6182649  13.1896172  55.0638167  71.5570880  13.5106196
  50.7345360  73.1126553  20.3309756  50.0585997  73.0120682  21.0012131
  51.5572994  72.9565767  20.7945753  42.4824219  79.3498489  12.9522271
  43.0677656  78.6042177  13.0850175  42.2849058  79.6602446  13.8358935
  45.3362874  82.3849737   7.9684713  44.6673250  82.8695864   7.4848754
  45.1975744  82.6318957   8.8828092  37.0741874  71.9204090  11.6726714
  37.1125973  71.3867680  12.4663832  36.5682167  71.3939295  11.0537691
  49.4768143  84.4193480  14.5667372  50.0286451  84.5825102  15.3316457
  49.8174336  85.0097918  13.8947397  44.4532636  66.7668630  15.1689257
  44.5173963  67.6283461  14.7566654  44.3899756  66.1542632  14.4361615
  43.9284909  68.8391763  18.8162291  44.5556948  68.4568840  19.4299815
  43.0712828  68.6205965  19.1817983  54.3279017  79.2454738  20.4216026
  54.8718921  79.8584696  19.9270981  53.7465862  79.8034316  20.9383039
  40.7050452  70.6468192   4.7480646  41.0003893  69.7378870   4.6947699
  39.8038487  70.6255931   4.4261648  52.6136530  82.3675456  11.5531054
  52.4887670  81.5665196  11.0441999  53.2715621  82.8621649  11.0645024
  44.2344699  68.7224188  10.7308194  43.5131284  69.3360156  10.5915668
  45.0237954  69.2581953  10.6524840  54.6771439  80.1684476  13.1810604
  53.7301774  80.0489827  13.1088931  55.0254212  79.2806974  13.2636866
  47.0371012  66.0578615  17.0048846  47.5605414  66.3040911  17.7675155
  46.8183345  66.8898650  16.5851983  42.4338293  68.3282289   4.8719971
  42.1050999  67.4479668   4.6895077  42.7877664  68.2729958   5.7596360
  51.6817872  79.9637192   9.3814956  51.5342834  79.0353900   9.5622526
  52.5071365  79.9857283   8.8972032  45.5480116  68.6155259   5.2395448
  45.8876189  69.1441181   4.5174057  45.9952237  68.9535665   6.0154015
  55.2851994  80.7865751  10.4679829  56.2098541  80.5808612  10.3304280
  55.1167297  80.5382152  11.3769171  48.2423557  66.9992310  14.6898517
  47.9020377  66.2000123  15.0919196  47.5362563  67.2994021  14.1175350
  48.8940029  64.0841622  13.1425840  49.7166098  63.6102101  13.0204730
  49.1378092  64.8632106  13.6424526  47.5348263  67.1129881   3.4388741
  48.2556626  67.4911134   2.9352458  46.9113568  67.8318758   3.5423719
  51.6779386  67.8175030   4.3747074  51.8943001  68.6999668   4.0735902
  51.1973453  67.4261243   3.6452716  46.4178608  70.7760743  10.9517818
  46.2723188  71.0901046  11.8442100  45.9403811  71.3945643  10.3988717
  48.2774991  67.7663291  10.9998708  48.2636559  66.8704384  10.6631006
  48.9947419  67.7733955  11.6336994  50.1301121  68.2000631  13.0451835
  49.8718899  69.1217702  13.0436166  49.5986162  67.8031066  13.7352299
  40.8924270  73.3166087  13.8905479  40.3477738  74.0925895  14.0225754
  41.7703620  73.6636892  13.7324601  47.6811886  66.6477671   6.2686278
  47.8027798  65.7194317   6.4677165  47.3913929  66.6616357   5.3564593
  50.5503077  64.3332582   9.4052998  50.5724774  64.3971915   8.4504977
  50.9671136  63.4937090   9.5993504  60.9286701  74.0687841   7.4432220
  61.3717847  73.3195166   7.0451344  60.0513211  74.0597978   7.0605952
  41.6790292  72.4435984  16.7835636  40.9372028  72.5918619  17.3700267
  41.3583036  72.7044249  15.9202386  49.6233954  81.9851962  16.5816026
  49.9321081  81.7401109  17.4538726  50.4209436  82.1898600  16.0934896
  49.6454566  84.1389872   8.8121403  49.2059557  83.6466250   9.5054259
  50.3962683  83.5962839   8.5713478  42.1246905  80.3301412   8.8146031
  42.9504925  80.0305184   8.4344674  41.7740957  79.5609035   9.2635819
  47.0928439  79.6827881  10.8843704  46.4708448  79.0198586  10.5845932
  47.7633305  79.7089013  10.2017352  40.3255510  78.2487739   9.7734964
  39.4887419  77.8209913   9.5918966  40.2979156  78.4420182  10.7105756
  47.1652966  68.1609669  20.4776210  47.2141122  69.0371791  20.0953980
  47.7075480  67.6187062  19.9047854  57.6507812  78.7050792  19.7577348
  56.8603355  78.6874931  19.2181847  57.4141166  79.2439086  20.5126384
  57.7705687  75.5543258  17.0710076  57.8203692  75.3893266  18.0125599
  57.6619610  74.6870517  16.6807957  49.3952254  68.9141041  17.2322569
  48.5255564  69.2074607  16.9605158  49.6311735  69.4981486  17.9529833
  59.2723884  77.9740200  17.3152098  58.9808692  78.3370180  18.1515559
  58.6596015  77.2607208  17.1365430  60.4719566  75.5393080   9.8354668
  61.3066457  75.9782884   9.9992228  60.6078695  75.0631733   9.0162914
  57.5211072  73.0972814  15.7832156  57.9965193  73.2900461  14.9751007
  56.5976637  73.1532000  15.5375539  44.4094578  74.2596982   5.3663234
  44.1640620  73.3559312   5.5643444  44.5790493  74.2614132   4.4242712
  52.0991288  65.1320658  14.7487989  52.6173232  65.8681685  14.4234478
  51.7446421  65.4384651  15.5834749  43.6790226  69.9925339   2.8649395
  42.9859471  70.0669694   2.2089431  43.4341978  69.2285683   3.3870912
  52.3503882  61.5520941  10.2688886  52.6305636  60.8844130  10.8949313
  53.1354489  61.7450036   9.7563550  56.2212741  69.9738575  14.0160461
  57.1730164  70.0736672  14.0372685  56.0516191  69.1816843  14.5258546
  54.2427120  67.0594158  14.2019862  53.6477052  67.3399170  13.5066351
  53.9576817  67.5488059  14.9736603  58.7000819  73.1944694  13.1302761
  58.6677139  72.2560695  13.3162445  59.3101442  73.2728731  12.3968586
  58.8495307  69.9855738  13.1761044  58.3334356  69.2014194  12.9890973
  59.7335256  69.6574454  13.3407564  56.5106034  63.7296753   9.1356857
  56.3130855  63.4211841  10.0200189  57.1205740  64.4558392   9.2654787
  64.5177368  74.2560701  12.2708798  65.2480757  73.9945989  12.8316501
  63.9084314  73.5189423  12.3110866  62.5992666  72.3968564  12.8683249
  61.8725829  72.2624529  12.2599740  62.1839952  72.7045392  13.6739967
  50.4222842  76.1158493  20.6330622  51.3425851  76.2937092  20.8270668
  50.3872425  75.1714539  20.4810321  39.6405007  71.3097087   9.5583897
  39.3207791  70.4562395   9.2658271  39.0938435  71.5245665  10.3141864
  43.4184915  74.0259528  13.2753403  43.6370924  74.9576636  13.2941437
  43.8310688  73.6667502  14.0608207  50.3389132  64.5327613   5.2629091
  49.5289861  64.1874698   5.6384337  51.0273549  64.2235157   5.8516703
  52.2679681  63.6105660   6.8853388  52.8210719  64.0301114   7.5443411
  52.5049767  62.6841408   6.9276344  48.2912780  69.5992734  22.6656152
  48.1909507  70.5487091  22.5968243  48.0734322  69.2710973  21.7932222
  47.4925851  66.8477659  -0.7503171  48.3545015  67.1732557  -0.4907353
  47.6776195  66.0609155  -1.2630105  39.5093267  74.9299998  11.5277018
  38.8156738  74.5153951  11.0146973  40.2566258  74.9720535  10.9310437
  55.6458488  65.7206185   6.3932052  55.0657157  66.3790989   6.0110105
  55.3794420  64.8983530   5.9819470  54.0962054  65.1211243   8.5953373
  54.5961832  65.2327777   7.7867691  54.7397662  64.8172296   9.2354181
  48.1544050  73.0289873  21.4821214  47.6711132  73.8290233  21.6885103
  48.2404989  73.0397817  20.5288658  41.4230010  74.8618252   9.4043033
  41.4000698  74.9605940   8.4524916  41.7330646  75.7083403   9.7260199
  44.0817387  76.9194407  13.5189647  45.0360641  76.8878350  13.4519579
  43.8829911  76.4585031  14.3339873  44.6716770  75.4895523  16.0860445
  45.4909659  75.9839602  16.1095282  44.9453577  74.5727491  16.0578013
  54.4283366  67.8806276   5.4488401  53.5409221  68.1655926   5.2308595
  54.8437355  67.7200039   4.6015677  57.7797902  67.9052797   9.1642740
  58.5558292  68.3949249   9.4367357  57.0546036  68.3310851   9.6214609
  60.2170461  68.6180416  10.2216680  60.8114951  68.3776152   9.5109989
  60.2897044  67.8987546  10.8490217  42.4367616  82.4614027  10.5359845
  42.3022084  81.7014428   9.9697843  42.0199678  83.1854927  10.0688634
  54.4024389  73.3960812   5.6638691  54.3459591  73.8529363   4.8246323
  54.9552732  72.6351496   5.4861533  58.2129195  69.1850543   6.4888810
  57.9566130  68.7847179   7.3197018  57.5882063  69.8994337   6.3638949
  62.5241533  71.9246617   8.9960102  61.9641091  71.9939806   9.7691664
  61.9185037  71.7487601   8.2759598  45.5936742  83.3583344  10.7478288
  45.4769126  84.3028776  10.6456978  44.7729188  83.0556905  11.1364087
  39.9251684  69.8233657  16.7852642  40.5710547  69.3132611  17.2739867
  39.7168835  70.5602339  17.3596067  52.4505076  76.8914505  22.2844783
  53.3196236  77.0655157  21.9231418  51.9711827  77.7108922  22.1620512
  48.4455294  64.0873702   2.5376538  48.4333964  65.0315542   2.6944809
  49.3378716  63.9043847   2.2436000  46.6191256  84.0111606  13.9634216
  47.5218503  84.0435216  14.2800711  46.3928626  83.0812057  13.9780552
  48.3744858  82.7642592  10.6244295  47.4240489  82.7644454  10.5108667
  48.6777344  82.0175327  10.1080330  52.2607414  60.6816478   6.7922475
  51.4939810  60.1274965   6.9379157  52.6718119  60.7538347   7.6536627
  44.2649175  66.9701274  20.8827656  45.1280636  66.6138079  21.0930981
  43.6914585  66.6315169  21.5703061  61.4007041  89.7065410  17.5837788
  61.3895682  89.3118209  16.7118291  61.5627680  88.9731483  18.1771559
  66.5872668  79.9751392  14.1270852  66.2555992  80.8446803  13.9032067
  65.9918281  79.6587676  14.8064883  60.5542197  86.1136124  19.1499100
  59.7775531  86.6730044  19.1401964  61.1932760  86.5992907  19.6713970
  58.8088569  88.9221577  18.7117067  59.5503253  89.4606621  18.4351890
  58.1025555  89.5487866  18.8688619  60.6374979  86.0023324  14.6822785
  61.4836174  86.4262738  14.8257434  60.5773616  85.3456948  15.3761348
  63.7874424  83.6627693  16.3403959  63.5435356  84.4169753  15.8038235
  64.0634355  84.0413040  17.1751206  57.5449933  86.0761225  19.5132377
  56.9148593  86.7577506  19.7467774  57.4386021  85.9644307  18.5685515
  51.1232608  85.9963512  12.8713292  51.3740647  86.8810521  13.1370868
  51.6592157  85.8168113  12.0988384  56.8230676  80.3781991  21.8757628
  56.4297621  79.8248189  22.5505272  57.6396816  80.6892569  22.2664145
  59.7398637  81.7939870  19.4677884  60.4808350  82.3947023  19.3882347
  59.9716559  81.0517508  18.9095927  54.8839975  86.9796237  17.7456114
  54.7693490  86.0781495  18.0463213  54.0284492  87.2259934  17.3940931
  60.5186105  92.7160907  18.2148524  61.0514441  91.9549195  17.9847832
  59.9900186  92.4234559  18.9572679  63.6855800  77.8220973  13.7442166
  63.3420069  78.7122615  13.6681277  64.0534762  77.6322631  12.8811751
  59.0095226  80.2764358  10.7157581  59.8748223  80.0807167  10.3563471
  59.0772735  80.0474710  11.6426938  57.1870980  83.5663740  12.7287709
  57.8270359  83.4252500  12.0310672  56.3548510  83.2798254  12.3526311
  55.6624521  84.9501823  14.6759520  56.3347575  84.7419185  14.0272169
  54.8354308  84.7523909  14.2364752  61.5650093  81.5763764  16.6925181
  60.9178008  82.2753713  16.5989657  62.3351109  82.0099907  17.0601429
  64.9728891  91.8412616  19.7675734  64.8214398  91.6123167  18.8505818
  64.9633571  92.7983217  19.7807079  56.0652019  88.2244426  15.4361957
  55.9271817  87.4924664  16.0373496  56.9756942  88.1353326  15.1546145
  58.6934319  87.9364385  14.9245637  59.4033938  87.2957577  14.8832255
  58.6503627  88.1877280  15.8471818  57.4063253  84.9229603  16.7441276
  56.8700610  84.4720341  17.3962873  56.8179962  85.0575512  16.0011741
  53.1402374  84.0585611  13.8294271  53.0560563  83.4511280  13.0944681
  52.3185081  84.5494629  13.8303767  61.5739115  88.4418471  20.3309756
  60.8979752  88.3412600  21.0012131  62.3966749  88.2857684  20.7945753
  47.9135628  87.2496007  11.6726714  47.9519728  86.7159598  12.4663832
  47.4075921  86.7231213  11.0537691  55.2926391  82.0960548  15.1689257
  55.3567717  82.9575379  14.7566654  55.2293511  81.4834549  14.4361615
  54.7678663  84.1683680  18.8162291  55.3950702  83.7860758  19.4299815
  53.9106582  83.9497882  19.1817983  57.8764767  81.3870533  17.0048846
  58.3999168  81.6332829  17.7675155  57.6577100  82.2190567  16.5851983
  59.0817312  82.3284228  14.6898517  58.7414132  81.5292041  15.0919196
  58.3756318  82.6285938  14.1175350  59.7333783  79.4133540  13.1425840
  60.5559853  78.9394018  13.0204730  59.9771847  80.1924024  13.6424526
  60.9694876  83.5292549  13.0451835  60.7112654  84.4509620  13.0436166
  60.4379916  83.1322983  13.7352299  51.7318024  88.6458005  13.8905479
  51.1871492  89.4217813  14.0225754  52.6097374  88.9928810  13.7324601
  52.5184046  87.7727901  16.7835636  51.7765782  87.9210537  17.3700267
  52.1976790  88.0336167  15.9202386  58.0046721  83.4901586  20.4776210
  58.0534876  84.3663709  20.0953980  58.5469235  82.9478979  19.9047854
  65.9003204  86.8666104  18.3869383  66.8013066  86.7272569  18.0953381
  65.9751178  87.0320559  19.3267560  60.2346009  84.2432959  17.2322569
  59.3649318  84.5366525  16.9605158  60.4705489  84.8273404  17.9529833
  62.9385043  80.4612576  14.7487989  63.4566987  81.1973603  14.4234478
  62.5840176  80.7676569  15.5834749  61.2616597  91.4450411  20.6330622
  62.1819606  91.6229010  20.8270668  61.2266180  90.5006456  20.4810321
  58.9937804  88.3581790  21.4821214  58.5104886  89.1582150  21.6885103
  59.0798743  88.3689735  20.5288658  55.5110524  90.8187441  16.0860445
  56.3303413  91.3131520  16.1095282  55.7847332  89.9019409  16.0578013
  50.7645438  85.1525575  16.7852642  51.4104302  84.6424529  17.2739867
  50.5562589  85.8894257  17.3596067  63.2898830  92.2206422  22.2844783
  64.1589990  92.3947075  21.9231418  62.8105582  93.0400839  22.1620512
  55.1042929  82.2993192  20.8827656  55.9674391  81.9429997  21.0930981
  54.5308340  81.9607087  21.5703061  39.7219533  36.0543698   4.3083094
  39.7108174  35.6596496   3.4363598  39.8840173  35.3209770   4.9016866
  36.4426794  38.8380810   3.2562278  36.1516660  39.7426440   3.1408945
  37.0783779  38.8797337   3.9706348  41.4016679  38.5242225   0.2512072
  41.1017403  39.4267264   0.1427879  41.0567739  38.2574408   1.1033225
  38.8754689  32.4614411   5.8744406  38.0988023  33.0208331   5.8647271
  39.5145252  32.9471194   6.3959277  37.1301061  35.2699864   5.4362373
  37.8715746  35.8084908   5.1597197  36.4238047  35.8966153   5.5933925
  42.6056401  37.4129005   4.0334535  43.0139757  36.9711415   3.2889167
  41.8833663  36.8381632   4.2868728  44.0625379  36.5544592   1.7426531
  44.2742274  37.1976352   1.0660912  44.0155127  35.7206909   1.2748461
  45.1771207  39.4316548  -0.0851112  45.9988651  39.0296735  -0.3668430
  45.1733610  39.3284782   0.8665004  38.9427811  38.9800591   2.0709599
  39.0072243  39.4420998   2.9067771  38.2338734  38.3497956   2.1991909
  40.2844305  41.2692265   6.0688921  39.8408159  40.4828643   5.7509826
  40.9461518  41.4571415   5.4032812  35.0431426  42.7988066   0.5949600
  35.5938851  42.6705130  -0.1773406  34.2042902  43.0982955   0.2444493
  42.3825543  41.5495065   4.0970323  42.3644018  42.3703946   3.6050592
  43.3045463  41.4249140   4.3220464  38.8398597  39.0639194   4.9393831
  39.3726934  38.3027482   4.7093139  38.3112678  38.7712846   5.6817986
  47.3710725  37.9960460  -1.6152725  47.8047232  37.9035749  -0.7669671
  48.0842306  37.9717960  -2.2532709  41.1038620  41.5962554  -0.0819625
  41.1575643  42.1653490   0.6858091  40.2353402  41.7664439  -0.4465587
  48.2326275  38.0384160   0.9180160  48.4262165  38.9429971   1.1639435
  48.1326893  37.5791579   1.7518745  43.2941384  38.1890903   6.4921041
  43.1426890  37.9601455   5.5751125  43.2846063  39.1461504   6.5052386
  45.0033590  41.2210026   4.5697523  44.9446136  40.5369246   3.9028106
  45.4053109  41.9629016   4.1178149  45.0050997  39.1849609   2.8011502
  44.1177776  38.8475531   2.9237901  45.5749549  38.4532641   3.0380268
  38.5352151  43.8451062  -0.2327254  38.4622322  44.6506033   0.2792050
  38.0929544  44.0443028  -1.0579233  40.9950834  43.7437896   1.9230904
  41.7078807  44.3785361   1.8506806  40.5040863  43.8401762   1.1070906
  36.0462748  41.4932339   2.7436475  36.7472207  42.1268822   2.8965869
  35.5757863  41.8347071   1.9832114  39.8951607  34.7896758   7.0555062
  39.2192244  34.6890887   7.7257438  40.7179241  34.6335972   7.5191060
  38.6374390  46.0963685   1.2912678  39.1892698  46.2595307   2.0561764
  38.9780583  46.6868123   0.6192703  43.4885264  40.9224943   7.1461333
  44.0325168  41.5354901   6.6516288  42.9072109  41.4804521   7.6628346
  41.7742777  44.0445661  -1.7223639  41.6493917  43.2435401  -2.2312694
  42.4321868  44.5391854  -2.2109669  43.8377685  41.8454681  -0.0944089
  42.8908021  41.7260032  -0.1665763  44.1860459  40.9577179  -0.0117828
  44.4458241  42.4635956  -2.8074864  45.3704788  42.2578817  -2.9450413
  44.2773544  42.2152357  -1.8985523  38.7840201  43.6622167   3.3061333
  39.0927328  43.4171314   4.1784032  39.5815683  43.8668805   2.8180203
  46.8114058  40.3820997   6.4822654  46.0209602  40.3645136   5.9427154
  46.5747413  40.9209291   7.2371691  46.9311934  37.2313463   3.7955383
  46.9809938  37.0663471   4.7370905  46.8225857  36.3640722   3.4053263
  44.2215696  33.2144391   5.1114689  45.1225559  33.0750856   4.8198687
  44.2963670  33.3798846   6.0512867  48.4330130  39.6510405   4.0397404
  48.1414939  40.0140385   4.8760865  47.8202262  38.9377413   3.8610736
  46.6817319  34.7743019   2.5077462  47.1571440  34.9670666   1.6996314
  45.7582884  34.8302205   2.2620846  47.8607065  34.8714899  -0.1451933
  47.8283385  33.9330900   0.0407751  48.4707689  34.9498936  -0.8786108
  53.6783615  35.9330906  -1.0045896  54.4087004  35.6716194  -0.4438192
  53.0690561  35.1959628  -0.9643828  51.7598912  34.0738769  -0.4071445
  51.0332076  33.9394734  -1.0154953  51.3446199  34.3815597   0.3985274
  39.5829089  37.7928698   7.3575928  40.5032098  37.9707297   7.5515975
  39.5478672  36.8484744   7.2055628  37.4519027  31.2762939   9.3901459
  37.3515754  32.2257296   9.3213550  37.2340569  30.9481178   8.5177529
  37.3150297  34.7060078   8.2066520  36.8317378  35.5060438   8.4130409
  37.4011236  34.7168022   7.2533964  41.6111323  38.5684710   9.0090089
  42.4802482  38.7425362   8.6476724  41.1318074  39.3879126   8.8865819
  35.7797503  45.6881811   0.6879523  36.6824750  45.7205421   1.0046018
  35.5534873  44.7582262   0.7025859  53.2703798  50.2773336  -1.5864636
  53.9082208  50.1580083  -2.2901296  53.1524641  51.2254180  -1.5276684
  50.0793505  50.2300764  -1.6503111  49.7412016  50.1141828  -2.5382576
  50.9483273  49.8291929  -1.6702105  45.9380320  52.0836240  -5.6606220
  45.3745186  51.9926177  -6.4289933  45.8232716  51.2636145  -5.1803728
  50.5613288  51.3835615   4.3083094  50.5501929  50.9888414   3.4363598
  50.7233927  50.6501688   4.9016866  43.4844752  53.5787432  -2.8222000
  44.2766044  53.2378256  -3.2375701  43.7241403  53.6882407  -1.9019847
  45.4435506  52.8396345  -9.9504621  46.2166382  52.2925332 -10.0891745
  45.7960905  53.7040594  -9.7390160  47.2820549  54.1672727   3.2562278
  46.9910415  55.0718358   3.1408945  47.9177533  54.2089255   3.9706348
  48.2076756  51.5449576  -0.1536362  48.8040328  51.3205598  -0.8679399
  48.2651727  50.8034321   0.4489086  52.8245067  48.0024789  -4.5111428
  53.6108156  47.5844213  -4.8621011  53.0883771  48.9070882  -4.3429780
  58.2253494  47.9400023  -3.6078449  58.9578666  47.3699239  -3.3740620
  57.4692850  47.5521623  -3.1671944  49.8429614  50.3627264  -6.4115107
  49.4787821  49.8357885  -5.7002186  50.6996730  49.9725733  -6.5848622
  55.7478914  41.6521597   0.8516159  55.4162239  42.5217008   0.6277374
  55.1524528  41.3357881   1.5310190  52.2410434  53.8534143   0.2512072
  51.9411157  54.7559182   0.1427879  51.8961493  53.5866326   1.1033225
  45.6922915  50.3047940  -3.7151224  44.7673412  50.1724154  -3.5073532
  45.9407329  51.0842159  -3.2181281  55.6407578  46.3716683  -2.0690491
  54.7324455  46.3032091  -2.3631730  55.5895174  46.8488628  -1.2408665
  43.0531726  49.9481213  -2.8807435  43.1824108  50.2015692  -1.9668023
  42.3729178  50.5408921  -3.2002780  49.7148444  47.7906328   5.8744406
  48.9381778  48.3500249   5.8647271  50.3539007  48.2763111   6.3959277
  57.5069224  44.5733121  -0.2912617  56.8643604  44.8665654  -0.9372822
  57.0024153  44.4586042   0.5140580  47.9694816  50.5991782   5.4362373
  48.7109500  51.1376826   5.1597197  47.2631801  51.2258071   5.5933925
  53.4450155  52.7420922   4.0334535  53.8533512  52.3003333   3.2889167
  52.7227417  52.1673550   4.2868728  49.7981226  47.6793529   1.4068092
  50.6442421  48.1032943   1.5502741  49.7379863  47.0227153   2.1006655
  53.7678970  53.3022113  -2.2113176  53.1387833  53.4667827  -2.9137108
  53.3804632  53.7163722  -1.4402212  57.6468202  54.2376551  -4.8568812
  56.9619240  54.6175452  -5.4071779  57.7312051  54.8471877  -4.1236865
  52.9480671  45.3397897   3.0649266  52.7041603  46.0939958   2.5283541
  53.2240601  45.7183245   3.8996513  54.9019134  51.8836510   1.7426531
  55.1136029  52.5268270   1.0660912  54.8548882  51.0498826   1.2748461
  52.5045363  44.4954330  -1.3536897  51.6429842  44.7935584  -1.0620159
  52.5307797  44.7124729  -2.2855864  49.3206932  53.0396521  -4.9463091
  49.7845278  53.3184224  -5.7358469  49.0563730  52.1379966  -5.1290000
  46.2131013  52.5868003  -2.0083328  46.7832370  53.0155271  -2.6465843
  46.8039125  52.3050587  -1.3099142  48.2575818  49.1619673  -8.1373526
  48.9599861  49.6140717  -7.6699600  47.9256447  48.5203492  -7.5093633
  46.7056180  47.7531430   6.2377683  46.0754840  48.4347711   6.4713080
  46.5992267  47.6414512   5.2930822  42.0001152  47.4203226  -2.8356392
  41.2100206  47.6760755  -3.3116282  42.4912399  48.2351564  -2.7304352
  56.0164962  54.7608465  -0.0851112  56.8382405  54.3588652  -0.3668430
  56.0127364  54.6576699   0.8665004  43.9515897  47.7847805  -5.8772916
  43.1547061  47.8966500  -5.3589420  43.7241490  48.1234458  -6.7432025
  49.7821565  54.3092509   2.0709599  49.8465998  54.7712916   2.9067771
  49.0732489  53.6789873   2.1991909  40.2838855  47.6733716  -0.4041402
  40.5346893  48.5580726  -0.1383826  40.8198403  47.4938318  -1.1766310
  64.1070955  51.1047214  -3.7366140  63.3534663  50.5354612  -3.8922136
  64.2418496  51.0709878  -2.7895505  45.9836922  42.0552196   8.6002935
  45.5903868  41.5018394   9.2750579  46.8003063  42.3662774   8.9909452
  42.9498980  53.4936054  -7.4883496  43.4623501  54.2879304  -7.3377931
  43.6021693  52.7962344  -7.5549894  44.7593865  56.6101810  -5.4060742
  44.9360493  57.5319775  -5.5939759  45.5550698  56.2960230  -4.9766363
  48.9004883  43.4710075   6.1923191  49.6414597  44.0717228   6.1127654
  49.1322806  42.7287713   5.6341234  44.0446221  48.6566442   4.4701421
  43.9299736  47.7551699   4.7708520  43.1890739  48.9030139   4.1186237
  51.1238059  56.5984183   6.0688921  50.6801913  55.8120561   5.7509826
  51.7855273  56.7863333   5.4032812  45.8825180  58.1279984   0.5949600
  46.4332605  57.9997047  -0.1773406  45.0436656  58.4274873   0.2444493
  53.2219297  56.8786982   4.0970323  53.2037772  57.6995863   3.6050592
  54.1439217  56.7541058   4.3220464  49.6792351  54.3931112   4.9393831
  50.2120688  53.6319400   4.7093139  49.1506432  54.1004764   5.6817986
  52.8462046  39.4991178   0.4687473  52.5026316  40.3892820   0.3926583
  53.2141009  39.3092836  -0.3942942  40.9147897  51.8224708  -6.7123925
  41.7523119  52.2321717  -6.9290217  41.0926165  50.8824151  -6.7423731
  50.3959440  44.3349490  -5.9654854  49.5401036  43.9456340  -6.1449215
  50.8086392  44.4141451  -6.8255068  51.9258587  41.8695833  -1.5663294
  51.4223382  41.8325968  -2.3795489  52.2189194  42.7788576  -1.5066637
  48.1701473  41.9534563  -2.5597112  49.0354469  41.7577371  -2.9191223
  48.2378981  41.7244915  -1.6327755  52.5998632  47.3626881  -9.1980311
  52.2948768  47.6773030  -8.3470168  53.5529074  47.4408301  -9.1552978
  51.0445064  53.5217104  -7.5487357  50.5166426  52.7869864  -7.8614120
  50.5432567  54.2991781  -7.7947389  56.0237910  51.7166125  -2.4320311
  55.3661584  52.4065386  -2.3440182  56.8278309  52.1062557  -2.0886324
  54.8343369  50.0710498  -4.3816369  55.3475251  50.7040489  -3.8794659
  55.4844593  49.4711693  -4.7473009  51.3124200  47.5459953  -2.1358028
  50.3946761  47.7674900  -2.2936340  51.7284343  47.6206264  -2.9946321
  52.0959247  48.9451369  -7.0055348  52.8431066  49.4572766  -7.3148226
  52.3650837  48.6235422  -6.1450955  54.5438085  45.9808485  -5.0236559
  53.8060841  45.4685871  -4.6926316  54.7964858  45.5408867  -5.8353282
  54.6449712  38.7584737  -4.4294790  54.9508589  37.8982100  -4.7168874
  55.3702317  39.3502357  -4.6295796  48.9170792  49.0538530  -3.9218598
  48.9719401  48.1012367  -3.9976122  48.1061994  49.2097969  -3.4377300
  46.8563152  47.6715590  -6.1628220  46.0431017  47.9709760  -5.7563027
  47.3522146  47.2771279  -5.4453737  49.0071729  57.6673347  -4.2293955
  48.9647908  57.8934193  -5.1585423  49.9234428  57.4336721  -4.0808154
  52.4537363  48.1357414   2.6686674  52.8086751  48.3628887   3.5281140
  53.1009494  48.4675791   2.0463930  46.3477226  45.2433945  -0.5466985
  46.9876606  45.1022704  -1.2444021  45.5154757  44.9568459  -0.9228383
  58.2104480  53.3252377  -1.6152725  58.6440986  53.2327666  -0.7669671
  58.9236061  53.3009878  -2.2532709  47.1237530  54.5436376  -4.4331992
  47.9178129  54.0486696  -4.6349417  46.4129223  54.0154239  -4.7964287
  51.9432375  56.9254471  -0.0819625  51.9969397  57.4945408   0.6858091
  51.0747156  57.0956356  -0.4465587  44.8230768  46.6272028   1.4004827
  45.4953822  46.4189390   0.7517476  43.9960555  46.4294114   0.9610059
  59.0720029  53.3676078   0.9180160  59.2655919  54.2721888   1.1639435
  58.9720648  52.9083497   1.7518745  50.7256340  43.2533968   3.4170488
  50.0784255  43.9523918   3.3234964  51.4957356  43.6870112   3.7846736
  54.1335138  53.5182821   6.4921041  53.9820644  53.2893372   5.5751125
  54.1239818  54.4753422   6.5052386  50.9020474  51.0914733   1.4767307
  51.8312534  51.2425893   1.3036275  50.4811504  51.1798754   0.6215954
  49.7008806  55.1165398  -0.7534155  49.5619892  54.7484182   0.1191783
  48.9123402  55.6313037  -0.9250197  51.2514021  54.4947000  -3.3645317
  50.9163854  54.4547770  -2.4687667  50.7517967  53.8291716  -3.8374907
  45.2258265  49.9014631   2.1607264  45.0878063  49.1694869   2.7618803
  46.1363189  49.8123531   1.8791452  47.8540566  49.6134590   1.6490943
  48.5640185  48.9727782   1.6077562  47.8109874  49.8647485   2.5717124
  55.8427345  56.5501943   4.5697523  55.7839891  55.8661163   3.9028106
  56.2446863  57.2920933   4.1178149  46.5669500  46.5999808   3.4686583
  46.0306857  46.1490546   4.1208179  45.9786208  46.7345717   2.7257047
  44.8618043  63.3663857  -2.6368758  45.1014642  63.9982381  -1.9589740
  44.0187240  63.0151897  -2.3503399  55.8444752  54.5141527   2.8011502
  54.9571531  54.1767449   2.9237901  56.4143303  53.7824558   3.0380268
  37.4973899  50.8465619  -3.8745446  38.1844939  50.5327349  -4.4624431
  37.3422028  51.7506984  -4.1478195  42.3008621  45.7355815   0.5539577
  42.2166810  45.1281485  -0.1810013  41.4791328  46.2264834   0.5549074
  49.3745905  59.1742979  -0.2327254  49.3016077  59.9797951   0.2792050
  48.9323298  59.3734945  -1.0579233  52.4732335  44.2209379  -4.0790227
  52.9701035  43.4679341  -4.3989157  51.7019317  44.2573696  -4.6447018
  60.3262092  49.9249744  -2.4371936  60.3151969  50.8074460  -2.8078003
  59.4579472  49.5721295  -2.6317399  51.8344589  59.0729814   1.9230904
  52.5472561  59.7077278   1.8506806  51.3434618  59.1693680   1.1070906
  53.5562116  52.9781066  -6.5051804  52.6218395  53.0982529  -6.6747100
  53.7338784  52.0753533  -6.7691794  49.0567304  46.3626762  -4.3518543
  48.6865091  45.8097802  -3.6637637  49.5526396  45.7584895  -4.9043543
  56.9434667  48.8198385  -5.9701770  57.4095119  49.6526377  -6.0441467
  57.3942168  48.3543367  -5.2656511  46.8856502  56.8224257   2.7436475
  47.5865962  57.4560740   2.8965869  46.4151617  57.1638989   1.9832114
  54.9151330  41.1878972  -1.9310869  54.0014410  41.4183199  -1.7628662
  55.3444431  41.2717417  -1.0796836  54.6857788  49.3768864   0.5689025
  54.0329239  49.6244772  -0.0858522  55.0638168  48.5633003   0.2351503
  50.7345361  50.1188675   7.0555062  50.0585998  50.0182805   7.7257438
  51.5572995  49.9627889   7.5191060  42.4824220  56.3560612  -0.3232422
  43.0677657  55.6104300  -0.1904518  42.2849059  56.6664569   0.5604242
  45.3362876  59.3911859  -5.3069980  44.6673251  59.8757987  -5.7905940
  45.1975745  59.6381080  -4.3926601  37.0741875  48.9266212  -1.6027979
  37.1125975  48.3929803  -0.8090861  36.5682168  48.4001418  -2.2217002
  49.4768144  61.4255603   1.2912678  50.0286452  61.5887224   2.0561764
  49.8174338  62.0160041   0.6192703  44.4532638  43.7730753   1.8934563
  44.5173964  44.6345584   1.4811961  44.3899758  43.1604754   1.1606922
  43.9284910  45.8453885   5.5407597  44.5556949  45.4630963   6.1545122
  43.0712829  45.6268087   5.9063290  54.3279019  56.2516860   7.1461333
  54.8718923  56.8646819   6.6516288  53.7465863  56.8096439   7.6628346
  52.6136532  59.3737578  -1.7223639  52.4887671  58.5727318  -2.2312694
  53.2715623  59.8683772  -2.2109669  44.2344700  45.7286311  -2.5446499
  43.5131286  46.3422279  -2.6839026  45.0237956  46.2644076  -2.6229853
  54.6771440  57.1746599  -0.0944089  53.7301775  57.0551950  -0.1665763
  55.0254213  56.2869097  -0.0117828  47.0371013  43.0640737   3.7294153
  47.5605415  43.3103034   4.4920462  46.8183347  43.8960772   3.3097290
  51.6817873  56.9699315  -3.8939737  51.5342836  56.0416022  -3.7132167
  52.5071367  56.9919405  -4.3782662  55.2851995  57.7927873  -2.8074864
  56.2098543  57.5870735  -2.9450413  55.1167298  57.5444275  -1.8985523
  48.2423558  44.0054433   1.4143823  47.9020379  43.2062246   1.8164503
  47.5362565  44.3056143   0.8420656  48.8940030  41.0903745  -0.1328854
  49.7166099  40.6164223  -0.2549963  49.1378094  41.8694229   0.3669832
  46.4178609  47.7822866  -2.3236875  46.2723190  48.0963169  -1.4312594
  45.9403813  48.4007766  -2.8765977  48.2774992  44.7725414  -2.2755986
  48.2636561  43.8766507  -2.6123688  48.9947420  44.7796077  -1.6417700
  50.1301123  45.2062754  -0.2302858  49.8718900  46.1279824  -0.2318528
  49.5986163  44.8093188   0.4597606  40.8924271  50.3228210   0.6150786
  40.3477739  51.0988018   0.7471060  41.7703621  50.6699015   0.4569907
  50.5503078  41.3394704  -3.8701696  50.5724775  41.4034037  -4.8249716
  50.9671137  40.4999213  -3.6761190  60.9286702  51.0749964  -5.8322473
  61.3717848  50.3257289  -6.2303350  60.0513213  51.0660100  -6.2148741
  41.6790293  49.4498106   3.5080943  40.9372029  49.5980742   4.0945573
  41.3583037  49.7106372   2.6447692  49.6233956  58.9914085   3.3061333
  49.9321082  58.7463231   4.1784032  50.4209438  59.1960723   2.8180203
  49.6454568  61.1451994  -4.4633291  49.2059558  60.6528373  -3.7700434
  50.3962685  60.6024962  -4.7041215  42.1246907  57.3363535  -4.4608663
  42.9504927  57.0367307  -4.8410019  41.7740959  56.5671157  -4.0118874
  47.0928440  56.6890003  -2.3910989  46.4708449  56.0260708  -2.6908761
  47.7633307  56.7151135  -3.0737341  40.3255512  55.2549861  -3.5019729
  39.4887420  54.8272036  -3.6835728  40.2979157  55.4482305  -2.5648938
  47.1652967  45.1671791   7.2021517  47.2141123  46.0433914   6.8199287
  47.7075481  44.6249184   6.6293160  57.6507813  55.7112915   6.4822654
  56.8603357  55.6937053   5.9427154  57.4141168  56.2501208   7.2371691
  57.7705688  52.5605381   3.7955383  57.8203693  52.3955388   4.7370905
  57.6619611  51.6932640   3.4053263  55.0609450  48.5436309   5.1114689
  55.9619313  48.4042774   4.8198687  55.1357425  48.7090764   6.0512867
  49.3952256  45.9203164   3.9567876  48.5255565  46.2136730   3.6850464
  49.6311736  46.5043609   4.6775139  59.2723885  54.9802322   4.0397404
  58.9808693  55.3432303   4.8760865  58.6596016  54.2669331   3.8610736
  60.4719567  52.5455202  -3.4400026  61.3066459  52.9845006  -3.2762465
  60.6078696  52.0693855  -4.2591780  57.5211073  50.1034937   2.5077462
  57.9965195  50.2962583   1.6996314  56.5976638  50.1594123   2.2620846
  44.4094580  51.2659104  -7.9091459  44.1640622  50.3621434  -7.7111249
  44.5790494  51.2676255  -8.8511981  52.0991290  42.1382781   1.4733296
  52.6173233  42.8743808   1.1479785  51.7446422  42.4446774   2.3080055
  52.3503884  38.5583063  -3.0065807  52.6305638  37.8906252  -2.3805381
  53.1354491  38.7512159  -3.5191143  56.2212742  46.9800697   0.7405768
  57.1730165  47.0798795   0.7617992  56.0516193  46.1878966   1.2503852
  54.2427122  44.0656280   0.9265169  53.6477054  44.3461293   0.2311657
  53.9576818  44.5550181   1.6981910  58.7000820  50.2006817  -0.1451933
  58.6677140  49.2622818   0.0407751  59.3101444  50.2790854  -0.8786108
  58.8495308  46.9917860  -0.0993649  58.3334357  46.2076317  -0.2863720
  59.7335257  46.6636577   0.0652870  56.5106035  40.7358876  -4.1397837
  56.3130856  40.4273964  -3.2554505  57.1205741  41.4620515  -4.0099907
  64.5177370  51.2622824  -1.0045896  65.2480758  51.0008112  -0.4438192
  63.9084315  50.5251546  -0.9643828  62.5992667  49.4030686  -0.4071445
  61.8725830  49.2686651  -1.0154953  62.1839954  49.7107515   0.3985274
  50.4222843  53.1220616   7.3575928  51.3425853  53.2999215   7.5515975
  50.3872426  52.1776661   7.2055628  39.6405008  48.3159210  -3.7170797
  39.3207793  47.4624518  -4.0096423  39.0938436  48.5307788  -2.9612830
  43.4184916  51.0321651  -0.0001290  43.6370926  51.9638758   0.0186743
  43.8310690  50.6729625   0.7853513  48.2912781  46.6054856   9.3901459
  48.1909508  47.5549213   9.3213550  48.0734323  46.2773095   8.5177529
  39.5093268  51.9362121  -1.7477675  38.8156740  51.5216074  -2.2607721
  40.2566259  51.9782658  -2.3444256  55.6458489  42.7268308  -6.8822641
  55.0657158  43.3853112  -7.2644589  55.3794422  41.9045652  -7.2935224
  54.0962055  42.1273366  -4.6801321  54.5961834  42.2389900  -5.4887002
  54.7397663  41.8234418  -4.0400512  48.1544051  50.0351995   8.2066520
  47.6711133  50.8352355   8.4130409  48.2404990  50.0459940   7.2533964
  41.4230011  51.8680375  -3.8711660  41.4000699  51.9668062  -4.8229777
  41.7330647  52.7145526  -3.5494494  44.0817389  53.9256530   0.2434954
  45.0360642  53.8940472   0.1764886  43.8829912  53.4647154   1.0585180
  44.6716771  52.4957646   2.8105752  45.4909660  52.9901725   2.8340589
  44.9453579  51.5789614   2.7823319  54.4283367  44.8868398  -7.8266293
  53.5409222  45.1718049  -8.0446098  54.8437356  44.7262162  -8.6739016
  57.7797903  44.9114919  -4.1111954  58.5558293  45.4011372  -3.8387337
  57.0546037  45.3372973  -3.6540084  60.2170462  45.6242538  -3.0538013
  60.8114953  45.3838274  -3.7644705  60.2897045  44.9049669  -2.4264477
  42.4367617  59.4676149  -2.7394848  42.3022085  58.7076550  -3.3056850
  42.0199680  60.1917049  -3.2066059  54.4024391  50.4022934  -7.6116003
  54.3459592  50.8591486  -8.4508370  54.9552733  49.6413619  -7.7893160
  58.2129197  46.1912666  -6.7865883  57.9566131  45.7909302  -5.9557675
  57.5882065  46.9056460  -6.9115744  62.5241535  48.9308739  -4.2794592
  61.9641092  49.0001929  -3.5063030  61.9185038  48.7549724  -4.9995095
  45.5936743  60.3645466  -2.5276405  45.4769127  61.3090899  -2.6297715
  44.7729190  60.0619028  -2.1390606  39.9251685  46.8295780   3.5097949
  40.5710549  46.3194734   3.9985174  39.7168836  47.5664461   4.0841374
  52.4505077  53.8976627   9.0090089  53.3196237  54.0717280   8.6476724
  51.9711829  54.7171044   8.8865819  46.6191257  61.0173728   0.6879523
  47.5218504  61.0497339   1.0046018  46.3928628  60.0874179   0.7025859
  48.3744859  59.7704715  -2.6510398  47.4240490  59.7706576  -2.7646026
  48.6777346  59.0237449  -3.1674364  44.2649176  43.9763397   7.6072963
  45.1280638  43.6200202   7.8176288  43.6914587  43.6377292   8.2948367
  61.4007042  66.7127533   4.3083094  61.3895683  66.3180331   3.4363598
  61.5627682  65.9793606   4.9016866  66.5872669  56.9813514   0.8516159
  66.2555994  57.8508925   0.6277374  65.9918282  56.6649798   1.5310190
  60.5542198  63.1198246   5.8744406  59.7775532  63.6792166   5.8647271
  61.1932761  63.6055029   6.3959277  58.8088570  65.9283700   5.4362373
  59.5503255  66.4668743   5.1597197  58.1025556  66.5549988   5.5933925
  60.6374980  63.0085447   1.4068092  61.4836175  63.4324860   1.5502741
  60.5773618  62.3519071   2.1006655  63.7874425  60.6689815   3.0649266
  63.5435357  61.4231876   2.5283541  64.0634356  61.0475163   3.8996513
  57.5449934  63.0823348   6.2377683  56.9148595  63.7639629   6.4713080
  57.4386022  62.9706429   5.2930822  51.1232610  63.0025634  -0.4041402
  51.3740648  63.8872644  -0.1383826  51.6592158  62.8230236  -1.1766310
  56.8230677  57.3844114   8.6002935  56.4297622  56.8310312   9.2750579
  57.6396817  57.6954692   8.9909452  59.7398638  58.8001993   6.1923191
  60.4808351  59.4009146   6.1127654  59.9716561  58.0579630   5.6341234
  54.8839976  63.9858360   4.4701421  54.7693491  63.0843617   4.7708520
  54.0284494  64.2322057   4.1186237  60.5186106  69.7223030   4.9393831
  61.0514443  68.9611318   4.7093139  59.9900187  69.4296681   5.6817986
  63.6855801  54.8283096   0.4687473  63.3420070  55.7184737   0.3926583
  64.0534763  54.6384753  -0.3942942  57.1870981  60.5725863  -0.5466985
  57.8270360  60.4314622  -1.2444021  56.3548511  60.2860376  -0.9228383
  55.6624523  61.9563945   1.4004827  56.3347576  61.7481307   0.7517476
  54.8354309  61.7586031   0.9610059  61.5650095  58.5825886   3.4170488
  60.9178010  59.2815836   3.3234964  62.3351110  59.0162030   3.7846736
  64.9728893  68.8474738   6.4921041  64.8214399  68.6185290   5.5751125
  64.9633572  69.8045340   6.5052386  56.0652020  65.2306548   2.1607264
  55.9271818  64.4986787   2.7618803  56.9756943  65.1415448   1.8791452
  58.6934321  64.9426508   1.6490943  59.4033939  64.3019700   1.6077562
  58.6503629  65.1939402   2.5717124  57.4063254  61.9291725   3.4686583
  56.8700612  61.4782464   4.1208179  56.8179963  62.0637634   2.7257047
  53.1402376  61.0647733   0.5539577  53.0560564  60.4573403  -0.1810013
  52.3185082  61.5556751   0.5549074  61.5739116  65.4480593   7.0555062
  60.8979753  65.3474722   7.7257438  62.3966750  65.2919807   7.5191060
  47.9135630  64.2558130  -1.6027979  47.9519729  63.7221721  -0.8090861
  47.4075923  63.7293335  -2.2217002  55.2926392  59.1022670   1.8934563
  55.3567718  59.9637501   1.4811961  55.2293512  58.4896672   1.1606922
  54.7678665  61.1745803   5.5407597  55.3950703  60.7922880   6.1545122
  53.9106583  60.9560005   5.9063290  57.8764768  58.3932655   3.7294153
  58.3999170  58.6394952   4.4920462  57.6577101  59.2252690   3.3097290
  59.0817313  59.3346350   1.4143823  58.7414133  58.5354163   1.8164503
  58.3756319  59.6348061   0.8420656  59.7333785  56.4195663  -0.1328854
  60.5559854  55.9456141  -0.2549963  59.9771848  57.1986146   0.3669832
  60.9694877  60.5354672  -0.2302858  60.7112655  61.4571742  -0.2318528
  60.4379917  60.1385106   0.4597606  51.7318026  65.6520128   0.6150786
  51.1871494  66.4279936   0.7471060  52.6097375  65.9990932   0.4569907
  52.5184047  64.7790024   3.5080943  51.7765783  64.9272659   4.0945573
  52.1976792  65.0398290   2.6447692  58.0046722  60.4963709   7.2021517
  58.0534877  61.3725832   6.8199287  58.5469236  59.9541102   6.6293160
  65.9003205  63.8728227   5.1114689  66.8013068  63.7334691   4.8198687
  65.9751179  64.0382681   6.0512867  60.2346010  61.2495081   3.9567876
  59.3649320  61.5428647   3.6850464  60.4705491  61.8335526   4.6775139
  62.9385044  57.4674698   1.4733296  63.4566988  58.2035725   1.1479785
  62.5840177  57.7738692   2.3080055  61.2616598  68.4512534   7.3575928
  62.1819607  68.6291133   7.5515975  61.2266181  67.5068579   7.2055628
  59.1306536  61.9346774   9.3901459  59.0303263  62.8841131   9.3213550
  58.9128078  61.6065013   8.5177529  58.9937806  65.3643913   8.2066520
  58.5104887  66.1644273   8.4130409  59.0798745  65.3751858   7.2533964
  55.5110525  67.8249564   2.8105752  56.3303414  68.3193642   2.8340589
  55.7847333  66.9081532   2.7823319  50.7645440  62.1587697   3.5097949
  51.4104303  61.6486651   3.9985174  50.5562591  62.8956379   4.0841374
  63.2898832  69.2268545   9.0090089  64.1589991  69.4009197   8.6476724
  62.8105583  70.0462962   8.8865819  55.1042931  59.3055315   7.6072963
  55.9674392  58.9492119   7.8176288  54.5308341  58.9669209   8.2948367
  61.4007044  43.7189656  -8.9671599  61.3895684  43.3242454  -9.8391095
  61.5627683  42.9855728  -8.3737828  60.5542199  40.1260369  -7.4010287
  59.7775533  40.6854289  -7.4107422  61.1932762  40.6117152  -6.8795417
  58.8088572  42.9345822  -7.8392320  59.5503256  43.4730866  -8.1157496
  58.1025557  43.5612111  -7.6820768  60.5186107  46.7285152  -8.3360862
  61.0514444  45.9673440  -8.5661554  59.9900188  46.4358804  -7.5936708
  64.9728894  45.8536861  -6.7833653  64.8214400  45.6247413  -7.7003569
  64.9633573  46.8107462  -6.7702308  61.5739117  42.4542716  -6.2199631
  60.8979754  42.3536845  -5.5497256  62.3966751  42.2981929  -5.7563634
  65.9003206  40.8790349  -8.1640004  66.8013069  40.7396814  -8.4556006
  65.9751181  41.0444804  -7.2241827  61.2616599  45.4574656  -5.9178765
  62.1819608  45.6353255  -5.7238718  61.2266182  44.5130702  -6.0699066
  59.1306537  38.9408897  -3.8853235  59.0303264  39.8903254  -3.9541144
  58.9128079  38.6127136  -4.7577165  58.9937807  42.3706035  -5.0688173
  58.5104889  43.1706396  -4.8624284  59.0798746  42.3813980  -6.0220729
  63.2898833  46.2330668  -4.2664604  64.1589993  46.4071320  -4.6277969
  62.8105584  47.0525084  -4.3888875   4.0284718  86.2629819  36.2185628
   4.7609890  85.6929036  36.4523457   3.2724074  85.8751420  36.6592133
   1.5510138  79.9751394  40.6780236   1.2193463  80.8446805  40.4541451
   0.9555752  79.6587678  41.3574267   1.4438802  84.6946480  37.7573586
   0.5355679  84.6261888  37.4632347   1.3926397  85.1718425  38.5855412
   3.3100448  82.8962918  39.5351460   2.6674828  83.1895451  38.8891255
   2.8055376  82.7815838  40.3404657   2.0243966  85.3030494  40.5669845
   2.9761389  85.4028592  40.5882069   1.8547416  84.5108763  41.0767929
   4.6526532  85.3147657  39.7270428   4.1365581  84.5306114  39.5400357
   5.5366481  84.9866374  39.8916947   8.4023891  87.7260483  39.4192632
   7.6757054  87.5916448  38.8109124   7.9871177  88.0337312  40.2249351
   1.4489713  81.0498105  32.9441436   0.8688382  81.7082909  32.5619488
   1.1825645  80.2275449  32.5328853   3.5829127  83.2344716  35.7152123
   4.3589517  83.7241169  35.9876740   2.8577261  83.6602770  36.1723993
   6.0201686  83.9472335  36.7726064   6.6146176  83.7068071  36.0619372
   6.0928269  83.2279466  37.3999600   4.0160420  84.5142463  33.0398194
   3.7597355  84.1139099  33.8706402   3.3913288  85.2286257  32.9148333
   8.3272758  87.2538536  35.5469485   7.7672316  87.3231725  36.3201047
   7.7216262  87.0779521  34.8268982   4.0284719  63.2691942  22.9430934
   4.7609891  62.6991159  23.1768764   3.2724075  62.8813542  23.3837440
   1.5510139  56.9813516  27.4025543   1.2193464  57.8508927  27.1786758
   0.9555753  56.6649800  28.0819573   1.4438803  61.7008602  24.4818893
   0.5355680  61.6324011  24.1877654   1.3926399  62.1780547  25.3100718
   3.3100449  59.9025041  26.2596767   2.6674829  60.1957574  25.6136561
   2.8055378  59.7877961  27.0649963   3.4499427  69.5668470  21.6940571
   2.7650465  69.9467372  21.1437605   3.5343276  70.1763797  22.4272519
   0.7050359  67.2128429  28.2935915   0.9167254  67.8560189  27.6170296
   0.6580107  66.3790746  27.8257845   1.8196187  70.0900385  26.4658272
   2.6413630  69.6880572  26.1840954   1.8158589  69.9868619  27.4174388
   9.9102180  66.4339133  22.8143244   9.1565888  65.8646531  22.6587248
  10.0449721  66.4001798  23.7613878   1.8269135  67.0458044  24.1189073
   1.1692809  67.7357306  24.2069202   2.6309534  67.4354476  24.4623059
   0.6374594  65.4002417  22.1693015   1.1506476  66.0332409  22.6714724
   1.2875818  64.8003613  21.8036375   3.9866325  66.5867770  19.9245387
   3.8484224  66.7769366  18.9966576   3.6302544  67.3487153  20.3813438
   4.0135705  68.6544297  24.9356658   4.4472212  68.5619586  25.7839712
   4.7267286  68.6301797  24.2976674   4.8751254  68.6967997  27.4689544
   5.0687144  69.6013808  27.7148819   4.7751873  68.2375416  28.3028129
   1.6458570  71.8793863  31.1206906   1.5871116  71.1953083  30.4537489
   2.0478088  72.6212853  30.6687532   1.6475977  69.8433447  29.3520886
   0.7602756  69.5059368  29.4747285   2.2174528  69.1116478  29.5889651
   6.1293318  65.2541664  24.1137448   6.1183194  66.1366379  23.7431381
   5.2610697  64.9013215  23.9191985   2.7465892  64.1490305  20.5807614
   3.2126344  64.9818297  20.5067916   3.1973393  63.6835287  21.2852872
   1.0883220  73.1219793  23.7434519   2.0129768  72.9162654  23.6058970
   0.9198523  72.8736194  24.6523861   6.7317928  66.4041883  20.7186911
   7.1749074  65.6549209  20.3206034   5.8544438  66.3952020  20.3360643
   3.4539038  71.0404834  33.0332038   2.6634582  71.0228973  32.4936537
   3.2172393  71.5793128  33.7881074   3.5736913  67.8897300  30.3464766
   3.6234918  67.7247308  31.2880289   3.4650836  67.0224559  29.9562647
   0.8640675  63.8728228  31.6624073   1.7650538  63.7334693  31.3708071
   0.9388650  64.0382683  32.6022250   5.0755110  70.3094242  30.5906788
   4.7839918  70.6724222  31.4270249   4.4627241  69.5961250  30.4120120
   6.2750792  67.8747122  23.1109358   7.1097684  68.3136926  23.2746918
   6.4109921  67.3985775  22.2917604   3.3242298  65.4326856  29.0586846
   3.7996420  65.6254503  28.2505697   2.4007863  65.4886042  28.8130230
   2.0243967  62.3092617  27.2915151   2.9761390  62.4090714  27.3127376
   1.8547418  61.5170885  27.8013236   4.5032045  65.5298736  26.4057451
   4.4708365  64.5914737  26.5917135   5.1132669  65.6082773  25.6723276
   4.6526533  62.3209780  26.4515734   4.1365582  61.5368236  26.2645663
   5.5366482  61.9928496  26.6162254   2.3137260  56.0650795  22.4111547
   2.1162081  55.7565883  23.2954879   2.9236966  56.7912434  22.5409477
  10.3208595  66.5914743  25.5463488  11.0511983  66.3300031  26.1071191
   9.7115540  65.8543465  25.5865556   8.4023892  64.7322606  26.1437939
   7.6757055  64.5978571  25.5354431   7.9871179  65.0399434  26.9494657
   1.4489714  58.0560227  19.6686743   0.8688383  58.7145031  19.2864795
   1.1825647  57.2337572  19.2574160   3.5829128  60.2406839  22.4397430
   4.3589518  60.7303291  22.7122047   2.8577262  60.6664893  22.8969300
   6.0201687  60.9534458  23.4971371   6.6146178  60.7130194  22.7864679
   6.0928271  60.2341588  24.1244907   4.0160422  61.5204585  19.7643501
   3.7597356  61.1201221  20.5951708   3.3913290  62.2348379  19.6393640
   8.3272760  64.2600659  22.2714792   7.7672318  64.3293848  23.0446354
   7.7216263  64.0841643  21.5514288   9.9128778  80.9357173  24.9644748
  10.5507188  80.8163920  24.2608088   9.7949621  81.8838017  25.0232700
   6.7218484  80.8884601  24.9006272   6.3836996  80.7725665  24.0126807
   7.5908252  80.4875766  24.8807278   7.2038267  82.0419453  30.8592478
   7.1926908  81.6472251  29.9872982   7.3658907  81.3085525  31.4526249
   3.9245528  84.8256564  29.8071662   3.6335394  85.7302195  29.6918328
   4.5602513  84.8673092  30.5215731   4.8501735  82.2033413  26.3973021
   5.4465308  81.9789435  25.6829984   4.9076707  81.4618158  26.9998469
   9.4670046  78.6608627  22.0397956  10.2533136  78.2428050  21.6888373
   9.7308751  79.5654719  22.2079604  14.8678474  78.5983860  22.9430934
  15.6003646  78.0283077  23.1768764  14.1117829  78.2105460  23.3837440
  12.3903894  72.3105434  27.4025543  12.0587219  73.1800845  27.1786758
  11.7949507  71.9941718  28.0819573   8.8835413  84.5117980  26.8021456
   8.5836137  85.4143019  26.6937263   8.5386473  84.2450163  27.6542608
  12.2832557  77.0300520  24.4818893  11.3749435  76.9615928  24.1877654
  12.2320153  77.5072465  25.3100718   6.3573423  78.4490166  32.4253790
   5.5806757  79.0084086  32.4156655   6.9963986  78.9346949  32.9468660
  14.1494204  75.2316958  26.2596767  13.5068584  75.5249492  25.6136561
  13.6449132  75.1169879  27.0649963   4.6119795  81.2575619  31.9871757
   5.3534480  81.7960663  31.7106581   3.9056781  81.8841908  32.1443309
  10.0875135  83.4004759  30.5843919  10.4958491  82.9587170  29.8398551
   9.3652397  82.8257387  30.8378112   6.4406205  78.3377366  27.9577476
   7.2867400  78.7616780  28.1012125   6.3804843  77.6810991  28.6516039
  10.4103950  83.9605950  24.3396207   9.7812812  84.1251664  23.6372275
  10.0229612  84.3747560  25.1107172  14.2893182  84.8960388  21.6940571
  13.6044220  85.2759289  21.1437605  14.3737031  85.5055715  22.4272519
   9.5905650  75.9981735  29.6158649   9.3466582  76.7523795  29.0792925
   9.8665581  76.3767082  30.4505896  11.5444113  82.5420347  28.2935915
  11.7561008  83.1852107  27.6170296  11.4973861  81.7082663  27.8257845
   9.1470342  75.1538168  25.1972487   8.2854821  75.4519421  25.4889224
   9.1732777  75.3708566  24.2653520   3.3481159  78.4115267  32.7887067
   2.7179820  79.0931548  33.0222464   3.2417247  78.2998349  31.8440205
  12.6589941  85.4192302  26.4658272  13.4807385  85.0172490  26.1840954
  12.6552344  85.3160537  27.4174388   6.4246545  84.9676346  28.6218983
   6.4890977  85.4296753  29.4577154   5.7157468  84.3373711  28.7501292
  20.7495934  81.7631051  22.8143244  19.9959643  81.1938449  22.6587248
  20.8843475  81.7293715  23.7613878   2.6261902  72.7136033  35.1512318
   2.2328847  72.1602232  35.8259962   3.4428042  73.0246611  35.5418836
   5.5429863  74.1293912  32.7432575   6.2839576  74.7301065  32.6637037
   5.7747786  73.3871550  32.1850617   7.7663039  87.2568020  32.6198305
   7.3226893  86.4704398  32.3019210   8.4280252  87.4447170  31.9542196
   9.8644277  87.5370820  30.6479706   9.8462752  88.3579701  30.1559975
  10.7864197  87.4124895  30.8729847   6.3217331  85.0514949  31.4903215
   6.8545668  84.2903237  31.2602523   5.7931412  84.7588601  32.2327369
   9.4887026  70.1575015  27.0196856   9.1451295  71.0476657  26.9435967
   9.8565988  69.9676673  26.1566441   7.0384420  74.9933327  20.5854530
   6.1826016  74.6040177  20.4060169   7.4511371  75.0725288  19.7254315
   8.5683566  72.5279670  24.9846090   8.0648362  72.4909805  24.1713895
   8.8614173  73.4372413  25.0442746   4.8126452  72.6118400  23.9912271
   5.6779449  72.4161209  23.6318161   4.8803961  72.3828752  24.9181628
  12.6662890  82.3749962  24.1189073  12.0086564  83.0649223  24.2069202
  13.4703289  82.7646394  24.4623059  11.4768348  80.7294335  22.1693015
  11.9900230  81.3624327  22.6714724  12.1269572  80.1295530  21.8036375
   4.7211439  71.7161857  20.0903708   4.0675851  71.4010874  19.4660322
   4.6791913  71.0937597  20.8163531   7.9549179  78.2043790  24.4151355
   7.0371741  78.4258737  24.2573043   8.3709323  78.2790101  23.5563063
  11.1863064  76.6392322  21.5272825  10.4485821  76.1269708  21.8583067
  11.4389838  76.1992704  20.7156102  11.2874691  69.4168574  22.1214594
  11.5933568  68.5565938  21.8340509  12.0127296  70.0086194  21.9213588
   5.5595771  79.7122367  22.6290785   5.6144381  78.7596204  22.5533262
   4.7486973  79.8681806  23.1132084   9.0962343  78.7941251  29.2196058
   9.4511731  79.0212725  30.0790524   9.7434474  79.1259628  28.5973313
  14.8260080  81.9159687  19.9245387  14.6877978  82.1061283  18.9966576
  14.4696299  82.6779070  20.3813438   2.9902206  75.9017783  26.0042399
   3.6301585  75.7606542  25.3065362   2.1579736  75.6152296  25.6281001
  14.8529459  83.9836214  24.9356658  15.2865966  83.8911503  25.7839712
  15.5661040  83.9593715  24.2976674   8.5857354  87.5838308  26.4689759
   8.6394377  88.1529245  27.2367475   7.7172136  87.7540194  26.1043796
   1.4655748  77.2855865  27.9514210   2.1378801  77.0773227  27.3026859
   0.6385534  77.0877951  27.5119443  15.7145009  84.0259915  27.4689544
  15.9080899  84.9305726  27.7148819  15.6145627  83.5667334  28.3028129
   7.3681320  73.9117806  29.9679871   6.7209235  74.6107755  29.8744348
   8.1382335  74.3453950  30.3356119  10.7760118  84.1766658  33.0430424
  10.6245624  83.9477209  32.1260508  10.7664797  85.1337259  33.0561769
   7.5445454  81.7498571  28.0276691   8.4737514  81.9009730  27.8545658
   7.1236484  81.8382591  27.1725337   1.8683245  80.5598468  28.7116647
   1.7303043  79.8278706  29.3128187   2.7788168  80.4707368  28.4300835
   4.4965546  80.2718427  28.2000327   5.2065164  79.6311619  28.1586946
   4.4534854  80.5231322  29.1226508  12.4852324  87.2085780  31.1206906
  12.4264870  86.5245000  30.4537489  12.8871843  87.9504770  30.6687532
   3.2094480  77.2583645  30.0195967   2.6731837  76.8074383  30.6717563
   2.6211188  77.3929554  29.2766431  12.4869731  85.1725364  29.3520886
  11.5996510  84.8351286  29.4747285  13.0568283  84.4408395  29.5889651
   9.1157315  74.8793216  22.4719156   9.6126014  74.1263178  22.1520226
   8.3444296  74.9157533  21.9062365  16.9687072  80.5833582  24.1137448
  16.9576948  81.4658297  23.7431381  16.1004451  80.2305132  23.9191985
   5.6992283  77.0210599  22.1990841   5.3290071  76.4681639  22.8871746
   6.1951376  76.4168733  21.6465841  13.5859647  79.4782223  20.5807614
  14.0520099  80.3110214  20.5067916  14.0367147  79.0127204  21.2852872
  11.5576309  71.8462810  24.6198515  10.6439389  72.0767036  24.7880722
  11.9869411  71.9301254  25.4712547  11.3282768  80.0352702  27.1198409
  10.6754218  80.2828609  26.4650862  11.7063148  79.2216840  26.7860886
   7.3770341  80.7772513  33.6064446   6.7010978  80.6766642  34.2766821
   8.1997975  80.6211726  34.0700443   1.0957617  74.4314590  28.4443947
   1.1598944  75.2929421  28.0321345   1.0324737  73.8188592  27.7116305
  10.9703998  86.9100698  33.6970717  11.5143902  87.5230656  33.2025671
  10.3890843  87.4680276  34.2137730  11.3196419  87.8330436  26.4565294
  10.3726755  87.7135787  26.3843621  11.6679193  86.9452934  26.5391556
   3.6795993  73.7224575  30.2803536   4.2030395  73.9686871  31.0429846
   3.4608326  74.5544609  29.8606674  11.9276975  88.4511711  23.7434519
  12.8523522  88.2454572  23.6058970  11.7592278  88.2028112  24.6523861
   4.8848538  74.6638270  27.9653207   4.5445358  73.8646083  28.3673887
   4.1787544  74.9639981  27.3930040   5.5365010  71.7487582  26.4180530
   6.3591079  71.2748060  26.2959420   5.7803073  72.5278066  26.9179216
   4.9199971  75.4309251  24.2753398   4.9061540  74.5350344  23.9385696
   5.6372399  75.4379914  24.9091684   6.7726102  75.8646591  26.3206525
   6.5143880  76.7863662  26.3190856   6.2411142  75.4677025  27.0106990
   7.1928058  71.9978541  22.6807688   7.2149754  72.0617875  21.7259668
   7.6096117  71.1583050  22.8748194  17.5711682  81.7333801  20.7186911
  18.0142828  80.9841126  20.3206034  16.6938192  81.7243937  20.3360643
   3.8077947  75.8255628  33.7530901   3.8566102  76.7017751  33.3708670
   4.3500461  75.2833021  33.1802544  14.2932792  86.3696752  33.0332038
  13.5028336  86.3520891  32.4936537  14.0566147  86.9085045  33.7881074
  14.4130668  83.2189218  30.3464766  14.4628672  83.0539225  31.2880289
  14.3044591  82.3516477  29.9562647  11.7034430  79.2020146  31.6624073
  12.6044293  79.0626611  31.3708071  11.7782404  79.3674601  32.6022250
   6.0377235  76.5787001  30.5077259   5.1680545  76.8720567  30.2359848
   6.2736716  77.1627446  31.2284523  15.9148864  85.6386160  30.5906788
  15.6233673  86.0016140  31.4270249  15.3020996  84.9253168  30.4120120
  14.1636053  80.7618774  29.0586846  14.6390174  80.9546420  28.2505697
  13.2401618  80.8177960  28.8130230   8.7416269  72.7966618  28.0242680
   9.2598213  73.5327645  27.6989168   8.3871402  73.1030611  28.8589439
   8.9928863  69.2166900  23.5443576   9.2730617  68.5490089  24.1704003
   9.7779470  69.4095996  23.0318240  12.8637722  77.6384534  27.2915151
  13.8155145  77.7382632  27.3127376  12.6941172  76.8462803  27.8013236
  10.8852101  74.7240117  27.4774552  10.2902033  75.0045130  26.7821041
  10.6001798  75.2134018  28.2491293  15.3425799  80.8590654  26.4057451
  15.3102120  79.9206655  26.5917135  15.9526423  80.9374691  25.6723276
  15.4920288  77.6501697  26.4515734  14.9759337  76.8660154  26.2645663
  16.3760236  77.3220414  26.6162254  13.1531015  71.3942713  22.4111547
  12.9555836  71.0857801  23.2954879  13.7630720  72.1204352  22.5409477
  21.1602349  81.9206661  25.5463488  21.8905738  81.6591949  26.1071191
  20.5509295  81.1835383  25.5865556  19.2417646  80.0614523  26.1437939
  18.5150810  79.9270488  25.5354431  18.8264933  80.3691352  26.9494657
   7.0647823  83.7804453  33.9085312   7.9850832  83.9583052  34.1025359
   7.0297406  82.8360498  33.7565011   6.9814113  72.1973573  18.5383782
   6.1714841  71.8520658  18.9139028   7.6698530  71.8881117  19.1271393
   8.9104661  71.2751620  20.1608078   9.4635700  71.6947073  20.8198101
   9.1474748  70.3487368  20.2031034   4.9337761  77.2638693  35.9410842
   4.8334488  78.2133050  35.8722933   4.7159303  76.9356932  35.0686912
  12.2883469  73.3852145  19.6686743  11.7082138  74.0436949  19.2864795
  12.0219401  72.5629490  19.2574160  10.7387035  72.7857203  21.8708063
  11.2386813  72.8973737  21.0622382  11.3822643  72.4818256  22.5108871
   4.7969031  80.6935832  34.7575904   4.3136112  81.4936192  34.9639793
   4.8829970  80.7043777  33.8043348   1.3141750  83.1541483  29.3615135
   2.1334639  83.6485562  29.3849973   1.5878558  82.2373451  29.3332703
  11.0708347  75.5452235  18.7243091  10.1834202  75.8301886  18.5063286
  11.4862336  75.3845999  17.8770368  14.4222883  75.5698756  22.4397430
  15.1983273  76.0595209  22.7122047  13.6971017  75.9956811  22.8969300
  16.8595441  76.2826376  23.4971371  17.4539932  76.0422112  22.7864679
  16.9322025  75.5633506  24.1244907  14.8554176  76.8496503  19.7643501
  14.5991110  76.4493139  20.5951708  14.2307044  77.5640297  19.6393640
  19.1666514  79.5892576  22.2714792  18.6066072  79.6585766  23.0446354
  18.5610017  79.4133561  21.5514288   9.0930057  84.5560464  35.5599473
   9.9621216  84.7301117  35.1986108   8.6136808  85.3754881  35.4375202
   8.9032395  68.3462438  20.0677165   8.1364790  67.7920925  20.2133848
   9.3143099  68.4184307  20.9291317  25.7072228  93.9275777  22.9430934
  26.4397400  93.3574994  23.1768764  24.9511584  93.5397378  23.3837440
  23.2297648  87.6397352  27.4025543  22.8980973  88.5092762  27.1786758
  22.6343262  87.3233636  28.0819573  23.1226312  92.3592438  24.4818893
  22.2143189  92.2907846  24.1877654  23.0713908  92.8364383  25.3100718
  24.9887958  90.5608876  26.2596767  24.3462338  90.8541409  25.6136561
  24.4842887  90.4461796  27.0649963  20.4299405  91.3273652  29.6158649
  20.1860337  92.0815713  29.0792925  20.7059335  91.7059000  30.4505896
  19.9864097  90.4830085  25.1972487  19.1248576  90.7811339  25.4889224
  20.0126531  90.7000484  24.2653520  13.4655656  88.0427951  35.1512318
  13.0722602  87.4894149  35.8259962  14.2821797  88.3538529  35.5418836
  16.3823617  89.4585830  32.7432575  17.1233331  90.0592983  32.6637037
  16.6141540  88.7163468  32.1850617  20.3280780  85.4866933  27.0196856
  19.9845050  86.3768574  26.9435967  20.6959743  85.2968590  26.1566441
  17.8778174  90.3225245  20.5854530  17.0219770  89.9332095  20.4060169
  18.2905126  90.4017205  19.7254315  19.4077321  87.8571588  24.9846090
  18.9042116  87.8201723  24.1713895  19.7007928  88.7664331  25.0442746
  15.6520207  87.9410318  23.9912271  16.5173203  87.7453126  23.6318161
  15.7197715  87.7120669  24.9181628  15.5605193  87.0453774  20.0903708
  14.9069606  86.7302792  19.4660322  15.5185667  86.4229515  20.8163531
  22.0256819  91.9684240  21.5272825  21.2879575  91.4561626  21.8583067
  22.2783592  91.5284621  20.7156102  22.1268446  84.7460492  22.1214594
  22.4327323  83.8857855  21.8340509  22.8521051  85.3378112  21.9213588
  18.2075074  89.2409723  29.9679871  17.5602989  89.9399673  29.8744348
  18.9776090  89.6745867  30.3356119  19.9551069  90.2085134  22.4719156
  20.4519769  89.4555096  22.1520226  19.1838051  90.2449450  21.9062365
  22.3970064  87.1754727  24.6198515  21.4833144  87.4058954  24.7880722
  22.8263165  87.2593171  25.4712547  14.5189747  89.0516492  30.2803536
  15.0424149  89.2978789  31.0429846  14.3002081  89.8836527  29.8606674
  15.7242292  89.9930187  27.9653207  15.3839113  89.1938000  28.3673887
  15.0181299  90.2931898  27.3930040  16.3758764  87.0779500  26.4180530
  17.1984834  86.6039978  26.2959420  16.6196828  87.8569984  26.9179216
  15.7593726  90.7601168  24.2753398  15.7455295  89.8642262  23.9385696
  16.4766154  90.7671832  24.9091684  18.0321812  87.3270459  22.6807688
  18.0543509  87.3909792  21.7259668  18.4489871  86.4874968  22.8748194
  19.5810024  88.1258535  28.0242680  20.0991967  88.8619562  27.6989168
  19.2265156  88.4322529  28.8589439  23.7031476  92.9676452  27.2915151
  24.6548899  93.0674550  27.3127376  23.5334927  92.1754720  27.8013236
  21.7245856  90.0532035  27.4774552  21.1295788  90.3337048  26.7821041
  21.4395552  90.5425936  28.2491293  26.3314042  92.9793615  26.4515734
  25.8153091  92.1952072  26.2645663  27.2153991  92.6512332  26.6162254
  23.9924769  86.7234631  22.4111547  23.7949590  86.4149719  23.2954879
  24.6024475  87.4496270  22.5409477  30.0811401  95.3906441  26.1437939
  29.3544564  95.2562406  25.5354431  29.6658688  95.6983270  26.9494657
  17.8207868  87.5265491  18.5383782  17.0108596  87.1812576  18.9139028
  18.5092285  87.2173034  19.1271393  19.7498416  86.6043538  20.1608078
  20.3029455  87.0238991  20.8198101  19.9868502  85.6779286  20.2031034
  23.1277223  88.7144063  19.6686743  22.5475892  89.3728867  19.2864795
  22.8613156  87.8921407  19.2574160  21.5780789  88.1149120  21.8708063
  22.0780568  88.2265655  21.0622382  22.2216397  87.8110173  22.5108871
  21.9102101  90.8744153  18.7243091  21.0227956  91.1593804  18.5063286
  22.3256090  90.7137916  17.8770368  25.2616637  90.8990674  22.4397430
  26.0377027  91.3887126  22.7122047  24.5364771  91.3248728  22.8969300
  27.6989196  91.6118293  23.4971371  28.2933687  91.3714029  22.7864679
  27.7715779  90.8925424  24.1244907  25.6947931  92.1788421  19.7643501
  25.4384865  91.7785057  20.5951708  25.0700799  92.8932215  19.6393640
  30.0060269  94.9184494  22.2714792  29.4459827  94.9877683  23.0446354
  29.4003772  94.7425479  21.5514288  19.7426149  83.6754356  20.0677165
  18.9758545  83.1212843  20.2133848  20.1536854  83.7476225  20.9291317
   0.7050360  44.2190552  15.0181221   0.9167255  44.8622312  14.3415602
   0.6580108  43.3852868  14.5503151   1.8196188  47.0962507  13.1903579
   2.6413632  46.6942695  12.9086260   1.8158591  46.9930741  14.1419695
   4.0135706  45.6606419  11.6601965   4.4472213  45.5681708  12.5085019
   4.7267287  45.6363920  11.0221981   4.8751256  45.7030120  14.1934850
   5.0687146  46.6075930  14.4394125   4.7751874  45.2437539  15.0273436
   1.6475978  46.8495569  16.0766193   0.7602757  46.5121491  16.1992592
   2.2174529  46.1178600  16.3134958   1.0883221  50.1281916  10.4679826
   2.0129769  49.9224777  10.3304277   0.9198525  49.8798317  11.3769167
   3.4539039  48.0466957  19.7577344   2.6634583  48.0291095  19.2181844
   3.2172394  48.5855250  20.5126381   3.5736914  44.8959423  17.0710073
   3.6234919  44.7309430  18.0125596   3.4650838  44.0286682  16.6807954
   0.8640677  40.8790351  18.3869380   1.7650539  40.7396816  18.0953377
   0.9388651  41.0444806  19.3267557   5.0755111  47.3156364  17.3152095
   4.7839919  47.6786345  18.1515555   4.4627242  46.6023373  17.1365427
   3.3242299  42.4388979  15.7832153   3.7996421  42.6316625  14.9751004
   2.4007865  42.4948165  15.5375536   4.5032046  42.5360859  13.1302758
   4.4708366  41.5976860  13.3162442   5.1132670  42.6144896  12.3968583
  10.3208596  43.5976866  12.2708795  11.0511984  43.3362154  12.8316498
   9.7115541  42.8605588  12.3110863   8.4023893  41.7384728  12.8683246
   7.6757057  41.6040693  12.2599737   7.9871180  42.0461557  13.6739964
   9.9128779  57.9419295  11.6890054  10.5507189  57.8226043  10.9853394
   9.7949622  58.8900139  11.7478006   6.7218486  57.8946723  11.6251579
   6.3836997  57.7787788  10.7372114   7.5908254  57.4937888  11.6052585
   7.2038269  59.0481575  17.5837784   7.1926909  58.6534373  16.7118288
   7.3658908  58.3147648  18.1771556   3.9245530  61.8318687  16.5316968
   3.6335396  62.7364318  16.4163635   4.5602514  61.8735215  17.2461038
   4.8501737  59.2095535  13.1218328   5.4465309  58.9851558  12.4075291
   4.9076708  58.4680281  13.7243776   9.4670048  55.6670749   8.7643262
  10.2533137  55.2490172   8.4133679   9.7308752  56.5716841   8.9324911
  14.8678475  55.6045982   9.6676241  15.6003647  55.0345199   9.9014070
  14.1117831  55.2167583  10.1082746  12.3903895  49.3167556  14.1270849
  12.0587220  50.1862967  13.9032064  11.7949509  49.0003840  14.8064880
   8.8835415  61.5180102  13.5266762   8.5836138  62.4205141  13.4182569
   8.5386474  61.2512286  14.3787915  12.2832559  54.0362643  11.2064199
  11.3749436  53.9678051  10.9122960  12.2320154  54.5134588  12.0346025
   6.3573424  55.4552288  19.1499097   5.5806758  56.0146208  19.1401961
   6.9963987  55.9409071  19.6713967  14.1494205  52.2379081  12.9842073
  13.5068585  52.5311614  12.3381868  13.6449133  52.1232001  13.7895270
   4.6119797  58.2637742  18.7117064   5.3534481  58.8022786  18.4351887
   3.9056782  58.8904030  18.8688616  10.0875136  60.4066882  17.3089225
  10.4958492  59.9649293  16.5643858   9.3652398  59.8319510  17.5623418
   6.4406206  55.3439489  14.6822782   7.2867402  55.7678902  14.8257431
   6.3804844  54.6873113  15.3761345  10.4103951  60.9668073  11.0641514
   9.7812813  61.1313787  10.3617582  10.0229613  61.3809682  11.8352478
  14.2893183  61.9022510   8.4185878  13.6044221  62.2821412   7.8682911
  14.3737032  62.5117837   9.1517826   9.5905652  53.0043857  16.3403956
   9.3466584  53.7585918  15.8038232   9.8665582  53.3829205  17.1751203
  11.5444114  59.5482470  15.0181221  11.7561010  60.1914229  14.3415602
  11.4973863  58.7144786  14.5503151   9.1470343  52.1600290  11.9217794
   8.2854822  52.4581544  12.2134531   9.1732778  52.3770689  10.9898826
   3.3481160  55.4177390  19.5132374   2.7179821  56.0993671  19.7467771
   3.2417248  55.3060471  18.5685512  12.6589942  62.4254425  13.1903579
  13.4807386  62.0234612  12.9086260  12.6552345  62.3222659  14.1419695
   6.4246546  61.9738468  15.3464289   6.4890978  62.4358875  16.1822461
   5.7157470  61.3435833  15.4746599  20.7495935  58.7693173   9.5388550
  19.9959644  58.2000571   9.3832555  20.8843477  58.7355838  10.4859185
   2.6261903  49.7198156  21.8757625   2.2328849  49.1664354  22.5505269
   3.4428043  50.0308734  22.2664142   5.5429864  51.1356035  19.4677881
   6.2839577  51.7363188  19.3882344   5.7747787  50.3933672  18.9095924
   7.7663040  64.2630142  19.3443612   7.3226894  63.4766521  19.0264516
   8.4280253  64.4509293  18.6787502   9.8644278  64.5432942  17.3725013
   9.8462753  65.3641823  16.8805282  10.7864198  64.4187017  17.5975154
   6.3217332  62.0577072  18.2148521   6.8545669  61.2965360  17.9847829
   5.7931413  61.7650723  18.9572676   9.4887027  47.1637138  13.7442163
   9.1451296  48.0538779  13.6681274   9.8565990  46.9738795  12.8811748
   7.0384421  51.9995449   7.3099837   6.1826017  51.6102300   7.1305475
   7.4511373  52.0787410   6.4499622   8.5683567  49.5341793  11.7091396
   8.0648363  49.4971928  10.8959202   8.8614174  50.4434535  11.7688053
   4.8126453  49.6180522  10.7157578   5.6779450  49.4223331  10.3563467
   4.8803962  49.3890874  11.6426935  12.6662891  59.3812085  10.8434380
  12.0086565  60.0711346  10.9314508  13.4703290  59.7708517  11.1868366
  11.4768350  57.7356457   8.8938321  11.9900231  58.3686449   9.3960031
  12.1269573  57.1357653   8.5281681   7.9549180  55.2105913  11.1396662
   7.0371742  55.4320860  10.9818350   8.3709324  55.2852223  10.2808369
  11.1863065  53.6454445   8.2518131  10.4485822  53.1331831   8.5828374
  11.4389839  53.2054826   7.4401408  11.2874693  46.4230697   8.8459901
  11.5933570  45.5628060   8.5585816  12.0127298  47.0148317   8.6458895
   5.5595772  56.7184490   9.3536092   5.6144382  55.7658326   9.2778568
   4.7486974  56.8743929   9.8377390   9.0962344  55.8003374  15.9441365
   9.4511732  56.0274847  16.8035830   9.7434475  56.1321751  15.3218620
  14.8260081  58.9221810   6.6490694  14.6877980  59.1123406   5.7211883
  14.4696300  59.6841193   7.1058745   2.9902207  52.9079905  12.7287706
   3.6301586  52.7668664  12.0310669   2.1579738  52.6214419  12.3526308
  14.8529461  60.9898337  11.6601965  15.2865967  60.8973626  12.5085019
  15.5661041  60.9655837  11.0221981   8.5857355  64.5900431  13.1935066
   8.6394378  65.1591367  13.9612782   7.7172137  64.7602316  12.8289103
   1.4655749  54.2917987  14.6759517   2.1378802  54.0835349  14.0272166
   0.6385535  54.0940073  14.2364749  15.7145010  61.0322038  14.1934850
  15.9080900  61.9367848  14.4394125  15.6145628  60.5729457  15.0273436
   7.3681321  50.9179928  16.6925178   6.7209236  51.6169878  16.5989654
   8.1382336  51.3516072  17.0601426  10.7760119  61.1828780  19.7675731
  10.6245625  60.9539332  18.8505815  10.7664798  62.1399382  19.7807076
   7.5445455  58.7560693  14.7521998   8.4737515  58.9071853  14.5790965
   7.1236485  58.8444714  13.8970644   1.8683246  57.5660590  15.4361954
   1.7303044  56.8340829  16.0373493   2.7788170  57.4769490  15.1546142
   4.4965547  57.2780550  14.9245634   5.2065165  56.6373742  14.8832252
   4.4534855  57.5293444  15.8471815  12.4852325  64.2147903  17.8452213
  12.4264872  63.5307123  17.1782796  12.8871844  64.9566893  17.3932839
   3.2094481  54.2645767  16.7441273   2.6731838  53.8136506  17.3962870
   2.6211189  54.3991676  16.0011738  12.4869733  62.1787487  16.0766193
  11.5996512  61.8413409  16.1992592  13.0568284  61.4470518  16.3134958
   9.1157316  51.8855339   9.1964463   9.6126015  51.1325301   8.8765533
   8.3444297  51.9219655   8.6307672  16.9687073  57.5895704  10.8382754
  16.9576950  58.4720420  10.4676687  16.1004453  57.2367255  10.6437291
   8.4769570  66.7375773  15.1985595   9.1897542  67.3723238  15.1261496
   7.9859598  66.8339639  14.3825596   5.6992285  54.0272722   8.9236147
   5.3290072  53.4743762   9.6117053   6.1951377  53.4230855   8.3711147
  13.5859648  56.4844345   7.3052920  14.0520100  57.3172337   7.2313223
  14.0367148  56.0189327   8.0098179  11.5576311  48.8524932  11.3443822
  10.6439390  49.0829159  11.5126029  11.9869412  48.9363376  12.1957854
  11.3282769  57.0414824  13.8443716  10.6754219  57.2890732  13.1896168
  11.7063149  56.2278962  13.5106193   7.3770342  57.7834635  20.3309753
   6.7010979  57.6828765  21.0012128   8.1997976  57.6273849  20.7945750
   1.0957618  51.4376712  15.1689253   1.1598945  52.2991543  14.7566651
   1.0324739  50.8250714  14.4361612  10.9703999  63.9162820  20.4216023
  11.5143903  64.5292778  19.9270978  10.3890844  64.4742399  20.9383036
  11.3196421  64.8392558  13.1810601  10.3726756  64.7197909  13.1088928
  11.6679194  63.9515056  13.2636862   3.6795994  50.7286697  17.0048843
   4.2030396  50.9748994  17.7675152   3.4608327  51.5606732  16.5851980
  11.9276976  65.4573833  10.4679826  12.8523523  65.2516695  10.3304277
  11.7592279  65.2090234  11.3769167   4.8848539  51.6700392  14.6898513
   4.5445359  50.8708205  15.0919193   4.1787545  51.9702103  14.1175347
   5.5365011  48.7549705  13.1425836   6.3591080  48.2810183  13.0204727
   5.7803074  49.5340188  13.6424523   4.9199973  52.4371373  10.9998705
   4.9061541  51.5412467  10.6631003   5.6372401  52.4442037  11.6336991
   6.7726103  52.8708714  13.0451832   6.5143881  53.7925784  13.0436162
   6.2411144  52.4739148  13.7352296   7.1928059  49.0040664   9.4052995
   7.2149756  49.0679997   8.4504974   7.6096118  48.1645173   9.5993501
  17.5711683  58.7395924   7.4432217  18.0142829  57.9903249   7.0451340
  16.6938194  58.7306060   7.0605949   6.2658936  66.6560044  16.5816023
   6.5746063  66.4109191  17.4538723   7.0634418  66.8606683  16.0934893
   3.8077948  52.8317751  20.4776207   3.8566104  53.7079874  20.0953977
   4.3500462  52.2895144  19.9047851  14.2932794  63.3758874  19.7577344
  13.5028337  63.3583013  19.2181844  14.0566148  63.9147168  20.5126381
  14.4130669  60.2251341  17.0710073  14.4628674  60.0601348  18.0125596
  14.3044592  59.3578600  16.6807954  11.7034431  56.2082269  18.3869380
  12.6044294  56.0688734  18.0953377  11.7782406  56.3736723  19.3267557
   6.0377237  53.5849123  17.2322566   5.1680546  53.8782689  16.9605155
   6.2736717  54.1689568  17.9529830  15.9148866  62.6448282  17.3152095
  15.6233674  63.0078263  18.1515555  15.3020997  61.9315290  17.1365427
  17.1144548  60.2101162   9.8354665  17.9491439  60.6490966   9.9992225
  17.2503677  59.7339815   9.0162911  14.1636054  57.7680897  15.7832153
  14.6390175  57.9608543  14.9751004  13.2401619  57.8240083  15.5375536
   8.7416270  49.8028740  14.7487986   9.2598214  50.5389767  14.4234475
   8.3871403  50.1092734  15.5834746   8.9928865  46.2229023  10.2688883
   9.2730618  45.5552212  10.8949310   9.7779471  46.4158118   9.7563547
  12.8637723  54.6446657  14.0160458  13.8155146  54.7444755  14.0372682
  12.6941173  53.8524925  14.5258542  10.8852102  51.7302240  14.2019859
  10.2902034  52.0107253  13.5066348  10.6001799  52.2196141  14.9736600
  15.3425801  57.8652777  13.1302758  15.3102121  56.9268777  13.3162442
  15.9526424  57.9436813  12.3968583  15.4920289  54.6563820  13.1761041
  14.9759338  53.8722277  12.9890970  16.3760238  54.3282537  13.3407560
  13.1531016  48.4004836   9.1356854  12.9555837  48.0919924  10.0200186
  13.7630722  49.1266474   9.2654783  21.1602351  58.9268783  12.2708795
  21.8905739  58.6654072  12.8316498  20.5509296  58.1897505  12.3110863
  19.2417648  57.0676646  12.8683246  18.5150811  56.9332611  12.2599737
  18.8264935  57.3753475  13.6739964   7.0647824  60.7866576  20.6330619
   7.9850834  60.9645175  20.8270665   7.0297407  59.8422621  20.4810318
   4.9337762  54.2700816  22.6656149   4.8334489  55.2195173  22.5968240
   4.7159304  53.9419055  21.7932219  12.2883470  50.3914268   6.3932049
  11.7082139  51.0499072   6.0110102  12.0219402  49.5691612   5.9819467
  10.7387036  49.7919325   8.5953370  11.2386814  49.9035860   7.7867688
  11.3822644  49.4880378   9.2354178   4.7969032  57.6997955  21.4821211
   4.3136114  58.4998315  21.6885100   4.8829971  57.7105900  20.5288655
   1.3141752  60.1603606  16.0860442   2.1334641  60.6547684  16.1095279
   1.5878559  59.2435574  16.0578009  11.0708348  52.5514358   5.4488397
  10.1834203  52.8364009   5.2308592  11.4862337  52.3908121   4.6015674
  14.4222884  52.5760879   9.1642737  15.1983274  53.0657331   9.4367354
  13.6971018  53.0018933   9.6214606  16.8595443  53.2888498  10.2216677
  17.4539933  53.0484234   9.5109986  16.9322026  52.5695629  10.8490214
  14.8554177  53.8558626   6.4888807  14.5991112  53.4555261   7.3197015
  14.2307045  54.5702420   6.3638946  19.1666515  56.5954699   8.9960099
  18.6066073  56.6647888   9.7691661  18.5610019  56.4195684   8.2759595
   9.0930058  61.5622587  22.2844780   9.9621218  61.7363239  21.9231415
   8.6136809  62.3817004  22.1620509  20.7522534  73.2711213  11.6890054
  21.3900944  73.1517960  10.9853394  20.6343377  74.2192057  11.7478006
  17.5612240  73.2238641  11.6251579  17.2230752  73.1079706  10.7372114
  18.4302008  72.8229806  11.6052585  18.0432023  74.3773493  17.5837784
  18.0320664  73.9826291  16.7118288  18.2052663  73.6439565  18.1771556
  14.7639284  77.1610605  16.5316968  14.4729150  78.0656235  16.4163635
  15.3996269  77.2027132  17.2461038  15.6895491  74.5387453  13.1218328
  16.2859063  74.3143476  12.4075291  15.7470463  73.7972199  13.7243776
  20.3063802  70.9962667   8.7643262  21.0926891  70.5782090   8.4133679
  20.5702507  71.9008759   8.9324911  25.7072229  70.9337900   9.6676241
  26.4397401  70.3637117   9.9014070  24.9511585  70.5459500  10.1082746
  23.2297650  64.6459474  14.1270849  22.8980975  65.5154885  13.9032064
  22.6343263  64.3295758  14.8064880  19.7229169  76.8472020  13.5266762
  19.4229892  77.7497059  13.4182569  19.3780229  76.5804203  14.3787915
  23.1226313  69.3654560  11.2064199  22.2143190  69.2969969  10.9122960
  23.0713909  69.8426505  12.0346025  17.1967179  70.7844206  19.1499097
  16.4200513  71.3438126  19.1401961  17.8357742  71.2700989  19.6713967
  24.9887959  67.5670999  12.9842073  24.3462340  67.8603532  12.3381868
  24.4842888  67.4523919  13.7895270  15.4513551  73.5929659  18.7117064
  16.1928235  74.1314703  18.4351887  14.7450537  74.2195948  18.8688616
  20.9268891  75.7358800  17.3089225  21.3352247  75.2941210  16.5643858
  20.2046152  75.1611427  17.5623418  17.2799961  70.6731406  14.6822782
  18.1261156  71.0970820  14.8257431  17.2198598  70.0165031  15.3761345
  21.2497705  76.2959990  11.0641514  20.6206568  76.4605704  10.3617582
  20.8623367  76.7101600  11.8352478  25.1286937  77.2314428   8.4185878
  24.4437975  77.6113330   7.8682911  25.2130787  77.8409755   9.1517826
  20.4299406  68.3335775  16.3403956  20.1860338  69.0877835  15.8038232
  20.7059337  68.7121122  17.1751203  22.3837869  74.8774387  15.0181221
  22.5954764  75.5206147  14.3415602  22.3367617  74.0436704  14.5503151
  19.9864098  67.4892208  11.9217794  19.1248577  67.7873461  12.2134531
  20.0126533  67.7062607  10.9898826  14.1874915  70.7469307  19.5132374
  13.5573575  71.4285588  19.7467771  14.0811003  70.6352389  18.5685512
  23.4983697  77.7546343  13.1903579  24.3201141  77.3526530  12.9086260
  23.4946100  77.6514577  14.1419695  17.2640300  77.3030386  15.3464289
  17.3284733  77.7650793  16.1822461  16.5551224  76.6727751  15.4746599
  31.5889690  74.0985091   9.5388550  30.8353398  73.5292489   9.3832555
  31.7237231  74.0647756  10.4859185  13.4655658  65.0490073  21.8757625
  13.0722603  64.4956272  22.5505269  14.2821798  65.3600652  22.2664142
  16.3823619  66.4647952  19.4677881  17.1233332  67.0655105  19.3882344
  16.6141541  65.7225590  18.9095924  11.5264957  71.6504320  17.7456111
  11.4118472  70.7489577  18.0463210  10.6709474  71.8968016  17.3940928
  18.6056794  79.5922060  19.3443612  18.1620649  78.8058438  19.0264516
  19.2674008  79.7801210  18.6787502  20.7038032  79.8724860  17.3725013
  20.6856508  80.6933741  16.8805282  21.6257952  79.7478935  17.5975154
  17.1611087  77.3868989  18.2148521  17.6939423  76.6257278  17.9847829
  16.6325168  77.0942641  18.9572676  20.3280782  62.4929055  13.7442163
  19.9845051  63.3830697  13.6681274  20.6959744  62.3030713  12.8811748
  17.8778175  67.3287367   7.3099837  17.0219772  66.9394218   7.1305475
  18.2905127  67.4079328   6.4499622  19.4077322  64.8633710  11.7091396
  18.9042118  64.8263846  10.8959202  19.7007929  65.7726453  11.7688053
  15.6520208  64.9472440  10.7157578  16.5173205  64.7515249  10.3563467
  15.7197717  64.7182792  11.6426935  23.5056645  74.7104002  10.8434380
  22.8480320  75.4003264  10.9314508  24.3097045  75.1000434  11.1868366
  22.3162104  73.0648375   8.8938321  22.8293986  73.6978367   9.3960031
  22.9663328  72.4649570   8.5281681  15.5605195  64.0515897   6.8149014
  14.9069607  63.7364914   6.1905629  15.5185669  63.4291637   7.5408837
  18.7942935  70.5397831  11.1396662  17.8765496  70.7612778  10.9818350
  19.2103079  70.6144141  10.2808369  22.0256820  68.9746362   8.2518131
  21.2879577  68.4623749   8.5828374  22.2783593  68.5346744   7.4401408
  22.1268447  61.7522614   8.8459901  22.4327324  60.8919978   8.5585816
  22.8521052  62.3440235   8.6458895  16.3989527  72.0476408   9.3536092
  16.4538137  71.0950244   9.2778568  15.5880729  72.2035847   9.8377390
  19.9356099  71.1295292  15.9441365  20.2905486  71.3566765  16.8035830
  20.5828230  71.4613669  15.3218620  25.6653835  74.2513728   6.6490694
  25.5271734  74.4415324   5.7211883  25.3090054  75.0133110   7.1058745
  13.8295962  68.2371823  12.7287706  14.4695341  68.0960582  12.0310669
  12.9973492  67.9506336  12.3526308  25.6923215  76.3190255  11.6601965
  26.1259722  76.2265544  12.5085019  26.4054796  76.2947755  11.0221981
  19.4251110  79.9192349  13.1935066  19.4788132  80.4883285  13.9612782
  18.5565891  80.0894234  12.8289103  12.3049503  69.6209905  14.6759517
  12.9772557  69.4127267  14.0272166  11.4779290  69.4231991  14.2364749
  26.5538765  76.3613955  14.1934850  26.7474655  77.2659766  14.4394125
  26.4539383  75.9021374  15.0273436  18.2075075  66.2471846  16.6925178
  17.5602990  66.9461796  16.5989654  18.9776091  66.6807990  17.0601426
  21.6153873  76.5120698  19.7675731  21.4639380  76.2831250  18.8505815
  21.6058553  77.4691299  19.7807076  18.3839210  74.0852611  14.7521998
  19.3131270  74.2363770  14.5790965  17.9630240  74.1736632  13.8970644
  12.7077001  72.8952508  15.4361954  12.5696799  72.1632747  16.0373493
  13.6181924  72.8061408  15.1546142  15.3359301  72.6072467  14.9245634
  16.0458920  71.9665659  14.8832252  15.2928609  72.8585362  15.8471815
  23.3246080  79.5439821  17.8452213  23.2658626  78.8599041  17.1782796
  23.7265598  80.2858811  17.3932839  14.0488235  69.5937685  16.7441273
  13.5125592  69.1428424  17.3962870  13.4604944  69.7283594  16.0011738
  23.3263487  77.5079405  16.0766193  22.4390266  77.1705326  16.1992592
  23.8962038  76.7762436  16.3134958   9.7827356  68.7293693  13.8294268
   9.6985545  68.1219362  13.0944678   8.9610063  69.2202711  13.8303764
  19.9551070  67.2147256   9.1964463  20.4519770  66.4617219   8.8765533
  19.1838052  67.2511573   8.6307672  27.8080828  72.9187622  10.8382754
  27.7970704  73.8012337  10.4676687  26.9398207  72.5659173  10.6437291
  19.3163324  82.0667691  15.1985595  20.0291296  82.7015156  15.1261496
  18.8253353  82.1631557  14.3825596  16.5386039  69.3564639   8.9236147
  16.1683827  68.8035680   9.6117053  17.0345132  68.7522773   8.3711147
  24.4253402  71.8136263   7.3052920  24.8913855  72.6464254   7.2313223
  24.8760903  71.3481244   8.0098179  22.3970065  64.1816850  11.3443822
  21.4833145  64.4121077  11.5126029  22.8263167  64.2655294  12.1957854
  22.1676524  72.3706742  13.8443716  21.5147974  72.6182649  13.1896168
  22.5456904  71.5570880  13.5106193  18.2164097  73.1126553  20.3309753
  17.5404734  73.0120682  21.0012128  19.0391731  72.9565767  20.7945750
  11.9351373  66.7668630  15.1689253  11.9992699  67.6283461  14.7566651
  11.8718493  66.1542632  14.4361612  11.4103645  68.8391763  18.8162288
  12.0375684  68.4568840  19.4299812  10.5531564  68.6205965  19.1817980
  21.8097754  79.2454738  20.4216023  22.3537658  79.8584696  19.9270978
  21.2284599  79.8034316  20.9383036  22.1590175  80.1684476  13.1810601
  21.2120511  80.0489827  13.1088928  22.5072948  79.2806974  13.2636862
  14.5189749  66.0578615  17.0048843  15.0424150  66.3040911  17.7675152
  14.3002082  66.8898650  16.5851980  22.7670730  80.7865751  10.4679826
  23.6917278  80.5808612  10.3304277  22.5986034  80.5382152  11.3769167
  15.7242294  66.9992310  14.6898513  15.3839114  66.2000123  15.0919193
  15.0181300  67.2994021  14.1175347  16.3758765  64.0841622  13.1425836
  17.1984835  63.6102101  13.0204727  16.6196829  64.8632106  13.6424523
  15.7593727  67.7663291  10.9998705  15.7455296  66.8704384  10.6631003
  16.4766155  67.7733955  11.6336991  17.6119858  68.2000631  13.0451832
  17.3537636  69.1217702  13.0436162  17.0804898  67.8031066  13.7352296
  18.0321813  64.3332582   9.4052995  18.0543510  64.3971915   8.4504974
  18.4489872  63.4937090   9.5993501  28.4105438  74.0687841   7.4432217
  28.8536584  73.3195166   7.0451340  27.5331948  74.0597978   7.0605949
   9.1609028  72.4435984  16.7835633   8.4190764  72.5918619  17.3700264
   8.8401773  72.7044249  15.9202383  17.1052691  81.9851962  16.5816023
  17.4139817  81.7401109  17.4538723  17.9028173  82.1898600  16.0934893
  14.6471703  68.1609669  20.4776207  14.6959858  69.0371791  20.0953977
  15.1894217  67.6187062  19.9047851  25.1326548  78.7050792  19.7577344
  24.3422092  78.6874931  19.2181844  24.8959903  79.2439086  20.5126381
  25.2524423  75.5543258  17.0710073  25.3022428  75.3893266  18.0125596
  25.1438347  74.6870517  16.6807954  22.5428186  71.5374186  18.3869380
  23.4438048  71.3980651  18.0953377  22.6176160  71.7028641  19.3267557
  16.8770991  68.9141041  17.2322566  16.0074300  69.2074607  16.9605155
  17.1130471  69.4981486  17.9529830  26.7542620  77.9740200  17.3152095
  26.4627428  78.3370180  18.1515555  26.1414751  77.2607208  17.1365427
  27.9538302  75.5393080   9.8354665  28.7885194  75.9782884   9.9992225
  28.0897431  75.0631733   9.0162911  25.0029808  73.0972814  15.7832153
  25.4783930  73.2900461  14.9751004  24.0795374  73.1532000  15.5375536
  19.5810025  65.1320658  14.7487986  20.0991969  65.8681685  14.4234475
  19.2265158  65.4384651  15.5834746  19.8322619  61.5520941  10.2688883
  20.1124373  60.8844130  10.8949310  20.6173226  61.7450036   9.7563547
  23.7031477  69.9738575  14.0160458  24.6548900  70.0736672  14.0372682
  23.5334928  69.1816843  14.5258542  21.7245857  67.0594158  14.2019859
  21.1295789  67.3399170  13.5066348  21.4395554  67.5488059  14.9736600
  26.1819555  73.1944694  13.1302758  26.1495875  72.2560695  13.3162442
  26.7920179  73.2728731  12.3968583  26.3314044  69.9855738  13.1761041
  25.8153092  69.2014194  12.9890970  27.2153992  69.6574454  13.3407560
  23.9924771  63.7296753   9.1356854  23.7949592  63.4211841  10.0200186
  24.6024476  64.4558392   9.2654783  31.9996105  74.2560701  12.2708795
  32.7299493  73.9945989  12.8316498  31.3903050  73.5189423  12.3110863
  30.0811402  72.3968564  12.8683246  29.3544566  72.2624529  12.2599737
  29.6658689  72.7045392  13.6739964  17.9041579  76.1158493  20.6330619
  18.8244588  76.2937092  20.8270665  17.8691162  75.1714539  20.4810318
  17.8207869  64.5327613   5.2629088  17.0108597  64.1874698   5.6384334
  18.5092286  64.2235157   5.8516700  19.7498417  63.6105660   6.8853385
  20.3029456  64.0301114   7.5443408  19.9868504  62.6841408   6.9276341
  15.7731516  69.5992734  22.6656149  15.6728243  70.5487091  22.5968240
  15.5553058  69.2710973  21.7932219  23.1277224  65.7206185   6.3932049
  22.5475893  66.3790989   6.0110102  22.8613157  64.8983530   5.9819467
  21.5780791  65.1211243   8.5953370  22.0780569  65.2327777   7.7867688
  22.2216399  64.8172296   9.2354178  15.6362786  73.0289873  21.4821211
  15.1529868  73.8290233  21.6885100  15.7223726  73.0397817  20.5288655
  12.1535506  75.4895523  16.0860442  12.9728395  75.9839602  16.1095279
  12.4272314  74.5727491  16.0578009  21.9102102  67.8806276   5.4488397
  21.0227957  68.1655926   5.2308592  22.3256091  67.7200039   4.6015674
  25.2616638  67.9052797   9.1642737  26.0377029  68.3949249   9.4367354
  24.5364773  68.3310851   9.6214606  27.6989197  68.6180416  10.2216677
  28.2933688  68.3776152   9.5109986  27.7715781  67.8987546  10.8490214
  25.6947932  69.1850543   6.4888807  25.4384866  68.7847179   7.3197015
  25.0700800  69.8994337   6.3638946  30.0060270  71.9246617   8.9960099
  29.4459828  71.9939806   9.7691661  29.4003773  71.7487601   8.2759595
   7.4070420  69.8233657  16.7852639   8.0529284  69.3132611  17.2739864
   7.1987571  70.5602339  17.3596064  19.9323813  76.8914505  22.2844780
  20.8014972  77.0655157  21.9231415  19.4530564  77.7108922  22.1620509
  19.7426150  60.6816478   6.7922472  18.9758546  60.1274965   6.9379154
  20.1536855  60.7538347   7.6536624  11.7467911  66.9701274  20.8827653
  12.6099373  66.6138079  21.0930978  11.1733322  66.6315169  21.5703058
  31.5916288  88.6003131  11.6890054  32.2294698  88.4809878  10.9853394
  31.4737131  89.5483975  11.7478006  28.4005995  88.5530559  11.6251579
  28.0624506  88.4371623  10.7372114  29.2695763  88.1521724  11.6052585
  28.8825778  89.7065410  17.5837784  28.8714418  89.3118209  16.7118288
  29.0446417  88.9731483  18.1771556  25.6033039  92.4902522  16.5316968
  25.3122905  93.3948153  16.4163635  26.2390023  92.5319050  17.2461038
  26.5289246  89.8679371  13.1218328  27.1252818  89.6435393  12.4075291
  26.5864217  89.1264116  13.7243776  31.1457557  86.3254584   8.7643262
  31.9320646  85.9074008   8.4133679  31.4096261  87.2300677   8.9324911
  36.5465984  86.2629818   9.6676241  37.2791156  85.6929034   9.9014070
  35.7905340  85.8751418  10.1082746  34.0691404  79.9751392  14.1270849
  33.7374729  80.8446803  13.9032064  33.4737018  79.6587676  14.8064880
  30.5622924  92.1763938  13.5266762  30.2623647  93.0788977  13.4182569
  30.2173983  91.9096121  14.3787915  33.9620068  84.6946478  11.2064199
  33.0536945  84.6261886  10.9122960  33.9107663  85.1718423  12.0346025
  28.0360933  86.1136124  19.1499097  27.2594267  86.6730044  19.1401961
  28.6751496  86.5992907  19.6713967  35.8281714  82.8962916  12.9842073
  35.1856094  83.1895450  12.3381868  35.3236642  82.7815837  13.7895270
  26.2907306  88.9221577  18.7117064  27.0321990  89.4606621  18.4351887
  25.5844291  89.5487866  18.8688616  31.7662645  91.0650717  17.3089225
  32.1746001  90.6233128  16.5643858  31.0439907  90.4903345  17.5623418
  28.1193715  86.0023324  14.6822782  28.9654911  86.4262738  14.8257431
  28.0592353  85.3456948  15.3761345  32.0891460  91.6251908  11.0641514
  31.4600322  91.7897622  10.3617582  31.7017122  92.0393518  11.8352478
  35.9680692  92.5606346   8.4185878  35.2831730  92.9405247   7.8682911
  36.0524541  93.1701673   9.1517826  31.2693161  83.6627693  16.3403956
  31.0254093  84.4169753  15.8038232  31.5453091  84.0413040  17.1751203
  33.2231623  90.2066305  15.0181221  33.4348519  90.8498065  14.3415602
  33.1761372  89.3728621  14.5503151  30.8257852  82.8184126  11.9217794
  29.9642331  83.1165379  12.2134531  30.8520287  83.0354524  10.9898826
  25.0268669  86.0761225  19.5132374  24.3967330  86.7577506  19.7467771
  24.9204757  85.9644307  18.5685512  34.3377451  93.0838260  13.1903579
  35.1594895  92.6818448  12.9086260  34.3339854  92.9806494  14.1419695
  28.1034055  92.6322304  15.3464289  28.1678487  93.0942711  16.1822461
  27.3944979  92.0019669  15.4746599  42.4283444  89.4277009   9.5388550
  41.6747153  88.8584407   9.3832555  42.5630986  89.3939673  10.4859185
  24.3049412  80.3781991  21.8757625  23.9116358  79.8248189  22.5505269
  25.1215552  80.6892569  22.2664142  27.2217373  81.7939870  19.4677881
  27.9627086  82.3947023  19.3882344  27.4535296  81.0517508  18.9095924
  22.3658711  86.9796237  17.7456111  22.2512226  86.0781495  18.0463210
  21.5103229  87.2259934  17.3940928  29.4450549  94.9213978  19.3443612
  29.0014403  94.1350356  19.0264516  30.1067762  95.1093128  18.6787502
  31.5431787  95.2016778  17.3725013  31.5250262  96.0225659  16.8805282
  32.4651707  95.0770853  17.5975154  28.0004841  92.7160907  18.2148521
  28.5333178  91.9549195  17.9847829  27.4718922  92.4234559  18.9572676
  31.1674536  77.8220973  13.7442163  30.8238805  78.7122615  13.6681274
  31.5353499  77.6322631  12.8811748  28.7171930  82.6579285   7.3099837
  27.8613526  82.2686135   7.1305475  29.1298882  82.7371246   6.4499622
  30.2471076  80.1925628  11.7091396  29.7435872  80.1555763  10.8959202
  30.5401683  81.1018371  11.7688053  26.4913962  80.2764358  10.7157578
  27.3566959  80.0807167  10.3563467  26.5591471  80.0474710  11.6426935
  34.3450400  90.0395920  10.8434380  33.6874074  90.7295181  10.9314508
  35.1490799  90.4292352  11.1868366  33.1555859  88.3940293   8.8938321
  33.6687740  89.0270284   9.3960031  33.8057082  87.7941488   8.5281681
  26.3998949  79.3807815   6.8149014  25.7463361  79.0656832   6.1905629
  26.3579423  78.7583555   7.5408837  29.6336689  85.8689748  11.1396662
  28.7159251  86.0904695  10.9818350  30.0496833  85.9436059  10.2808369
  32.8650574  84.3038280   8.2518131  32.1273331  83.7915666   8.5828374
  33.1177348  83.8638662   7.4401408  32.9662202  77.0814532   8.8459901
  33.2721078  76.2211896   8.5585816  33.6914806  77.6732152   8.6458895
  27.2383281  87.3768325   9.3536092  27.2931891  86.4242162   9.2778568
  26.4274483  87.5327764   9.8377390  30.7749853  86.4587209  15.9441365
  31.1299241  86.6858683  16.8035830  31.4221984  86.7905586  15.3218620
  24.6689716  83.5663740  12.7287706  25.3089095  83.4252500  12.0310669
  23.8367247  83.2798254  12.3526308  36.5316970  91.6482172  11.6601965
  36.9653476  91.5557461  12.5085019  37.2448550  91.6239673  11.0221981
  30.2644864  95.2484266  13.1935066  30.3181887  95.8175203  13.9612782
  29.3959646  95.4186151  12.8289103  37.3932519  91.6905873  14.1934850
  37.5868409  92.5951683  14.4394125  37.2933137  91.2313292  15.0273436
  29.0468830  81.5763764  16.6925178  28.3996745  82.2753713  16.5989654
  29.8169845  82.0099907  17.0601426  32.4547628  91.8412616  19.7675731
  32.3033134  91.6123167  18.8505815  32.4452307  92.7983217  19.7807076
  29.2232964  89.4144528  14.7521998  30.1525024  89.5655688  14.5790965
  28.8023994  89.5028549  13.8970644  23.5470755  88.2244426  15.4361954
  23.4090553  87.4924664  16.0373493  24.4575679  88.1353326  15.1546142
  26.1753056  87.9364385  14.9245634  26.8852674  87.2957577  14.8832252
  26.1322364  88.1877280  15.8471815  34.1639834  94.8731738  17.8452213
  34.1052381  94.1890958  17.1782796  34.5659353  95.6150728  17.3932839
  24.8881990  84.9229603  16.7441273  24.3519347  84.4720341  17.3962870
  24.2998698  85.0575512  16.0011738  34.1657242  92.8371322  16.0766193
  33.2784020  92.4997244  16.1992592  34.7355793  92.1054353  16.3134958
  20.6221111  84.0585611  13.8294268  20.5379300  83.4511280  13.0944678
  19.8003817  84.5494629  13.8303764  30.7944825  82.5439174   9.1964463
  31.2913524  81.7909136   8.8765533  30.0231806  82.5803491   8.6307672
  38.6474582  88.2479540  10.8382754  38.6364459  89.1304255  10.4676687
  37.7791962  87.8951090  10.6437291  27.3779794  84.6856557   8.9236147
  27.0077581  84.1327597   9.6117053  27.8738886  84.0814691   8.3711147
  35.2647157  87.1428181   7.3052920  35.7307609  87.9756172   7.2313223
  35.7154657  86.6773162   8.0098179  33.2363820  79.5108768  11.3443822
  32.3226899  79.7412994  11.5126029  33.6656921  79.5947212  12.1957854
  33.0070278  87.6998660  13.8443716  32.3541728  87.9474567  13.1896168
  33.3850658  86.8862798  13.5106193  29.0557851  88.4418471  20.3309753
  28.3798488  88.3412600  21.0012128  29.8785485  88.2857684  20.7945750
  22.7745127  82.0960548  15.1689253  22.8386454  82.9575379  14.7566651
  22.7112248  81.4834549  14.4361612  22.2497400  84.1683680  18.8162288
  22.8769439  83.7860758  19.4299812  21.3925319  83.9497882  19.1817980
  32.6491508  94.5746656  20.4216023  33.1931412  95.1876614  19.9270978
  32.0678353  95.1326234  20.9383036  32.9983930  95.4976394  13.1810601
  32.0514265  95.3781745  13.1088928  33.3466703  94.6098892  13.2636862
  25.3583503  81.3870533  17.0048843  25.8817905  81.6332829  17.7675152
  25.1395836  82.2190567  16.5851980  33.6064485  96.1157669  10.4679826
  34.5311032  95.9100530  10.3304277  33.4379788  95.8674070  11.3769167
  26.5636048  82.3284228  14.6898513  26.2232868  81.5292041  15.0919193
  25.8575054  82.6285938  14.1175347  27.2152520  79.4133540  13.1425836
  28.0378589  78.9394018  13.0204727  27.4590583  80.1924024  13.6424523
  26.5987482  83.0955209  10.9998705  26.5849050  82.1996302  10.6631003
  27.3159910  83.1025872  11.6336991  28.4513612  83.5292549  13.0451832
  28.1931390  84.4509620  13.0436162  27.9198653  83.1322983  13.7352296
  28.8715568  79.6624499   9.4052995  28.8937265  79.7263833   8.4504974
  29.2883627  78.8229008   9.5993501  39.2499192  89.3979759   7.4432217
  39.6930338  88.6487084   7.0451340  38.3725703  89.3889895   7.0605949
  20.0002783  87.7727901  16.7835633  19.2584519  87.9210537  17.3700264
  19.6795527  88.0336167  15.9202383  25.4865457  83.4901586  20.4776207
  25.5353613  84.3663709  20.0953977  26.0287971  82.9478979  19.9047851
  35.9720303  94.0342710  19.7577344  35.1815846  94.0166848  19.2181844
  35.7353657  94.5731003  20.5126381  36.0918178  90.8835176  17.0710073
  36.1416183  90.7185183  18.0125596  35.9832101  90.0162435  16.6807954
  33.3821940  86.8666104  18.3869380  34.2831803  86.7272569  18.0953377
  33.4569915  87.0320559  19.3267557  27.7164745  84.2432959  17.2322566
  26.8468055  84.5366525  16.9605155  27.9524226  84.8273404  17.9529830
  37.5936375  93.3032117  17.3152095  37.3021183  93.6662098  18.1515555
  36.9808506  92.5899126  17.1365427  38.7932057  90.8684997   9.8354665
  39.6278948  91.3074801   9.9992225  38.9291186  90.3923650   9.0162911
  35.8423563  88.4264732  15.7832153  36.3177684  88.6192378  14.9751004
  34.9189128  88.4823918  15.5375536  30.4203779  80.4612576  14.7487986
  30.9385723  81.1973603  14.4234475  30.0658912  80.7676569  15.5834746
  30.6716373  76.8812858  10.2688883  30.9518127  76.2136047  10.8949310
  31.4566980  77.0741954   9.7563547  34.5425232  85.3030492  14.0160458
  35.4942655  85.4028590  14.0372682  34.3728682  84.5108761  14.5258542
  32.5639611  82.3886075  14.2019859  31.9689543  82.6691088  13.5066348
  32.2789308  82.8779976  14.9736600  37.0213310  88.5236612  13.1302758
  36.9889630  87.5852613  13.3162442  37.6313933  88.6020649  12.3968583
  37.1707798  85.3147655  13.1761041  36.6546847  84.5306112  12.9890970
  38.0547747  84.9866372  13.3407560  34.8318525  79.0588671   9.1356854
  34.6343346  78.7503759  10.0200186  35.4418231  79.7850310   9.2654783
  42.8389859  89.5852619  12.2708795  43.5693248  89.3237907  12.8316498
  42.2296805  88.8481341  12.3110863  40.9205157  87.7260481  12.8683246
  40.1938320  87.5916446  12.2599737  40.5052443  88.0337310  13.6739964
  28.7435333  91.4450411  20.6330619  29.6638342  91.6229010  20.8270665
  28.7084916  90.5006456  20.4810318  28.6601623  79.8619531   5.2629088
  27.8502352  79.5166616   5.6384334  29.3486040  79.5527075   5.8516700
  30.5892172  78.9397578   6.8853385  31.1423210  79.3593031   7.5443408
  30.8262258  78.0133326   6.9276341  26.6125271  84.9284651  22.6656149
  26.5121998  85.8779008  22.5968240  26.3946813  84.6002890  21.7932219
  33.9670979  81.0498103   6.3932049  33.3869648  81.7082907   6.0110102
  33.7006911  80.2275448   5.9819467  32.4174545  80.4503161   8.5953370
  32.9174323  80.5619695   7.7867688  33.0610153  80.1464213   9.2354178
  26.4756541  88.3581790  21.4821211  25.9923623  89.1582150  21.6885100
  26.5617480  88.3689735  20.5288655  22.9929261  90.8187441  16.0860442
  23.8122150  91.3131520  16.1095279  23.2666068  89.9019409  16.0578009
  32.7495857  83.2098193   5.4488397  31.8621712  83.4947844   5.2308592
  33.1649846  83.0491957   4.6015674  36.1010393  83.2344714   9.1642737
  36.8770783  83.7241167   9.4367354  35.3758527  83.6602768   9.6214606
  38.5382952  83.9472334  10.2216677  39.1327442  83.7068069   9.5109986
  38.6109535  83.2279464  10.8490214  36.5341686  84.5142461   6.4888807
  36.2778621  84.1139097   7.3197015  35.9094554  85.2286255   6.3638946
  40.8454024  87.2538534   8.9960099  40.2853582  87.3231724   9.7691661
  40.2397528  87.0779519   8.2759595  18.2464175  85.1525575  16.7852639
  18.8923038  84.6424529  17.2739864  18.0381326  85.8894257  17.3596064
  30.7717567  92.2206422  22.2844780  31.6408727  92.3947075  21.9231415
  30.2924318  93.0400839  22.1620509  30.5819905  76.0108396   6.7922472
  29.8152301  75.4566883   6.9379154  30.9930610  76.0830265   7.6536624
  22.5861666  82.2993192  20.8827653  23.4493127  81.9429997  21.0930978
  22.0127076  81.9607087  21.5703058  44.9085159  95.3043309  14.1270849
  44.5768483  96.1738720  13.9032064  44.3130772  94.9879593  14.8064880
  42.1086915  98.9919610  16.3403956  41.8647847  99.7461671  15.8038232
  42.3846846  99.3704958  17.1751203  35.1443167  95.7073909  21.8757625
  34.7510112  95.1540107  22.5505269  35.9609307  96.0184487  22.2664142
  38.0611128  97.1231788  19.4677881  38.8020841  97.7238941  19.3882344
  38.2929050  96.3809425  18.9095924  42.0068291  93.1512891  13.7442163
  41.6632560  94.0414532  13.6681274  42.3747253  92.9614548  12.8811748
  37.3307717  95.6056276  10.7157578  38.1960714  95.4099084  10.3563467
  37.3985226  95.3766627  11.6426935  39.8862584  96.9055681  16.6925178
  39.2390499  97.6045631  16.5989654  40.6563600  97.3391825  17.0601426
  36.1977258  96.7162450  17.0048843  36.7211659  96.9624747  17.7675152
  35.9789591  97.5482485  16.5851980  37.4029803  97.6576145  14.6898513
  37.0626623  96.8583958  15.0919193  36.6968809  97.9577856  14.1175347
  38.0546274  94.7425458  13.1425836  38.8772344  94.2685936  13.0204727
  38.2984338  95.5215942  13.6424523  41.2597534  95.7904493  14.7487986
  41.7779478  96.5265520  14.4234475  40.9052667  96.0968487  15.5834746
  18.0432024  51.3835615   4.3083091  18.0320665  50.9888414   3.4363595
  18.2052664  50.6501688   4.9016863  14.7639285  54.1672727   3.2562275
  14.4729151  55.0718358   3.1408941  15.3996270  54.2089255   3.9706345
  19.7229171  53.8534143   0.2512069  19.4229894  54.7559182   0.1427876
  19.3780230  53.5866326   1.1033222  17.1967180  47.7906328   5.8744403
  16.4200514  48.3500249   5.8647268  17.8357743  48.2763111   6.3959274
  15.4513552  50.5991782   5.4362370  16.1928237  51.1376826   5.1597194
  14.7450538  51.2258071   5.5933922  20.9268892  52.7420922   4.0334532
  21.3352248  52.3003333   3.2889164  20.2046154  52.1673550   4.2868725
  22.3837870  51.8836510   1.7426528  22.5954765  52.5268270   1.0660909
  22.3367618  51.0498826   1.2748458  23.4983698  54.7608465  -0.0851115
  24.3201142  54.3588652  -0.3668433  23.4946101  54.6576699   0.8665001
  17.2640302  54.3092509   2.0709596  17.3284734  54.7712916   2.9067768
  16.5551225  53.6789873   2.1991906  18.6056796  56.5984183   6.0688918
  18.1620650  55.8120561   5.7509823  19.2674009  56.7863333   5.4032809
  20.7038034  56.8786982   4.0970320  20.6856509  57.6995863   3.6050589
  21.6257954  56.7541058   4.3220461  17.1611088  54.3931112   4.9393828
  17.6939425  53.6319400   4.7093136  16.6325169  54.1004764   5.6817982
  25.6923216  53.3252377  -1.6152728  26.1259723  53.2327666  -0.7669674
  26.4054797  53.3009878  -2.2532712  19.4251111  56.9254471  -0.0819628
  19.4788134  57.4945408   0.6858088  18.5565893  57.0956356  -0.4465591
  26.5538766  53.3676078   0.9180157  26.7474656  54.2721888   1.1639432
  26.4539384  52.9083497   1.7518742  21.6153875  53.5182821   6.4921038
  21.4639381  53.2893372   5.5751121  21.6058554  54.4753422   6.5052383
  23.3246081  56.5501943   4.5697520  23.2658627  55.8661163   3.9028103
  23.7265600  57.2920933   4.1178146  23.3263488  54.5141527   2.8011499
  22.4390267  54.1767449   2.9237898  23.8962040  53.7824558   3.0380265
  19.3163325  59.0729814   1.9230901  20.0291298  59.7077278   1.8506803
  18.8253354  59.1693680   1.1070903  18.2164098  50.1188675   7.0555059
  17.5404735  50.0182805   7.7257435  19.0391732  49.9627889   7.5191057
  21.8097755  56.2516860   7.1461330  22.3537659  56.8646819   6.6516285
  21.2284600  56.8096439   7.6628343  22.1590176  57.1746599  -0.0944092
  21.2120512  57.0551950  -0.1665766  22.5072950  56.2869097  -0.0117831
  22.7670732  57.7927873  -2.8074867  23.6917279  57.5870735  -2.9450416
  22.5986035  57.5444275  -1.8985526  17.1052692  58.9914085   3.3061330
  17.4139819  58.7463231   4.1784029  17.9028174  59.1960723   2.8180200
  25.1326550  55.7112915   6.4822651  24.3422093  55.6937053   5.9427150
  24.8959904  56.2501208   7.2371688  25.2524425  52.5605381   3.7955380
  25.3022429  52.3955388   4.7370902  25.1438348  51.6932640   3.4053260
  22.5428187  48.5436309   5.1114686  23.4438050  48.4042774   4.8198684
  22.6176161  48.7090764   6.0512864  26.7542621  54.9802322   4.0397401
  26.4627430  55.3432303   4.8760862  26.1414753  54.2669331   3.8610733
  25.0029810  50.1034937   2.5077459  25.4783931  50.2962583   1.6996311
  24.0795375  50.1594123   2.2620843  26.1819556  50.2006817  -0.1451936
  26.1495877  49.2622818   0.0407748  26.7920180  50.2790854  -0.8786111
  31.9996106  51.2622824  -1.0045899  32.7299495  51.0008112  -0.4438195
  31.3903052  50.5251546  -0.9643831  30.0811403  49.4030686  -0.4071448
  29.3544567  49.2686651  -1.0154956  29.6658690  49.7107515   0.3985270
  17.9041580  53.1220616   7.3575925  18.8244589  53.2999215   7.5515972
  17.8691163  52.1776661   7.2055625  15.7731518  46.6054856   9.3901456
  15.6728245  47.5549213   9.3213547  15.5553060  46.2773095   8.5177526
  15.6362788  50.0351995   8.2066517  15.1529869  50.8352355   8.4130406
  15.7223727  50.0459940   7.2533961  19.9323814  53.8976627   9.0090086
  20.8014973  54.0717280   8.6476721  19.4530565  54.7171044   8.8865816
  31.5916289  65.6065253  -1.5864639  32.2294699  65.4872001  -2.2901299
  31.4737132  66.5546097  -1.5276687  28.4005996  65.5592681  -1.6503114
  28.0624507  65.4433746  -2.5382580  29.2695764  65.1583846  -1.6702108
  28.8825779  66.7127533   4.3083091  28.8714420  66.3180331   3.4363595
  29.0446418  65.9793606   4.9016863  25.6033040  69.4964645   3.2562275
  25.3122906  70.4010276   3.1408941  26.2390024  69.5381172   3.9706345
  26.5289247  66.8741493  -0.1536365  27.1252819  66.6497516  -0.8679402
  26.5864218  66.1326239   0.4489083  31.1457558  63.3316707  -4.5111431
  31.9320647  62.9136130  -4.8621014  31.4096262  64.2362799  -4.3429783
  36.5465985  63.2691940  -3.6078453  37.2791157  62.6991157  -3.3740623
  35.7905341  62.8813541  -3.1671947  34.0691405  56.9813514   0.8516156
  33.7374730  57.8508925   0.6277371  33.4737019  56.6649798   1.5310186
  30.5622925  69.1826060   0.2512069  30.2623648  70.0851099   0.1427876
  30.2173985  68.9158244   1.1033222  33.9620069  61.7008601  -2.0690494
  33.0536946  61.6324009  -2.3631733  33.9107665  62.1780545  -1.2408668
  28.0360935  63.1198246   5.8744403  27.2594269  63.6792166   5.8647268
  28.6751498  63.6055029   6.3959274  35.8281715  59.9025039  -0.2912620
  35.1856095  60.1957572  -0.9372825  35.3236644  59.7877959   0.5140577
  26.2907307  65.9283700   5.4362370  27.0321991  66.4668743   5.1597194
  25.5844292  66.5549988   5.5933922  31.7662647  68.0712840   4.0334532
  32.1746003  67.6295250   3.2889164  31.0439908  67.4965467   4.2868725
  28.1193717  63.0085447   1.4068089  28.9654912  63.4324860   1.5502738
  28.0592354  62.3519071   2.1006652  32.0891461  68.6314031  -2.2113179
  31.4600324  68.7959745  -2.9137111  31.7017123  69.0455640  -1.4402215
  35.9680693  69.5668468  -4.8568815  35.2831731  69.9467370  -5.4071782
  36.0524542  70.1763795  -4.1236868  31.2693162  60.6689815   3.0649262
  31.0254094  61.4231876   2.5283538  31.5453092  61.0475163   3.8996510
  33.2231625  67.2128427   1.7426528  33.4348520  67.8560187   1.0660909
  33.1761373  66.3790744   1.2748458  30.8257854  59.8246248  -1.3536900
  29.9642333  60.1227502  -1.0620162  30.8520288  60.0416647  -2.2855867
  25.0268671  63.0823348   6.2377680  24.3967331  63.7639629   6.4713077
  24.9204759  62.9706429   5.2930819  34.3377453  70.0900383  -0.0851115
  35.1594896  69.6880570  -0.3668433  34.3339855  69.9868617   0.8665001
  28.1034056  69.6384426   2.0709596  28.1678489  70.1004833   2.9067768
  27.3944980  69.0081791   2.1991906  42.4283446  66.4339131  -3.7366143
  41.6747154  65.8646529  -3.8922139  42.5630987  66.4001796  -2.7895508
  24.3049413  57.3844114   8.6002931  23.9116359  56.8310312   9.2750576
  25.1215554  57.6954692   8.9909449  27.2217374  58.8001993   6.1923188
  27.9627088  59.4009146   6.1127650  27.4535297  58.0579630   5.6341231
  22.3658712  63.9858360   4.4701418  22.2512227  63.0843617   4.7708517
  21.5103230  64.2322057   4.1186234  29.4450550  71.9276100   6.0688918
  29.0014404  71.1412479   5.7509823  30.1067764  72.1155251   5.4032809
  31.5431788  72.2078900   4.0970320  31.5250264  73.0287781   3.6050589
  32.4651708  72.0832975   4.3220461  28.0004842  69.7223030   4.9393828
  28.5333179  68.9611318   4.7093136  27.4718923  69.4296681   5.6817982
  31.1674537  54.8283096   0.4687470  30.8238807  55.7184737   0.3926580
  31.5353500  54.6384753  -0.3942945  28.7171931  59.6641407  -5.9654857
  27.8613527  59.2748258  -6.1449218  29.1298883  59.7433368  -6.8255071
  30.2471078  57.1987751  -1.5663297  29.7435873  57.1617886  -2.3795492
  30.5401685  58.1080493  -1.5066640  26.4913964  57.2826480  -2.5597115
  27.3566960  57.0869289  -2.9191226  26.5591472  57.0536832  -1.6327759
  34.3450401  67.0458043  -2.4320314  33.6874075  67.7357304  -2.3440185
  35.1490800  67.4354475  -2.0886327  33.1555860  65.4002415  -4.3816372
  33.6687742  66.0332407  -3.8794662  33.8057084  64.8003611  -4.7473012
  29.6336691  62.8751871  -2.1358031  28.7159252  63.0966818  -2.2936343
  30.0496834  62.9498181  -2.9946324  32.8650576  61.3100403  -5.0236562
  32.1273332  60.7977789  -4.6926319  33.1177349  60.8700784  -5.8353285
  32.9662203  54.0876655  -4.4294793  33.2721080  53.2274018  -4.7168878
  33.6914808  54.6794275  -4.6295799  27.2383283  64.3830448  -3.9218602
  27.2931892  63.4304284  -3.9976125  26.4274485  64.5389887  -3.4377303
  30.7749854  63.4649332   2.6686671  31.1299242  63.6920805   3.5281137
  31.4221986  63.7967709   2.0463926  24.6689717  60.5725863  -0.5466988
  25.3089097  60.4314622  -1.2444024  23.8367248  60.2860376  -0.9228386
  36.5316971  68.6544295  -1.6152728  36.9653477  68.5619584  -0.7669674
  37.2448552  68.6301795  -2.2532712  30.2644866  72.2546389  -0.0819628
  30.3181888  72.8237325   0.6858088  29.3959647  72.4248274  -0.4465591
  23.1443259  61.9563945   1.4004824  23.8166313  61.7481307   0.7517473
  22.3173046  61.7586031   0.9610056  37.3932520  68.6967996   0.9180157
  37.5868410  69.6013806   1.1639432  37.2933139  68.2375415   1.7518742
  29.0468831  58.5825886   3.4170484  28.3996746  59.2815836   3.3234961
  29.8169847  59.0162030   3.7846733  32.4547629  68.8474738   6.4921038
  32.3033135  68.6185290   5.5751121  32.4452309  69.8045340   6.5052383
  29.2232965  66.4206651   1.4767304  30.1525025  66.5717811   1.3036271
  28.8023995  66.5090672   0.6215951  23.5470756  65.2306548   2.1607261
  23.4090554  64.4986787   2.7618800  24.4575680  65.1415448   1.8791449
  26.1753057  64.9426508   1.6490940  26.8852676  64.3019700   1.6077559
  26.1322365  65.1939402   2.5717121  34.1639836  71.8793861   4.5697520
  34.1052382  71.1953081   3.9028103  34.5659354  72.6212851   4.1178146
  24.8881991  61.9291725   3.4686580  24.3519348  61.4782464   4.1208176
  24.2998699  62.0637634   2.7257044  34.1657243  69.8433445   2.8011499
  33.2784022  69.5059367   2.9237898  34.7355794  69.1116476   3.0380265
  20.6221112  61.0647733   0.5539574  20.5379301  60.4573403  -0.1810016
  19.8003819  61.5556751   0.5549071  30.7944826  59.5501297  -4.0790231
  31.2913526  58.7971259  -4.3989160  30.0231808  59.5865613  -4.6447021
  38.6474584  65.2541662  -2.4371939  38.6364460  66.1366378  -2.8078006
  37.7791963  64.9013213  -2.6317402  30.1557080  74.4021731   1.9230901
  30.8685052  75.0369196   1.8506803  29.6647109  74.4985597   1.1070903
  27.3779795  61.6918680  -4.3518546  27.0077582  61.1389720  -3.6637640
  27.8738887  61.0876813  -4.9043546  35.2647158  64.1490303  -5.9701773
  35.7307610  64.9818295  -6.0441470  35.7154659  63.6835285  -5.2656515
  33.2363821  56.5170890  -1.9310872  32.3226901  56.7475117  -1.7628665
  33.6656922  56.6009334  -1.0796839  33.0070279  64.7060782   0.5689022
  32.3541730  64.9536690  -0.0858525  33.3850659  63.8924920   0.2351500
  29.0557852  65.4480593   7.0555059  28.3798489  65.3474722   7.7257435
  29.8785486  65.2919807   7.5191057  22.7745129  59.1022670   1.8934560
  22.8386455  59.9637501   1.4811958  22.7112249  58.4896672   1.1606919
  22.2497401  61.1745803   5.5407594  22.8769440  60.7922880   6.1545119
  21.3925320  60.9560005   5.9063287  32.6491510  71.5808778   7.1461330
  33.1931414  72.1938736   6.6516285  32.0678354  72.1388357   7.6628343
  32.9983931  72.5038516  -0.0944092  32.0514266  72.3843867  -0.1665766
  33.3466704  71.6161014  -0.0117831  25.3583504  58.3932655   3.7294150
  25.8817906  58.6394952   4.4920459  25.1395838  59.2252690   3.3097287
  33.6064486  73.1219791  -2.8074867  34.5311034  72.9162653  -2.9450416
  33.4379789  72.8736192  -1.8985526  26.5636049  59.3346350   1.4143820
  26.2232870  58.5354163   1.8164500  25.8575056  59.6348061   0.8420653
  27.2152521  56.4195663  -0.1328857  28.0378591  55.9456141  -0.2549967
  27.4590585  57.1986146   0.3669829  26.5987483  60.1017331  -2.2755989
  26.5849052  59.2058425  -2.6123691  27.3159911  60.1087995  -1.6417703
  28.4513614  60.5354672  -0.2302861  28.1931391  61.4571742  -0.2318531
  27.9198654  60.1385106   0.4597603  28.8715569  56.6686622  -3.8701699
  28.8937266  56.7325955  -4.8249719  29.2883628  55.8291131  -3.6761193
  20.0002784  64.7790024   3.5080940  19.2584520  64.9272659   4.0945570
  19.6795528  65.0398290   2.6447689  27.9446447  74.3206002   3.3061330
  28.2533573  74.0755149   4.1784029  28.7421929  74.5252641   2.8180200
  25.4865458  60.4963709   7.2021514  25.5353614  61.3725832   6.8199284
  26.0287973  59.9541102   6.6293157  35.9720304  71.0404832   6.4822651
  35.1815848  71.0228971   5.9427150  35.7353659  71.5793126   7.2371688
  36.0918179  67.8897299   3.7955380  36.1416184  67.7247306   4.7370902
  35.9832102  67.0224558   3.4053260  33.3821941  63.8728227   5.1114686
  34.2831804  63.7334691   4.8198684  33.4569916  64.0382681   6.0512864
  27.7164747  61.2495081   3.9567873  26.8468056  61.5428647   3.6850461
  27.9524227  61.8335526   4.6775136  37.5936376  70.3094240   4.0397401
  37.3021184  70.6724221   4.8760862  36.9808507  69.5961248   3.8610733
  38.7932058  67.8747120  -3.4400029  39.6278950  68.3136924  -3.2762468
  38.9291187  67.3985773  -4.2591783  35.8423564  65.4326855   2.5077459
  36.3177686  65.6254501   1.6996311  34.9189129  65.4886041   2.2620843
  30.4203781  57.4674698   1.4733293  30.9385724  58.2035725   1.1479782
  30.0658913  57.7738692   2.3080052  30.6716375  53.8874981  -3.0065810
  30.9518129  53.2198170  -2.3805384  31.4566982  54.0804076  -3.5191147
  34.5425233  62.3092615   0.7405765  35.4942656  62.4090712   0.7617989
  34.3728684  61.5170883   1.2503849  32.5639613  59.3948198   0.9265166
  31.9689545  59.6753211   0.2311654  32.2789309  59.8842099   1.6981907
  37.0213311  65.5298734  -0.1451936  36.9889631  64.5914735   0.0407748
  37.6313935  65.6082771  -0.8786111  37.1707799  62.3209778  -0.0993652
  36.6546848  61.5368235  -0.2863724  38.0547748  61.9928495   0.0652867
  34.8318526  56.0650793  -4.1397840  34.6343347  55.7565882  -3.2554508
  35.4418232  56.7912432  -4.0099910  42.8389861  66.5914741  -1.0045899
  43.5693249  66.3300029  -0.4438195  42.2296806  65.8543463  -0.9643831
  40.9205158  64.7322604  -0.4071448  40.1938321  64.5978569  -1.0154956
  40.5052445  65.0399433   0.3985270  28.7435334  68.4512534   7.3575925
  29.6638344  68.6291133   7.5515972  28.7084917  67.5068579   7.2055625
  26.6125272  61.9346774   9.3901456  26.5121999  62.8841131   9.3213547
  26.3946814  61.6065013   8.5177526  33.9670980  58.0560226  -6.8822644
  33.3869649  58.7145030  -7.2644592  33.7006913  57.2337570  -7.2935227
  32.4174546  57.4565283  -4.6801324  32.9174325  57.5681818  -5.4887005
  33.0610154  57.1526336  -4.0400515  26.4756542  65.3643913   8.2066517
  25.9923624  66.1644273   8.4130406  26.5617481  65.3751858   7.2533961
  22.9929262  67.8249564   2.8105749  23.8122151  68.3193642   2.8340586
  23.2666070  66.9081532   2.7823316  32.7495858  60.2160316  -7.8266296
  31.8621713  60.5009967  -8.0446101  33.1649847  60.0554079  -8.6739019
  36.1010394  60.2406837  -4.1111957  36.8770784  60.7303289  -3.8387340
  35.3758528  60.6664891  -3.6540087  38.5382953  60.9534456  -3.0538016
  39.1327444  60.7130192  -3.7644708  38.6109536  60.2341587  -2.4264480
  36.5341688  61.5204584  -6.7865886  36.2778622  61.1201219  -5.9557679
  35.9094556  62.2348378  -6.9115747  40.8454026  64.2600657  -4.2794595
  40.2853584  64.3293846  -3.5063033  40.2397529  64.0841642  -4.9995099
  18.2464176  62.1587697   3.5097946  18.8923040  61.6486651   3.9985171
  18.0381327  62.8956379   4.0841371  30.7717568  69.2268545   9.0090086
  31.6408728  69.4009197   8.6476721  30.2924320  70.0462962   8.8865816
  22.5861667  59.3055315   7.6072960  23.4493129  58.9492119   7.8176284
  22.0127078  58.9669209   8.2948364  39.7219533  82.0419451   4.3083091
  39.7108174  81.6472249   3.4363595  39.8840173  81.3085523   4.9016863
  44.9085160  72.3105432   0.8516156  44.5768485  73.1800843   0.6277371
  44.3130773  71.9941716   1.5310186  38.8754689  78.4490164   5.8744403
  38.0988023  79.0084084   5.8647268  39.5145252  78.9346947   6.3959274
  37.1301061  81.2575617   5.4362370  37.8715746  81.7960661   5.1597194
  36.4238047  81.8841906   5.5933922  38.9587471  78.3377364   1.4068089
  39.8048666  78.7616778   1.5502738  38.8986109  77.6810989   2.1006652
  42.1086916  75.9981733   3.0649262  41.8647848  76.7523793   2.5283538
  42.3846847  76.3767080   3.8996510  35.8662425  78.4115265   6.2377680
  35.2361086  79.0931546   6.4713077  35.7598513  78.2998347   5.2930819
  35.1443168  72.7136031   8.6002931  34.7510113  72.1602230   9.2750576
  35.9609308  73.0246610   8.9909449  38.0611129  74.1293910   6.1923188
  38.8020842  74.7301063   6.1127650  38.2929052  73.3871548   5.6341231
  33.2052467  79.3150278   4.4701418  33.0905982  78.4135535   4.7708517
  32.3496985  79.5613974   4.1186234  38.8398597  85.0514947   4.9393828
  39.3726934  84.2903235   4.7093136  38.3112678  84.7588599   5.6817982
  42.0068292  70.1575013   0.4687470  41.6632561  71.0476655   0.3926580
  42.3747254  69.9676671  -0.3942945  37.3307718  72.6118398  -2.5597115
  38.1960715  72.4161207  -2.9191226  37.3985227  72.3828750  -1.6327759
  35.5083472  75.9017781  -0.5466988  36.1482851  75.7606540  -1.2444024
  34.6761002  75.6152294  -0.9228386  33.9837014  77.2855863   1.4004824
  34.6560067  77.0773225   0.7517473  33.1566800  77.0877949   0.9610056
  39.8862586  73.9117804   3.4170484  39.2390501  74.6107753   3.3234961
  40.6563601  74.3453948   3.7846733  43.2941384  84.1766656   6.4921038
  43.1426890  83.9477208   5.5751121  43.2846063  85.1337257   6.5052383
  34.3864511  80.5598466   2.1607261  34.2484309  79.8278705   2.7618800
  35.2969434  80.4707366   1.8791449  37.0146812  80.2718425   1.6490940
  37.7246430  79.6311617   1.6077559  36.9716120  80.5231320   2.5717121
  35.7275746  77.2583643   3.4686580  35.1913103  76.8074382   4.1208176
  35.1392454  77.3929552   2.7257044  31.4614867  76.3939651   0.5539574
  31.3773055  75.7865320  -0.1810016  30.6397573  76.8848669   0.5549071
  39.8951607  80.7772511   7.0555059  39.2192244  80.6766640   7.7257435
  40.7179241  80.6211725   7.5191057  33.6138883  74.4314588   1.8934560
  33.6780210  75.2929419   1.4811958  33.5506003  73.8188590   1.1606919
  33.0891156  76.5037721   5.5407594  33.7163194  76.1214798   6.1545119
  32.2319074  76.2851923   5.9063287  36.1977259  73.7224573   3.7294150
  36.7211661  73.9686869   4.4920459  35.9789592  74.5544608   3.3097287
  37.4029804  74.6638268   1.4143820  37.0626624  73.8646081   1.8164500
  36.6968810  74.9639979   0.8420653  38.0546276  71.7487580  -0.1328857
  38.8772345  71.2748059  -0.2549967  38.2984339  72.5278064   0.3669829
  39.2907368  75.8646589  -0.2302861  39.0325146  76.7863660  -0.2318531
  38.7592408  75.4677024   0.4597603  30.8396538  80.1081942   3.5080940
  30.0978275  80.2564577   4.0945570  30.5189283  80.3690207   2.6447689
  36.3259213  75.8255627   7.2021514  36.3747368  76.7017749   6.8199284
  36.8681727  75.2833020   6.6293157  44.2215696  79.2020144   5.1114686
  45.1225559  79.0626609   4.8198684  44.2963670  79.3674599   6.0512864
  38.5558501  76.5786999   3.9567873  37.6861811  76.8720565   3.6850461
  38.7917982  77.1627444   4.6775136  41.2597535  72.7966616   1.4733293
  41.7779479  73.5327643   1.1479782  40.9052668  73.1030609   2.3080052
  39.5829089  83.7804451   7.3575925  40.5032098  83.9583050   7.5515972
  39.5478672  82.8360497   7.2055625  37.4519027  77.2638692   9.3901456
  37.3515754  78.2133049   9.3213547  37.2340569  76.9356931   8.5177526
  37.3150297  80.6935831   8.2066517  36.8317378  81.4936191   8.4130406
  37.4011236  80.7043775   7.2533961  33.8323016  83.1541481   2.8105749
  34.6515905  83.6485560   2.8340586  34.1059824  82.2373449   2.7823316
  29.0857931  77.4879615   3.5097946  29.7316794  76.9778569   3.9985171
  28.8775082  78.2248297   4.0841371  41.6111323  84.5560463   9.0090086
  42.4802482  84.7301115   8.6476721  41.1318074  85.3754879   8.8865816
  33.4255422  74.6347232   7.6072960  34.2886883  74.2784037   7.8176284
  32.8520832  74.2961127   8.2948364  39.7219535  59.0481573  -8.9671602
  39.7108175  58.6534372  -9.8391099  39.8840174  58.3147646  -8.3737831
  38.8754690  55.4552286  -7.4010290  38.0988024  56.0146207  -7.4107425
  39.5145253  55.9409069  -6.8795420  37.1301063  58.2637740  -7.8392323
  37.8715747  58.8022784  -8.1157499  36.4238048  58.8904029  -7.6820771
  38.8398598  62.0577070  -8.3360865  39.3726935  61.2965358  -8.5661557
  38.3112679  61.7650722  -7.5936711  39.8951608  57.7834633  -6.2199634
  39.2192245  57.6828763  -5.5497259  40.7179242  57.6273847  -5.7563637
  39.5829090  60.7866574  -5.9178768  40.5032099  60.9645173  -5.7238721
  39.5478673  59.8422619  -6.0699069  37.4519028  54.2700814  -3.8853238
  37.3515755  55.2195171  -3.9541147  37.2340570  53.9419053  -4.7577168
  37.3150298  57.6997953  -5.0688176  36.8317380  58.4998313  -4.8624287
  37.4011237  57.7105898  -6.0220732  41.6111324  61.5622585  -4.2664607
  42.4802484  61.7363238  -4.6277972  41.1318075  62.3817002  -4.3888878
 100.5529038 100.5529038 100.5529038 109.4712190 109.4712190 109.4712190
