%VERSION  VERSION_STAMP = V0001.000  DATE = 06/04/26  13:44:56
%FLAG TITLE
%FORMAT(20a4)
default_name
%FLAG POINTERS
%FORMAT(10I8)
      96      29      51      48     116      67     218     128       0       0
     550       1      48      67     128      16      33      44      51       0
       0       0       0       0       0       0       0       0      96       0
       0
%FLAG ATOM_NAME
%FORMAT(20a4)
C22 H39 C23 H38 C24 H37 N5  C25 H36 C35 C19 H4  H5  C34 H6  H7  C21 O2  N1  C6  
C5  H25 H26 H23 H24 C1  H16 H50 C2  C3  O3  N2  C26 C4  H27 H28 H29 C27 H33 H34 
H35 C28 H30 H31 H32 H22 H44 N3  C7  H17 H18 C8  O4  H20 H51 C9  H14 H15 C10 C11 
C12 C13 C29 C30 C14 C15 H43 H45 H46 H47 H48 H12 H13 H49 C16 O5  N4  H21 C17 H42 
C20 C33 H1  H2  H3  H40 C32 H8  H9  C18 H10 H11 C31 H41 O1  H19 
%FLAG CHARGE
%FORMAT(5E16.8)
  4.36059639E-02  2.33888687E+00 -7.56389451E+00  3.40126518E+00  6.69423524E+00
  1.06159475E+00 -1.21130370E+01  6.33135636E+00  6.20760872E-01 -1.20813849E-01
 -6.86372085E+00  2.33637219E+00  2.33637219E+00  1.38183345E+00  1.39947264E-01
  1.39947264E-01  1.12594498E+01 -1.14045722E+01 -4.07922586E+00 -1.62382560E+00
  2.87476827E+00  5.45010771E-01  5.45010771E-01  1.91328683E+00  1.91328683E+00
 -4.74774738E+00  2.92207336E+00  2.92207336E+00 -1.77007778E+00  1.29993150E+01
 -9.71011700E+00 -1.37820904E+01  1.44702920E+01 -9.00815756E+00  2.08472223E+00
  2.08472223E+00  2.08472223E+00 -9.00815756E+00  2.08472223E+00  2.08472223E+00
  2.08472223E+00 -9.00815756E+00  2.08472223E+00  2.08472223E+00  2.08472223E+00
  5.88828113E+00  2.04346694E+00 -7.90244662E+00  6.34646264E-01  5.25348909E-01
  5.25348909E-01  4.94888512E+00 -1.35484987E+01  7.87137760E+00  2.11797793E+00
 -5.02953702E+00  1.71311487E+00  1.71311487E+00  3.50356518E+00 -7.98668831E+00
  5.24293838E+00 -4.75948254E+00 -2.48256971E+00 -2.69167060E+00 -2.48256971E+00
 -4.75948254E+00  2.81516313E+00  2.56358605E+00  2.32276014E+00  2.56358605E+00
  2.81516313E+00  2.43759707E+00  2.43759707E+00  1.68282941E-01  1.11001323E+01
 -1.12156434E+01 -8.28320158E+00  5.32067471E+00  5.38651188E-01  9.38229782E-01
  5.62928758E+00 -8.43318933E+00  2.07823509E+00  2.07823509E+00  2.07823509E+00
  2.22312060E-03 -5.41131243E+00  1.51401802E+00  1.51401802E+00  8.15666593E-01
 -1.71471843E-02 -1.71471843E-02  2.50197646E+00  1.03462575E+00 -1.18826525E+01
  7.75756111E+00
%FLAG ATOMIC_NUMBER
%FORMAT(10I8)
       6       1       6       1       6       1       7       6       1       6
       6       1       1       6       1       1       6       8       7       6
       6       1       1       1       1       6       1       1       6       6
       8       7       6       6       1       1       1       6       1       1
       1       6       1       1       1       1       1       7       6       1
       1       6       8       1       1       6       1       1       6       6
       6       6       6       6       6       6       1       1       1       1
       1       1       1       1       6       8       7       1       6       1
       6       6       1       1       1       1       6       1       1       6
       1       1       6       1       8       1
%FLAG MASS
%FORMAT(5E16.8)
  1.20100000E+01  1.00800000E+00  1.20100000E+01  1.00800000E+00  1.20100000E+01
  1.00800000E+00  1.40100000E+01  1.20100000E+01  1.00800000E+00  1.20100000E+01
  1.20100000E+01  1.00800000E+00  1.00800000E+00  1.20100000E+01  1.00800000E+00
  1.00800000E+00  1.20100000E+01  1.60000000E+01  1.40100000E+01  1.20100000E+01
  1.20100000E+01  1.00800000E+00  1.00800000E+00  1.00800000E+00  1.00800000E+00
  1.20100000E+01  1.00800000E+00  1.00800000E+00  1.20100000E+01  1.20100000E+01
  1.60000000E+01  1.40100000E+01  1.20100000E+01  1.20100000E+01  1.00800000E+00
  1.00800000E+00  1.00800000E+00  1.20100000E+01  1.00800000E+00  1.00800000E+00
  1.00800000E+00  1.20100000E+01  1.00800000E+00  1.00800000E+00  1.00800000E+00
  1.00800000E+00  1.00800000E+00  1.40100000E+01  1.20100000E+01  1.00800000E+00
  1.00800000E+00  1.20100000E+01  1.60000000E+01  1.00800000E+00  1.00800000E+00
  1.20100000E+01  1.00800000E+00  1.00800000E+00  1.20100000E+01  1.20100000E+01
  1.20100000E+01  1.20100000E+01  1.20100000E+01  1.20100000E+01  1.20100000E+01
  1.20100000E+01  1.00800000E+00  1.00800000E+00  1.00800000E+00  1.00800000E+00
  1.00800000E+00  1.00800000E+00  1.00800000E+00  1.00800000E+00  1.20100000E+01
  1.60000000E+01  1.40100000E+01  1.00800000E+00  1.20100000E+01  1.00800000E+00
  1.20100000E+01  1.20100000E+01  1.00800000E+00  1.00800000E+00  1.00800000E+00
  1.00800000E+00  1.20100000E+01  1.00800000E+00  1.00800000E+00  1.20100000E+01
  1.00800000E+00  1.00800000E+00  1.20100000E+01  1.00800000E+00  1.60000000E+01
  1.00800000E+00
%FLAG ATOM_TYPE_INDEX
%FORMAT(10I8)
      15      16      15      16      15      17      18      15      17      15
      19      20      20      19      20      20      15      21      22      19
      19      23      23      23      23      19      23      23      19      15
      21      22      19      19      20      20      20      19      20      20
      20      19      20      20      20      24      23      25      19      23
      23      19      26      27      23      19      20      20      19      19
      15      15      15      15      15      15      16      16      16      16
      16      20      20      20      15      21      22      24      19      23
      19      19      20      20      20      20      19      20      20      19
      20      20      19      23      26      27
%FLAG NUMBER_EXCLUDED_ATOMS
%FORMAT(10I8)
      13       6       7       4       5       2       4       6       2       7
       8       5       4       7       4       3      10       3      13      11
      13       6       5       3       2       9       5       4      11      10
       5      16      13      12       4       3       2       8       3       2
       1       4       2       1       1       1       2       7      10       5
       4      10       6       2       4      11       5       4      12      13
      13      10       7       7       5       6       1       1       1       1
       1       3       2       3       7       3      11       4      17       8
      14       9       4       3       2       5       8       5       4       6
       4       3       3       2       1       1
%FLAG NONBONDED_PARM_INDEX
%FORMAT(10I8)
       1       2       4       7      11      16      22      29      37      46
      56      67      79      92     106     121     137     154     172     191
     211     232     254     277     301     326     352     379     407       2
       3       5       8      12      17      23      30      38      47      57
      68      80      93     107     122     138     155     173     192     212
     233     255     278     302     327     353     380     408       4       5
       6       9      13      18      24      31      39      48      58      69
      81      94     108     123     139     156     174     193     213     234
     256     279     303     328     354     381     409       7       8       9
      10      14      19      25      32      40      49      59      70      82
      95     109     124     140     157     175     194     214     235     257
     280     304     329     355     382     410      11      12      13      14
      15      20      26      33      41      50      60      71      83      96
     110     125     141     158     176     195     215     236     258     281
     305     330     356     383     411      16      17      18      19      20
      21      27      34      42      51      61      72      84      97     111
     126     142     159     177     196     216     237     259     282     306
     331     357     384     412      22      23      24      25      26      27
      28      35      43      52      62      73      85      98     112     127
     143     160     178     197     217     238     260     283     307     332
     358     385     413      29      30      31      32      33      34      35
      36      44      53      63      74      86      99     113     128     144
     161     179     198     218     239     261     284     308     333     359
     386     414      37      38      39      40      41      42      43      44
      45      54      64      75      87     100     114     129     145     162
     180     199     219     240     262     285     309     334     360     387
     415      46      47      48      49      50      51      52      53      54
      55      65      76      88     101     115     130     146     163     181
     200     220     241     263     286     310     335     361     388     416
      56      57      58      59      60      61      62      63      64      65
      66      77      89     102     116     131     147     164     182     201
     221     242     264     287     311     336     362     389     417      67
      68      69      70      71      72      73      74      75      76      77
      78      90     103     117     132     148     165     183     202     222
     243     265     288     312     337     363     390     418      79      80
      81      82      83      84      85      86      87      88      89      90
      91     104     118     133     149     166     184     203     223     244
     266     289     313     338     364     391     419      92      93      94
      95      96      97      98      99     100     101     102     103     104
     105     119     134     150     167     185     204     224     245     267
     290     314     339     365     392     420     106     107     108     109
     110     111     112     113     114     115     116     117     118     119
     120     135     151     168     186     205     225     246     268     291
     315     340     366     393     421     121     122     123     124     125
     126     127     128     129     130     131     132     133     134     135
     136     152     169     187     206     226     247     269     292     316
     341     367     394     422     137     138     139     140     141     142
     143     144     145     146     147     148     149     150     151     152
     153     170     188     207     227     248     270     293     317     342
     368     395     423     154     155     156     157     158     159     160
     161     162     163     164     165     166     167     168     169     170
     171     189     208     228     249     271     294     318     343     369
     396     424     172     173     174     175     176     177     178     179
     180     181     182     183     184     185     186     187     188     189
     190     209     229     250     272     295     319     344     370     397
     425     191     192     193     194     195     196     197     198     199
     200     201     202     203     204     205     206     207     208     209
     210     230     251     273     296     320     345     371     398     426
     211     212     213     214     215     216     217     218     219     220
     221     222     223     224     225     226     227     228     229     230
     231     252     274     297     321     346     372     399     427     232
     233     234     235     236     237     238     239     240     241     242
     243     244     245     246     247     248     249     250     251     252
     253     275     298     322     347     373     400     428     254     255
     256     257     258     259     260     261     262     263     264     265
     266     267     268     269     270     271     272     273     274     275
     276     299     323     348     374     401     429     277     278     279
     280     281     282     283     284     285     286     287     288     289
     290     291     292     293     294     295     296     297     298     299
     300     324     349     375     402     430     301     302     303     304
     305     306     307     308     309     310     311     312     313     314
     315     316     317     318     319     320     321     322     323     324
     325     350     376     403     431     326     327     328     329     330
     331     332     333     334     335     336     337     338     339     340
     341     342     343     344     345     346     347     348     349     350
     351     377     404     432     352     353     354     355     356     357
     358     359     360     361     362     363     364     365     366     367
     368     369     370     371     372     373     374     375     376     377
     378     405     433     379     380     381     382     383     384     385
     386     387     388     389     390     391     392     393     394     395
     396     397     398     399     400     401     402     403     404     405
     406     434     407     408     409     410     411     412     413     414
     415     416     417     418     419     420     421     422     423     424
     425     426     427     428     429     430     431     432     433     434
     435
%FLAG RESIDUE_LABEL
%FORMAT(20a4)
1IN 
%FLAG RESIDUE_POINTER
%FORMAT(10I8)
       1
%FLAG BOND_FORCE_CONSTANT
%FORMAT(5E16.8)
  3.60690000E+02  3.54250000E+02  3.56820000E+02  3.86490000E+02  2.43910000E+02
  3.45250000E+02  2.28890000E+02  2.34850000E+02  5.90600000E+02  3.17460000E+02
  2.54460000E+02  3.44220000E+02  5.27300000E+02  2.55850000E+02  2.85150000E+02
  5.35510000E+02
%FLAG BOND_EQUIL_VALUE
%FORMAT(5E16.8)
  1.08600000E+00  1.39860000E+00  1.08850000E+00  1.33920000E+00  1.51470000E+00
  1.09620000E+00  1.53540000E+00  1.52700000E+00  1.21900000E+00  1.39670000E+00
  1.46430000E+00  1.09690000E+00  1.01300000E+00  1.46260000E+00  1.42420000E+00
  9.72500000E-01
%FLAG ANGLE_FORCE_CONSTANT
%FORMAT(5E16.8)
  4.49000000E+01  6.36700000E+01  4.48000000E+01  6.81700000E+01  5.01000000E+01
  8.31500000E+01  6.07400000E+01  4.36100000E+01  3.58000000E+01  6.03300000E+01
  4.32700000E+01  6.03600000E+01  4.36300000E+01  7.64500000E+01  6.51900000E+01
  8.66800000E+01  7.72400000E+01  6.49500000E+01  4.32800000E+01  3.56400000E+01
  4.80900000E+01  7.62100000E+01  7.77500000E+01  5.98700000E+01  4.87000000E+01
  4.61000000E+01  4.37400000E+01  6.49000000E+01  6.50100000E+01  4.78400000E+01
  7.67900000E+01  6.51300000E+01  5.62900000E+01
%FLAG ANGLE_EQUIL_VALUE
%FORMAT(5E16.8)
  2.09230160E+00  2.09474507E+00  2.09998106E+00  2.14570870E+00  2.02493187E+00
  2.04622489E+00  2.10888224E+00  1.93085858E+00  1.88024401E+00  1.96209999E+00
  1.91427794E+00  1.94482122E+00  1.90153704E+00  2.14501057E+00  2.04482863E+00
  2.13925098E+00  2.07397564E+00  1.96838317E+00  1.91270715E+00  1.89455572E+00
  1.89822091E+00  2.03767278E+00  1.96209999E+00  1.96576518E+00  2.05163542E+00
  2.05390434E+00  1.89141412E+00  1.97361916E+00  1.97850609E+00  1.92143380E+00
  1.91392888E+00  1.87430989E+00  1.92649525E+00
%FLAG DIHEDRAL_FORCE_CONSTANT
%FORMAT(5E16.8)
  0.00000000E+00  1.55555556E-01  0.00000000E+00  0.00000000E+00  3.62500000E+00
  2.50000000E+00  8.00000000E-01  8.00000000E-02  2.00000000E+00  2.50000000E-01
  1.80000000E-01  4.80000000E+00  2.40000000E-01  1.20000000E-01  8.20000000E-01
  6.80000000E-01  2.00000000E-01  4.40000000E-01  4.03000000E+00  3.66000000E+00
  7.10000000E-01  0.00000000E+00  0.00000000E+00  2.93000000E+00  1.41000000E+00
  5.00000000E-01  2.26000000E+00  3.00000000E-02  6.50000000E-01  7.30000000E-01
  2.25000000E-01  2.10000000E-01  3.00000000E-01  1.30000000E-01  6.00000000E-02
  1.23000000E-01  9.00000000E-02  5.20000000E-01  4.60000000E-01  4.00000000E-02
  1.00000000E-01  1.01000000E-01  1.10000000E+00  1.05000000E+01
%FLAG DIHEDRAL_PERIODICITY
%FORMAT(5E16.8)
  2.00000000E+00  3.00000000E+00  1.00000000E+00  3.00000000E+00  2.00000000E+00
  2.00000000E+00  1.00000000E+00  3.00000000E+00  1.00000000E+00  1.00000000E+00
  3.00000000E+00  2.00000000E+00  2.00000000E+00  3.00000000E+00  1.00000000E+00
  1.00000000E+00  2.00000000E+00  3.00000000E+00  1.00000000E+00  2.00000000E+00
  2.00000000E+00  4.00000000E+00  2.00000000E+00  1.00000000E+00  2.00000000E+00
  3.00000000E+00  1.00000000E+00  3.00000000E+00  4.00000000E+00  3.00000000E+00
  3.00000000E+00  3.00000000E+00  3.00000000E+00  3.00000000E+00  3.00000000E+00
  3.00000000E+00  3.00000000E+00  3.00000000E+00  1.00000000E+00  2.00000000E+00
  3.00000000E+00  3.00000000E+00  2.00000000E+00  2.00000000E+00
%FLAG DIHEDRAL_PHASE
%FORMAT(5E16.8)
  0.00000000E+00  0.00000000E+00  0.00000000E+00  0.00000000E+00  3.14159400E+00
  3.14159400E+00  0.00000000E+00  3.14159400E+00  0.00000000E+00  0.00000000E+00
  0.00000000E+00  3.14159400E+00  3.14159400E+00  0.00000000E+00  0.00000000E+00
  0.00000000E+00  3.14159400E+00  3.14159400E+00  0.00000000E+00  3.14159400E+00
  3.14159400E+00  3.14159400E+00  3.14159400E+00  0.00000000E+00  3.14159400E+00
  0.00000000E+00  0.00000000E+00  3.14159400E+00  3.14159400E+00  0.00000000E+00
  0.00000000E+00  0.00000000E+00  0.00000000E+00  0.00000000E+00  0.00000000E+00
  0.00000000E+00  0.00000000E+00  0.00000000E+00  3.14159400E+00  0.00000000E+00
  0.00000000E+00  0.00000000E+00  3.14159400E+00  3.14159400E+00
%FLAG SCEE_SCALE_FACTOR
%FORMAT(5E16.8)
  1.20000000E+00  1.20000000E+00  1.20000000E+00  1.20000000E+00  1.20000000E+00
  1.20000000E+00  1.20000000E+00  1.20000000E+00  1.20000000E+00  1.20000000E+00
  1.20000000E+00  1.20000000E+00  1.20000000E+00  1.20000000E+00  1.20000000E+00
  1.20000000E+00  1.20000000E+00  1.20000000E+00  1.20000000E+00  1.20000000E+00
  1.20000000E+00  1.20000000E+00  1.20000000E+00  1.20000000E+00  1.20000000E+00
  1.20000000E+00  1.20000000E+00  1.20000000E+00  1.20000000E+00  1.20000000E+00
  1.20000000E+00  1.20000000E+00  1.20000000E+00  1.20000000E+00  1.20000000E+00
  1.20000000E+00  1.20000000E+00  1.20000000E+00  1.20000000E+00  1.20000000E+00
  1.20000000E+00  1.20000000E+00  0.00000000E+00  0.00000000E+00
%FLAG SCNB_SCALE_FACTOR
%FORMAT(5E16.8)
  2.00000000E+00  2.00000000E+00  2.00000000E+00  2.00000000E+00  2.00000000E+00
  2.00000000E+00  2.00000000E+00  2.00000000E+00  2.00000000E+00  2.00000000E+00
  2.00000000E+00  2.00000000E+00  2.00000000E+00  2.00000000E+00  2.00000000E+00
  2.00000000E+00  2.00000000E+00  2.00000000E+00  2.00000000E+00  2.00000000E+00
  2.00000000E+00  2.00000000E+00  2.00000000E+00  2.00000000E+00  2.00000000E+00
  2.00000000E+00  2.00000000E+00  2.00000000E+00  2.00000000E+00  2.00000000E+00
  2.00000000E+00  2.00000000E+00  2.00000000E+00  2.00000000E+00  2.00000000E+00
  2.00000000E+00  2.00000000E+00  2.00000000E+00  2.00000000E+00  2.00000000E+00
  2.00000000E+00  2.00000000E+00  0.00000000E+00  0.00000000E+00
%FLAG SOLTY
%FORMAT(5E16.8)
  0.00000000E+00  0.00000000E+00  0.00000000E+00  0.00000000E+00  0.00000000E+00
  0.00000000E+00  0.00000000E+00  0.00000000E+00  0.00000000E+00  0.00000000E+00
  0.00000000E+00  0.00000000E+00  0.00000000E+00  0.00000000E+00  0.00000000E+00
  0.00000000E+00  0.00000000E+00  0.00000000E+00  0.00000000E+00  0.00000000E+00
  0.00000000E+00  0.00000000E+00  0.00000000E+00  0.00000000E+00  0.00000000E+00
  0.00000000E+00  0.00000000E+00  0.00000000E+00  0.00000000E+00  0.00000000E+00
  0.00000000E+00  0.00000000E+00  0.00000000E+00  0.00000000E+00  0.00000000E+00
  0.00000000E+00  0.00000000E+00  0.00000000E+00  0.00000000E+00  0.00000000E+00
  0.00000000E+00  0.00000000E+00  0.00000000E+00  0.00000000E+00  0.00000000E+00
  0.00000000E+00  0.00000000E+00  0.00000000E+00  0.00000000E+00  0.00000000E+00
  0.00000000E+00
%FLAG LENNARD_JONES_ACOEF
%FORMAT(5E16.8)
  9.44293233E+05  2.12601181E+03  1.39982777E-01  9.95480466E+05  2.56678134E+03
  1.04308023E+06  2.01791425E+04  9.14716912E+00  2.27401052E+04  2.01823541E+02
  8.96776989E+04  1.07193646E+02  9.71708117E+04  1.41077189E+03  7.51607703E+03
  8.82619071E+05  2.27577561E+03  9.24822270E+05  2.01619733E+04  8.61541883E+04
  8.19971662E+05  6.06829342E+05  1.02595236E+03  6.47841731E+05  1.12780457E+04
  5.44261042E+04  5.74393458E+05  3.79876399E+05  6.20665997E+04  5.94667300E+01
  6.78771368E+04  8.79040886E+02  4.98586848E+03  6.01816484E+04  3.69471530E+04
  3.25969625E+03  7.44975864E+05  1.40467023E+03  7.91544157E+05  1.45985502E+04
  6.82786631E+04  7.01803794E+05  4.71003287E+05  4.66922514E+04  5.81803229E+05
  0.00000000E+00  0.00000000E+00  0.00000000E+00  0.00000000E+00  0.00000000E+00
  0.00000000E+00  0.00000000E+00  0.00000000E+00  0.00000000E+00  0.00000000E+00
  6.58473870E+04  6.63368273E+01  7.18621074E+04  9.55000044E+02  5.34045360E+03
  6.37148278E+04  3.93690817E+04  3.50301067E+03  4.96707306E+04  0.00000000E+00
  3.76169105E+03  7.91627154E+04  8.90987508E+01  8.59947003E+04  1.21014911E+03
  6.55825601E+03  7.62451550E+04  4.77908183E+04  4.33325458E+03  6.00750218E+04
  0.00000000E+00  4.64559155E+03  5.71629601E+03  2.01562190E+06  5.97860700E+03
  2.09861767E+06  4.93469320E+04  2.02461849E+05  1.86068943E+06  1.32911052E+06
  1.42791446E+05  1.61587928E+06  0.00000000E+00  1.50848032E+05  1.79647996E+05
  4.19430400E+06  5.46147253E+04  4.90239937E+01  5.98885646E+04  7.50063100E+02
  4.33325458E+03  5.30987710E+04  3.23283631E+04  2.82099197E+03  4.09427581E+04
  0.00000000E+00  3.03448006E+03  3.76169105E+03  1.26338489E+05  2.43828624E+03
  8.11497350E+05  1.94008400E+03  8.53193737E+05  1.78601506E+04  7.80065389E+04
  7.56463928E+05  5.24402060E+05  5.42099106E+04  6.42430744E+05  0.00000000E+00
  5.74592031E+04  6.89371259E+04  1.72268611E+06  4.77581094E+04  6.96551276E+05
  8.64679274E+04  1.00417924E+02  9.38067954E+04  1.34169202E+03  7.20681791E+03
  8.31715633E+04  5.23449021E+04  4.77162373E+03  6.57310418E+04  0.00000000E+00
  5.11317150E+03  6.28513799E+03  1.95699890E+05  4.14474284E+03  7.52549148E+04
  6.90855956E+03  7.19825646E+04  7.49206038E+01  7.84511674E+04  1.06023582E+03
  5.87454193E+03  6.95568610E+04  4.31596374E+04  3.86158714E+03  5.43945007E+04
  0.00000000E+00  4.14474284E+03  5.11317150E+03  1.64447369E+05  3.34719214E+03
  6.27751680E+04  5.62610481E+03  4.56536476E+03  8.97750460E+05  2.28331226E+03
  9.41257953E+05  2.03696482E+04  8.73875986E+04  8.34543970E+05  5.83493927E+05
  6.09861363E+04  7.13267446E+05  0.00000000E+00  6.45801516E+04  7.73168790E+04
  1.89497992E+06  5.37939286E+04  7.69642101E+05  8.43518904E+04  7.05112106E+04
  8.49322032E+05  9.84684600E+05  2.53456440E+03  1.03184851E+06  2.24743442E+04
  9.60832554E+04  9.14863930E+05  6.40712560E+05  6.71095195E+04  7.82881336E+05
  0.00000000E+00  7.10513128E+04  8.50294791E+04  2.07618920E+06  5.92092559E+04
  8.43969952E+05  9.27554496E+04  7.75673747E+04  9.31115275E+05  1.02073671E+06
  9.33217616E+04  1.05103439E+02  1.01372942E+05  1.42703904E+03  7.73223568E+03
  8.98799076E+04  5.63419090E+04  5.10916075E+03  7.08225575E+04  0.00000000E+00
  5.47737117E+03  6.73963720E+03  2.11768029E+05  4.43530964E+03  8.12662403E+04
  7.41026906E+03  6.02863188E+03  9.11435380E+04  1.00235148E+05  7.94617769E+03
  5.99897901E+05  1.11043914E+03  6.37913494E+05  1.16505362E+04  5.47803235E+04
  5.65590822E+05  3.78641356E+05  3.74148715E+04  4.68011805E+05  0.00000000E+00
  3.98127143E+04  4.81820985E+04  1.30335373E+06  3.27958584E+04  5.17507491E+05
  5.27277400E+04  4.36069364E+04  5.74782316E+05  6.30925504E+05  5.68021765E+04
  3.76435470E+05  8.14793385E+05  1.71845864E+03  8.61458248E+05  1.68636880E+04
  7.63694318E+04  7.63791460E+05  5.20462539E+05  5.26221036E+04  6.40405042E+05
  0.00000000E+00  5.58833643E+04  6.73331169E+04  1.74955513E+06  4.62444096E+04
  7.01106848E+05  7.35931098E+04  6.11299385E+04  7.76656876E+05  8.52084164E+05
  7.93773615E+04  5.15491878E+05  7.02078680E+05  6.43853349E+04  5.78352684E+01
  7.06006146E+04  8.84544347E+02  5.10916075E+03  6.25963552E+04  3.81142515E+04
  3.32626784E+03  4.82692694E+04  0.00000000E+00  3.57795711E+03  4.43530964E+03
  1.48931701E+05  2.87505342E+03  5.63013422E+04  4.88692384E+03  3.94664935E+03
  6.34160397E+04  6.97998263E+04  5.22955465E+03  3.86646725E+04  5.45183252E+04
  3.39005767E+03  1.88178855E+03  1.37574453E-01  2.26409483E+03  8.45902425E+00
  9.64710720E+01  2.00740581E+03  9.14858779E+02  5.38411501E+01  1.24900897E+03
  0.00000000E+00  5.99788431E+01  8.03166617E+01  5.25501858E+03  4.44659845E+01
  1.71458823E+03  9.04434904E+01  6.76796831E+01  2.01475241E+03  2.23577481E+03
  9.47421632E+01  9.87857350E+02  1.52360475E+03  5.24570081E+01  1.34728399E-01
  8.28144322E+05  2.07087856E+03  8.68941273E+05  1.86340379E+04  8.03350760E+04
  7.70426106E+05  5.37402784E+05  5.59994575E+04  6.57317882E+05  0.00000000E+00
  5.93150590E+04  7.10545648E+04  1.75078538E+06  4.93787016E+04  7.10207765E+05
  7.75325560E+04  6.47735754E+04  7.84008042E+05  8.59569453E+05  8.37616145E+04
  5.29641935E+05  7.16178718E+05  5.82112737E+04  1.82809059E+03  7.23647490E+05
  6.89296946E+05  1.54161417E+03  7.26877088E+05  1.46820101E+04  6.53734853E+04
  6.44468276E+05  4.42689091E+05  4.52250254E+04  5.43595012E+05  0.00000000E+00
  4.79847950E+04  5.77011015E+04  1.47221702E+06  3.97899542E+04  5.92438683E+05
  6.30298721E+04  5.24591488E+04  6.55497149E+05  7.18991463E+05  6.80216136E+04
  4.37717034E+05  5.94682930E+05  4.69084694E+04  1.36475542E+03  6.04651377E+05
  5.03152404E+05  2.40872585E+02  2.48828086E-03  3.07630260E+02  4.94997704E-01
  9.22638396E+00  2.72753051E+02  1.02912387E+02  4.62642987E+00  1.47660648E+02
  0.00000000E+00  5.28189878E+00  7.46295598E+00  7.58676039E+02  3.70012486E+00
  2.25372434E+02  8.53132435E+00  6.05535196E+00  2.72118326E+02  3.03553352E+02
  8.80612241E+00  1.15813907E+02  1.89434762E+02  4.36660257E+00  2.61760843E-03
  2.45082140E+02  1.74176419E+02  1.10360882E-05  3.44482863E+06  1.95780471E+04
  3.47876374E+06  1.16959488E+05  3.96588227E+05  3.08436311E+06  2.41912766E+06
  2.92681455E+05  2.87212414E+06  0.00000000E+00  3.06060157E+05  3.56308844E+05
  6.73324011E+06  2.62385547E+05  2.90480711E+06  3.85641936E+05  3.31440902E+05
  3.15097753E+06  3.44293480E+06  4.19958375E+05  2.32599631E+06  3.03389945E+06
  3.09264248E+05  1.69378390E+04  2.92240644E+06  2.51985667E+06  3.20091894E+03
  9.24719470E+06  7.42364908E+05  1.52094041E+03  7.85890042E+05  1.51483906E+04
  6.91773368E+04  6.96790708E+05  4.72934643E+05  4.75728872E+04  5.82511344E+05
  0.00000000E+00  5.05435913E+04  6.09592309E+04  1.59822324E+06  4.17832254E+04
  6.39146293E+05  6.66452723E+04  5.53047937E+04  7.08435269E+05  7.77325489E+05
  7.18637611E+04  4.68810254E+05  6.39277296E+05  4.92592636E+04  1.34949100E+03
  6.53164318E+05  5.41786538E+05  1.65622133E+02  2.78932950E+06  5.81935564E+05
%FLAG LENNARD_JONES_BCOEF
%FORMAT(5E16.8)
  8.01323529E+02  2.09604198E+01  9.37598976E-02  7.36907417E+02  2.06278363E+01
  6.75612247E+02  6.45756063E+01  7.57919667E-01  6.13981767E+01  3.56012899E+00
  1.36131731E+02  2.59456373E+00  1.26919150E+02  9.41257003E+00  2.17257828E+01
  6.53361429E+02  1.82891803E+01  5.99015525E+02  5.44372326E+01  1.12529845E+02
  5.31102864E+02  6.77220874E+02  1.53505284E+01  6.26720080E+02  5.08951803E+01
  1.11805549E+02  5.55666448E+02  5.64885984E+02  1.13252061E+02  1.93248820E+00
  1.06076943E+02  7.42992380E+00  1.76949863E+01  9.40505980E+01  9.21192136E+01
  1.43076527E+01  7.50714425E+02  1.79702257E+01  6.93079947E+02  5.79323581E+01
  1.25287818E+02  6.14502845E+02  6.29300710E+02  1.03606917E+02  6.99746810E+02
  0.00000000E+00  0.00000000E+00  0.00000000E+00  0.00000000E+00  0.00000000E+00
  0.00000000E+00  0.00000000E+00  0.00000000E+00  0.00000000E+00  0.00000000E+00
  1.15327881E+02  2.01792524E+00  1.07908863E+02  7.65648470E+00  1.81057616E+01
  9.56748258E+01  9.40124296E+01  1.46638650E+01  1.05648788E+02  0.00000000E+00
  1.50233639E+01  1.26451907E+02  2.33864085E+00  1.18043746E+02  8.61880722E+00
  2.00642027E+01  1.04660679E+02  1.03580945E+02  1.63092814E+01  1.16187983E+02
  0.00000000E+00  1.66953734E+01  1.85196588E+01  1.28923404E+03  3.87070358E+01
  1.17824605E+03  1.11203892E+02  2.25248294E+02  1.04466382E+03  1.10369829E+03
  1.89165096E+02  1.21753341E+03  0.00000000E+00  1.92224012E+02  2.09772716E+02
  2.04800000E+03  1.05031585E+02  1.73473071E+00  9.85097219E+01  6.78541827E+00
  1.63092814E+01  8.73413012E+01  8.51921330E+01  1.31591746E+01  9.59185913E+01
  0.00000000E+00  1.34932874E+01  1.50233639E+01  1.75916126E+02  1.20953369E+01
  6.48597119E+02  1.74825352E+01  5.95658566E+02  5.30440533E+01  1.10856114E+02
  5.28126496E+02  5.49675335E+02  9.24130897E+01  6.08686716E+02  0.00000000E+00
  9.40636541E+01  1.03031170E+02  1.04065628E+03  8.57562161E+01  5.24668528E+02
  1.34516705E+02  2.52706841E+00  1.25489661E+02  9.23714573E+00  2.14083478E+01
  1.11262422E+02  1.10338858E+02  1.74198525E+01  1.23703833E+02  0.00000000E+00
  1.78280753E+01  1.97659043E+01  2.22852114E+02  1.60512210E+01  1.09570372E+02
  2.10929191E+01  1.22733283E+02  2.18279029E+00  1.14759990E+02  8.21131314E+00
  1.93285102E+01  1.01749214E+02  1.00191339E+02  1.56709129E+01  1.12531834E+02
  0.00000000E+00  1.60512210E+01  1.78280753E+01  2.04284272E+02  1.44244612E+01
  1.00073628E+02  1.90347353E+01  1.71467049E+01  6.73934129E+02  1.87363491E+01
  6.18067719E+02  5.59621097E+01  1.15911684E+02  5.47995038E+02  5.72796552E+02
  9.68317709E+01  6.33599808E+02  0.00000000E+00  9.85144068E+01  1.07792209E+02
  1.07823819E+03  8.99118321E+01  5.44830041E+02  1.14599119E+02  1.04776275E+02
  5.65406768E+02  7.30206155E+02  2.04226110E+01  6.69494459E+02  6.08139360E+01
  1.25742895E+02  5.93591333E+02  6.20970728E+02  1.05087646E+02  6.86742760E+02
  0.00000000E+00  1.06903901E+02  1.16947855E+02  1.16762437E+03  9.75893223E+01
  5.90251928E+02  1.24325688E+02  1.13692208E+02  6.12468585E+02  6.63431737E+02
  1.48987394E+02  2.75631727E+00  1.39078880E+02  1.01563736E+01  2.36414051E+01
  1.23310980E+02  1.22044000E+02  1.92174397E+01  1.36896727E+02  0.00000000E+00
  1.96722815E+01  2.18216157E+01  2.47150236E+02  1.77023375E+01  1.21392023E+02
  2.32899892E+01  2.10068861E+01  1.27000718E+02  1.37787728E+02  2.57122925E+01
  6.15165511E+02  1.45902714E+01  5.68167388E+02  4.72594809E+01  1.02477444E+02
  5.03752097E+02  5.15240418E+02  8.46911674E+01  5.73100668E+02  0.00000000E+00
  8.63723599E+01  9.50181887E+01  9.98521059E+02  7.83922976E+01  4.98871431E+02
  1.01173582E+02  9.20079458E+01  5.19385932E+02  5.62969425E+02  1.11953944E+02
  4.69350655E+02  7.37244936E+02  1.86646683E+01  6.78964813E+02  5.84691813E+01
  1.24425821E+02  6.01987997E+02  6.21191325E+02  1.03284425E+02  6.89389438E+02
  0.00000000E+00  1.05230082E+02  1.15508247E+02  1.18966487E+03  9.57256348E+01
  5.97113873E+02  1.22913863E+02  1.12023534E+02  6.20851625E+02  6.72777963E+02
  1.36094315E+02  5.64804067E+02  6.77820248E+02  1.23751804E+02  2.04464126E+00
  1.16065835E+02  7.99614292E+00  1.92174397E+01  1.02907011E+02  1.00379343E+02
  1.55059847E+01  1.13016701E+02  0.00000000E+00  1.58996004E+01  1.77023375E+01
  2.07264254E+02  1.42525182E+01  1.01040256E+02  1.89134207E+01  1.69967767E+01
  1.05935811E+02  1.14981426E+02  2.08590256E+01  9.23664132E+01  1.12788003E+02
  1.67944276E+01  1.76168249E+01  8.30374121E-02  1.73073921E+01  6.51126010E-01
  2.19888978E+00  1.53451874E+01  1.29497639E+01  1.64271443E+00  1.51381989E+01
  0.00000000E+00  1.71416196E+00  1.98360701E+00  3.24191875E+01  1.47593342E+00
  1.46824710E+01  2.14252117E+00  1.85338491E+00  1.57231024E+01  1.71355763E+01
  2.33785449E+00  1.22938581E+01  1.57004457E+01  1.73959275E+00  7.34107347E-02
  6.32509514E+02  1.74362885E+01  5.80298384E+02  5.23034358E+01  1.08599877E+02
  5.14507756E+02  5.37163627E+02  9.06710490E+01  5.94361918E+02  0.00000000E+00
  9.22586543E+01  1.00976572E+02  1.01275239E+03  8.41771980E+01  5.11427129E+02
  1.07361937E+02  9.81312253E+01  5.30834917E+02  5.75038595E+02  1.18970742E+02
  4.87196412E+02  5.82583725E+02  9.91793374E+01  1.46352678E+01  4.98353106E+02
  5.88797748E+02  1.53501807E+01  5.41546250E+02  4.73716383E+01  9.99600502E+01
  4.80149098E+02  4.97456336E+02  8.31409640E+01  5.51505564E+02  0.00000000E+00
  8.46691831E+01  9.28465134E+01  9.47592581E+02  7.71010455E+01  4.76608379E+02
  9.87712192E+01  9.01089277E+01  4.95260330E+02  5.36620538E+02  1.09393126E+02
  4.51916854E+02  5.41675626E+02  9.08431526E+01  1.29026271E+01  4.64809588E+02
  4.32634597E+02  5.21867651E+00  9.24653616E-03  5.28230309E+00  1.30416027E-01
  5.63047631E-01  4.68342836E+00  3.59619399E+00  3.98705627E-01  4.30971229E+00
  0.00000000E+00  4.21184434E-01  5.00648264E-01  1.01992361E+01  3.52521383E-01
  4.40751799E+00  5.44840215E-01  4.59018960E-01  4.78443613E+00  5.22789272E+00
  5.90150328E-01  3.48534600E+00  4.58384710E+00  4.15568027E-01  8.47240681E-03
  4.43692527E+00  3.81654050E+00  4.55498033E-04  1.03528777E+03  4.30253727E+01
  9.31819600E+02  1.05161721E+02  1.93646595E+02  8.26175679E+02  9.14638042E+02
  1.66355651E+02  9.97075582E+02  0.00000000E+00  1.68186548E+02  1.81468462E+02
  1.59390376E+03  1.55724811E+02  8.30066580E+02  1.92160287E+02  1.78145380E+02
  8.54053549E+02  9.23600443E+02  2.13788333E+02  8.19371089E+02  9.62302158E+02
  1.83461836E+02  3.57514815E+01  8.03724437E+02  7.61506649E+02  1.28684680E+01
  1.14737423E+03  6.90894667E+02  1.72393904E+01  6.36687196E+02  5.44062826E+01
  1.16264660E+02  5.64503554E+02  5.81361517E+02  9.64152120E+01  6.45512297E+02
  0.00000000E+00  9.82532117E+01  1.07902982E+02  1.11633519E+03  8.93335697E+01
  5.59732167E+02  1.14837052E+02  1.04611336E+02  5.82154670E+02  6.30880403E+02
  1.27133996E+02  5.28811054E+02  6.35011160E+02  1.05256926E+02  1.45069425E+01
  5.46227977E+02  5.07604817E+02  4.20798850E+00  9.05890802E+02  5.94825035E+02
%FLAG BONDS_INC_HYDROGEN
%FORMAT(10I8)
       3       0       1       9       6       1      15      12       3      24
      21       3      33      30       6      36      30       6      42      39
       6      45      39       6      63      60      12      66      60      12
      69      57      12      72      57      12      78      75      12      81
      75      12     102      99       6     105      99       6     108      99
       6     114     111       6     117     111       6     120     111       6
     126     123       6     129     123       6     132     123       6     135
      93      13     138      84      12     147     144      12     150     144
      12     159     156      16     162     153      12     168     165       6
     171     165       6     198     195       1     201     192       1     204
     189       1     207     186       1     210     183       1     213     177
       6     216     177       6     219     174       6     231     228      13
     237     234      12     246     243       6     249     243       6     252
     243       6     255     240       6     261     258       6     264     258
       6     270     267       6     273     267       6     279     276      12
     285     282      16
%FLAG BONDS_WITHOUT_HYDROGEN
%FORMAT(10I8)
       6       0       2      12       6       2      18      12       4      21
      18       4      27      21       2      27       0       2      30      27
       5      39      30       7      48      39       8      51      48       9
      54      48      10      57      54      11      60      57       7      75
      54      11      84      75       7      87      84       8      90      87
       9      93      87      10      96      93      11      99      96       7
     111      96       7     123      96       7     141      84      14     141
      60      14     144     141      14     153     144       7     156     153
      15     165     153       7     174     165       7     177     174       7
     180     177       5     183     180       2     186     183       2     189
     186       2     192     189       2     195     192       2     195     180
       2     222     174       8     225     222       9     228     222      10
     234     228      11     240     234       7     243     240       7     258
     240       7     267     258       7     276     267       7     276     234
       7     282     276      15
%FLAG ANGLES_INC_HYDROGEN
%FORMAT(10I8)
       6       0       3       1       9       6       0       1      12       6
       9       1      15      12       6       3      18      12      15       5
      24      21      18       5      27      21      24       3      27       0
       3       1      33      30      27       8      36      30      27       8
      36      30      33       9      39      30      33      11      39      30
      36      11      42      39      30      11      45      39      30      11
      45      39      42       9      48      39      42      13      48      39
      45      13      63      60      57      19      66      60      57      19
      66      60      63      20      69      57      54      21      69      57
      60      19      72      57      54      21      72      57      60      19
      72      57      69      20      78      75      54      21      81      75
      54      21      81      75      78      20      84      75      78      19
      84      75      81      19     102      99      96      11     105      99
      96      11     105      99     102       9     108      99      96      11
     108      99     102       9     108      99     105       9     114     111
      96      11     117     111      96      11     117     111     114       9
     120     111      96      11     120     111     114       9     120     111
     117       9     126     123      96      11     129     123      96      11
     129     123     126       9     132     123      96      11     132     123
     126       9     132     123     129       9     135      93      87      25
     135      93      96      26     138      84      75      19     138      84
      87      27     141      84     138      30     141      60      63      30
     141      60      66      30     147     144     141      30     150     144
     141      30     150     144     147      20     153     144     147      19
     153     144     150      19     159     156     153      32     162     153
     144      19     162     153     156      33     165     153     162      19
     168     165     153      11     171     165     153      11     171     165
     168       9     174     165     168      11     174     165     171      11
     198     195     192       1     198     195     180       1     201     192
     189       1     201     192     195       1     204     189     186       1
     204     189     192       1     207     186     183       1     207     186
     189       1     210     183     180       1     210     183     186       1
     213     177     174      11     213     177     180       8     216     177
     174      11     216     177     180       8     216     177     213       9
     219     174     165      11     219     174     177      11     222     174
     219      13     231     228     222      25     234     228     231      26
     237     234     228      21     240     234     237      19     246     243
     240      11     249     243     240      11     249     243     246       9
     252     243     240      11     252     243     246       9     252     243
     249       9     255     240     234      11     255     240     243      11
     258     240     255      11     261     258     240      11     264     258
     240      11     264     258     261       9     267     258     261      11
     267     258     264      11     270     267     258      11     273     267
     258      11     273     267     270       9     276     267     270      11
     276     267     273      11     276     234     237      19     279     276
     267      19     279     276     234      19     282     276     279      33
     285     282     276      32
%FLAG ANGLES_WITHOUT_HYDROGEN
%FORMAT(10I8)
      12       6       0       2      18      12       6       4      21      18
      12       6      21      27       0       2      27      21      18       4
      27       0       6       2      30      27      21       7      30      27
       0       7      39      30      27      10      48      39      30      12
      51      48      39      14      54      48      39      15      54      48
      51      16      57      54      48      17      60      57      54      18
      75      54      48      17      75      54      57      22      84      75
      54      18      84     141      60      23      87      84      75      12
      90      87      84      14      93      87      84      15      93      87
      90      16      96      93      87      17      99      96      93      18
     111      96      93      18     111      96      99      24     123      96
      93      18     123      96      99      24     123      96     111      24
     141      84      75      28     141      84      87      29     141      60
      57      28     144     141      84      23     144     141      60      23
     153     144     141      28     156     153     144      31     165     153
     144      24     165     153     156      31     174     165     153      24
     177     174     165      24     180     177     174      10     183     180
     177       7     186     183     180       2     189     186     183       2
     192     189     186       2     192     195     180       2     195     192
     189       2     195     180     177       7     195     180     183       2
     222     174     165      12     222     174     177      12     225     222
     174      14     228     222     174      15     228     222     225      16
     234     228     222      17     240     234     228      18     243     240
     234      24     258     240     234      24     258     240     243      24
     267     258     240      24     267     276     234      24     276     267
     258      24     276     234     228      18     276     234     240      24
     282     276     267      31     282     276     234      31
%FLAG DIHEDRALS_INC_HYDROGEN
%FORMAT(10I8)
       3       0       6       9       5       3       0       6      12       5
       0       6      12      15       5      15      12       6       9       5
      18      12       6       9       5      21      18      12      15      12
       3       0      27      21       5      24      21      18      12      12
       0      27      21      24       5      27       0       6       9       5
      30      27      21      24       5       3       0      27      30       5
      33      30      27      21       3       0      27      30      33       3
      36      30      27      21       3       0      27      30      36       3
      42      39      30      27       2      42      39      30      33      14
      42      39      30      36      14      45      39      30      27       2
      45      39      30      33      14      45      39      30      36      14
      48      39      30      33       2      48      39      30      36       2
      51      48      39      42      19      51      48     -39      42      20
      51      48      39      45      19      51      48     -39      45      20
      54      48      39      42      23      54      48      39      45      23
      63      60      57      54       2      66      60      57      54       2
      69      57      54      48      23      69      57      60      63       2
      69      57      60      66       2      72      57      54      48      23
      72      57      60      63       2      72      57      60      66       2
      75      54      57      69       1      75      54      57      72       1
      78      75      54      48      23      78      75      54      57       1
      81      75      54      48      23      81      75      54      57       1
      84     141      60      63      31      84     141      60      66      31
      87      84      75      78       2      87      84      75      81       2
     102      99      96      93       2     105      99      96      93       2
     108      99      96      93       2     111      96      99     102      34
     111      96      99     105      34     111      96      99     108      34
     114     111      96      93       2     114     111      96      99      34
     117     111      96      93       2     117     111      96      99      34
     120     111      96      93       2     120     111      96      99      34
     123      96      99     102      34     123      96      99     105      34
     123      96      99     108      34     123      96     111     114      34
     123      96     111     117      34     123      96     111     120      34
     126     123      96      93       2     126     123      96      99      34
     126     123      96     111      34     129     123      96      93       2
     129     123      96      99      34     129     123      96     111      34
     132     123      96      93       2     132     123      96      99      34
     132     123      96     111      34     135      93      87      84       6
     135      93      87      90       9     135      93     -87      90       6
     135      93      96      99       1     135      93      96     111       1
     135      93      96     123       1     138      84      75      54       2
     138      84      75      78       2     138      84      75      81       2
     138      84      87      90       7     138      84     -87      90       8
     138      84      87      93      23     138      84     141      60      31
     141      84      75      78       2     141      84      75      81       2
     141      60      57      69       2     141      60      57      72       2
     144     141      84     138      31     144     141      60      63      31
     144     141      60      66      31     147     144     141      84      31
     147     144     141      60      31     150     144     141      84      31
     150     144     141      60      31     156     153     144     147      10
     156     153    -144     147       4     156     153     144     150      10
     156     153    -144     150       4     159     156     153     144      35
     162     153     144     141       2     162     153     144     147       2
     162     153     144     150       2     162     153     156     159      36
     165     153     144     147       2     165     153     144     150       2
     165     153     156     159      35     168     165     153     144      34
     168     165     153     156      37     168     165     153     162       2
     171     165     153     144      34     171     165     153     156      37
     171     165     153     162       2     174     165     153     162       2
     177     174     165     168      34     177     174     165     171      34
     198     195     192     189       5     198     195     180     177       5
     198     195     180     183       5     201     192     189     186       5
     201     192     195     198       5     201     192     195     180       5
     204     189     186     183       5     204     189     192     195       5
     204     189     192     201       5     207     186     183     180       5
     207     186     189     192       5     207     186     189     204       5
     210     183     180     177       5     210     183     180     195       5
     210     183     186     189       5     210     183     186     207       5
     213     177     174     165      34     213     177     180     183       3
     213     177     180     195       3     216     177     174     165      34
     216     177     180     183       3     216     177     180     195       3
     219     174     165     153      34     219     174     165     168      14
     219     174     165     171      14     219     174     177     180       2
     219     174     177     213      14     219     174     177     216      14
     222     174     165     168       2     222     174     165     171       2
     222     174     177     213       2     222     174     177     216       2
     225     222     174     219      19     225     222    -174     219      20
     228     222     174     219      23     231     228     222     174       6
     231     228     222     225       9     231     228    -222     225       6
     237     234     228     222      23     237     234     228     231       1
     240     234     228     231       1     243     240     234     237       2
     246     243     240     234      34     249     243     240     234      34
     252     243     240     234      34     255     240     234     228       2
     255     240     234     237       2     255     240     243     246      14
     255     240     243     249      14     255     240     243     252      14
     258     240     234     237       2     258     240     243     246      34
     258     240     243     249      34     258     240     243     252      34
     261     258     240     234      34     261     258     240     243      34
     261     258     240     255      14     264     258     240     234      34
     264     258     240     243      34     264     258     240     255      14
     267     258     240     255      34     267     276     234     237       2
     270     267     258     240      34     270     267     258     261      14
     270     267     258     264      14     270     267     276     234      34
     273     267     258     240      34     273     267     258     261      14
     273     267     258     264      14     273     267     276     234      34
     276     267     258     261      34     276     267     258     264      34
     276     234     228     231       1     276     234     240     255      34
     279     276     267     258       2     279     276     267     270       2
     279     276     267     273       2     279     276     234     228       2
     279     276     234     237       2     279     276     234     240       2
     282     276     267     270      37     282     276     267     273      37
     282     276     234     237      10     282     276    -234     237       4
     285     282     276     267      35     285     282     276     279      36
     285     282     276     234      35       3       0     -27      -6      43
       0      12      -6      -9      43       6      15     -12     -18      43
      27      24     -21     -18      43      87      96     -93    -135      43
     180     186    -183    -210      43     183     189    -186    -207      43
     186     192    -189    -204      43     189     195    -192    -201      43
     180     192    -195    -198      43     222     234    -228    -231      43
%FLAG DIHEDRALS_WITHOUT_HYDROGEN
%FORMAT(10I8)
       0       6      12      18       5       0      27     -21      18       5
      21      18      12       6      12       6       0     -27      21       5
      27      21      18      12      12      27       0      -6      12       5
      30      27      21      18       5       6       0      27      30       5
      39      30      27      21      13       0      27      30      39      13
      48      39      30      27      15      51      48      39      30      16
      51      48     -39      30      17      51      48     -39      30      18
      54      48      39      30      21      54      48     -39      30      22
      57      54      48      39      24      57      54     -48      39      25
      57      54     -48      39      26      57      54      48      51       6
      60      57      54      48      27      60      57     -54      48      28
      60      57     -54      48      29      75      54      48      39      24
      75      54     -48      39      25      75      54     -48      39      26
      75      54      48      51       6      75      54      57      60       1
      75      84    -141      60      30      84      75      54      48      27
      84      75     -54      48       1      84      75     -54      48      28
      84      75     -54      48      29      84      75      54      57       1
      84     141     -60      57      30      87      84      75      54      32
      87      84     141      60      33      90      87      84      75      16
      90      87     -84      75      17      90      87     -84      75      18
      93      87      84      75      21      93      87     -84      75      22
      96      93      87      84      24      96      93     -87      84      25
      96      93     -87      84      26      96      93      87      90       6
      99      96      93      87      27      99      96     -93      87       1
      99      96     -93      87      28      99      96     -93      87      29
     111      96      93      87      27     111      96     -93      87       1
     111      96     -93      87      28     111      96     -93      87      29
     123      96      93      87      27     123      96     -93      87       1
     123      96     -93      87      28     123      96     -93      87      29
     141      84      75      54       2     141      84      87      90      23
     141      84      87      93      23     141      60     -57      54       2
     144     141      84      75      30     144     141      84      87      33
     144     141      60      57      30     153     144     141      84      30
     153     144     141      60      30     156     153     144     141       2
     165     153     144     141      32     174     165     153     144      38
     174     165     153     156      11     177     174     165     153      38
     180     177     174     165       2     183     180     177     174      13
     186     183     180     177       5     189     186     183     180       5
     189     192    -195     180       5     192     189     186     183       5
     192     195     180     177       5     192     195    -180     183       5
     195     192     189     186       5     195     180     177     174      13
     195     180    -183     186       5     222     174     165     153      39
     222     174    -165     153      40     222     174    -165     153       4
     222     174     177     180      15     225     222     174     165      16
     225     222    -174     165      17     225     222    -174     165      18
     225     222     174     177      16     225     222    -174     177      17
     225     222    -174     177      18     228     222     174     165      21
     228     222    -174     165      22     228     222     174     177      21
     228     222    -174     177      22     234     228     222     174      24
     234     228    -222     174      25     234     228    -222     174      26
     234     228     222     225       6     240     234     228     222      27
     240     234    -228     222       1     240     234    -228     222      28
     240     234    -228     222      29     243     240     234     228      41
     258     240     234     228      41     258     267    -276     234      38
     267     258    -240     234      38     267     258     240     243      38
     267     276     234     228      41     267     276    -234     240      38
     276     267    -258     240      38     276     234     228     222      27
     276     234    -228     222       1     276     234    -228     222      28
     276     234    -228     222      29     276     234     240     243      38
     276     234    -240     258      38     282     276     267     258      11
     282     276     234     228      42     282     276     234     240      11
       0      21     -27     -30      43      39      54     -48     -51      44
      48      57     -54     -75      43      84      93     -87     -90      44
     177     183    -180    -195      43     174     228    -222    -225      44
%FLAG EXCLUDED_ATOMS_LIST
%FORMAT(10I8)
       2       3       4       5       6       7       8       9      10      11
      12      13      14       3       4       5       8      10      11       4
       5       6       7       8      10      11       5       6       7      10
       6       7       8       9      10       7       8       8       9      10
      11       9      10      11      12      13      14      10      11      11
      12      13      14      15      16      17      12      13      14      15
      16      17      18      19      13      14      15      16      17      14
      15      16      17      15      16      17      18      19      20      26
      16      17      18      19      17      18      19      18      19      20
      21      24      25      26      27      28      29      19      20      26
      20      21      22      23      24      25      26      27      28      29
      30      47      48      21      22      23      24      25      26      27
      28      29      48      49      22      23      24      25      26      29
      30      47      48      49      50      51      52      23      24      25
      29      48      49      24      25      29      48      49      25      26
      48      26      48      27      28      29      30      31      32      47
      48      49      28      29      30      47      48      29      30      47
      48      30      31      32      33      46      47      48      49      50
      51      52      31      32      33      34      38      42      46      47
      48      49      32      33      46      47      48      33      34      35
      36      37      38      39      40      41      42      43      44      45
      46      47      48      34      35      36      37      38      39      40
      41      42      43      44      45      46      35      36      37      38
      39      40      41      42      43      44      45      46      36      37
      38      42      37      38      42      38      42      39      40      41
      42      43      44      45      46      40      41      42      41      42
      42      43      44      45      46      44      45      45       0       0
      48      49      49      50      51      52      53      55      56      50
      51      52      53      54      55      56      57      58      59      51
      52      53      55      56      52      53      55      56      53      54
      55      56      57      58      59      60      74      75      54      55
      56      57      58      59      55      56      56      57      58      59
      57      58      59      60      61      72      73      74      75      76
      77      58      59      60      74      75      59      60      74      75
      60      61      62      66      72      73      74      75      76      77
      78      79      61      62      63      65      66      67      71      72
      73      74      75      76      77      62      63      64      65      66
      67      68      70      71      72      73      74      75      63      64
      65      66      67      69      70      71      72      73      64      65
      66      68      69      70      71      65      66      67      68      69
      70      71      66      67      68      69      70      67      68      69
      71      72      73      68      69      70      71       0      73      74
      75      74      75      75      76      77      76      77      78      79
      80      81      93      77      78      79      78      79      80      81
      82      86      87      90      93      94      95      79      80      81
      93      80      81      82      83      84      85      86      87      88
      89      90      91      92      93      94      95      96      81      82
      86      87      90      93      94      95      82      83      84      85
      86      87      88      89      90      91      92      93      94      95
      83      84      85      86      87      88      89      90      93      84
      85      86      87      85      86      87      86      87      87      88
      89      90      93      88      89      90      91      92      93      94
      95      89      90      91      92      93      90      91      92      93
      91      92      93      94      95      96      92      93      94      95
      93      94      95      94      95      96      95      96      96       0
%FLAG HBOND_ACOEF
%FORMAT(5E16.8)

%FLAG HBOND_BCOEF
%FORMAT(5E16.8)

%FLAG HBCUT
%FORMAT(5E16.8)

%FLAG AMBER_ATOM_TYPE
%FORMAT(20a4)
ca  ha  ca  ha  ca  h4  nb  ca  h4  ca  c3  hc  hc  c3  hc  hc  c   o   n   c3  
c3  h1  h1  h1  h1  c3  h1  h1  c3  c   o   n   c3  c3  hc  hc  hc  c3  hc  hc  
hc  c3  hc  hc  hc  hn  h1  n3  c3  h1  h1  c3  oh  ho  h1  c3  hc  hc  c3  c3  
ca  ca  ca  ca  ca  ca  ha  ha  ha  ha  ha  hc  hc  hc  c   o   n   hn  c3  h1  
c3  c3  hc  hc  hc  hc  c3  hc  hc  c3  hc  hc  c3  h1  oh  ho  
%FLAG TREE_CHAIN_CLASSIFICATION
%FORMAT(20a4)
M   E   B   E   B   E   S   S   E   M   M   E   E   M   E   E   M   E   M   3   
B   E   E   E   E   M   E   E   M   B   E   B   3   3   E   E   E   3   E   E   
E   3   E   E   E   E   E   M   M   E   E   M   S   E   E   M   E   E   M   3   
B   B   B   B   S   S   E   E   E   E   E   E   E   E   M   E   M   E   M   E   
3   3   E   E   E   E   3   E   E   B   E   E   M   E   M   E   
%FLAG JOIN_ARRAY
%FORMAT(10I8)
       0       0       0       0       0       0       0       0       0       0
       0       0       0       0       0       0       0       0       0       0
       0       0       0       0       0       0       0       0       0       0
       0       0       0       0       0       0       0       0       0       0
       0       0       0       0       0       0       0       0       0       0
       0       0       0       0       0       0       0       0       0       0
       0       0       0       0       0       0       0       0       0       0
       0       0       0       0       0       0       0       0       0       0
       0       0       0       0       0       0       0       0       0       0
       0       0       0       0       0       0
%FLAG IROTAT
%FORMAT(10I8)
       0       0       0       0       0       0       0       0       0       0
       0       0       0       0       0       0       0       0       0       0
       0       0       0       0       0       0       0       0       0       0
       0       0       0       0       0       0       0       0       0       0
       0       0       0       0       0       0       0       0       0       0
       0       0       0       0       0       0       0       0       0       0
       0       0       0       0       0       0       0       0       0       0
       0       0       0       0       0       0       0       0       0       0
       0       0       0       0       0       0       0       0       0       0
       0       0       0       0       0       0
%FLAG RADIUS_SET
%FORMAT(1a80)
modified Bondi radii (mbondi)                                                   
%FLAG RADII
%FORMAT(5E16.8)
  1.70000000E+00  1.30000000E+00  1.70000000E+00  1.30000000E+00  1.70000000E+00
  1.30000000E+00  1.55000000E+00  1.70000000E+00  1.30000000E+00  1.70000000E+00
  1.70000000E+00  1.30000000E+00  1.30000000E+00  1.70000000E+00  1.30000000E+00
  1.30000000E+00  1.70000000E+00  1.50000000E+00  1.55000000E+00  1.70000000E+00
  1.70000000E+00  1.30000000E+00  1.30000000E+00  1.30000000E+00  1.30000000E+00
  1.70000000E+00  1.30000000E+00  1.30000000E+00  1.70000000E+00  1.70000000E+00
  1.50000000E+00  1.55000000E+00  1.70000000E+00  1.70000000E+00  1.30000000E+00
  1.30000000E+00  1.30000000E+00  1.70000000E+00  1.30000000E+00  1.30000000E+00
  1.30000000E+00  1.70000000E+00  1.30000000E+00  1.30000000E+00  1.30000000E+00
  1.30000000E+00  1.30000000E+00  1.55000000E+00  1.70000000E+00  1.30000000E+00
  1.30000000E+00  1.70000000E+00  1.50000000E+00  8.00000000E-01  1.30000000E+00
  1.70000000E+00  1.30000000E+00  1.30000000E+00  1.70000000E+00  1.70000000E+00
  1.70000000E+00  1.70000000E+00  1.70000000E+00  1.70000000E+00  1.70000000E+00
  1.70000000E+00  1.30000000E+00  1.30000000E+00  1.30000000E+00  1.30000000E+00
  1.30000000E+00  1.30000000E+00  1.30000000E+00  1.30000000E+00  1.70000000E+00
  1.50000000E+00  1.55000000E+00  1.30000000E+00  1.70000000E+00  1.30000000E+00
  1.70000000E+00  1.70000000E+00  1.30000000E+00  1.30000000E+00  1.30000000E+00
  1.30000000E+00  1.70000000E+00  1.30000000E+00  1.30000000E+00  1.70000000E+00
  1.30000000E+00  1.30000000E+00  1.70000000E+00  1.30000000E+00  1.50000000E+00
  8.00000000E-01
%FLAG SCREEN
%FORMAT(5E16.8)
  7.20000000E-01  8.50000000E-01  7.20000000E-01  8.50000000E-01  7.20000000E-01
  8.50000000E-01  7.90000000E-01  7.20000000E-01  8.50000000E-01  7.20000000E-01
  7.20000000E-01  8.50000000E-01  8.50000000E-01  7.20000000E-01  8.50000000E-01
  8.50000000E-01  7.20000000E-01  8.50000000E-01  7.90000000E-01  7.20000000E-01
  7.20000000E-01  8.50000000E-01  8.50000000E-01  8.50000000E-01  8.50000000E-01
  7.20000000E-01  8.50000000E-01  8.50000000E-01  7.20000000E-01  7.20000000E-01
  8.50000000E-01  7.90000000E-01  7.20000000E-01  7.20000000E-01  8.50000000E-01
  8.50000000E-01  8.50000000E-01  7.20000000E-01  8.50000000E-01  8.50000000E-01
  8.50000000E-01  7.20000000E-01  8.50000000E-01  8.50000000E-01  8.50000000E-01
  8.50000000E-01  8.50000000E-01  7.90000000E-01  7.20000000E-01  8.50000000E-01
  8.50000000E-01  7.20000000E-01  8.50000000E-01  8.50000000E-01  8.50000000E-01
  7.20000000E-01  8.50000000E-01  8.50000000E-01  7.20000000E-01  7.20000000E-01
  7.20000000E-01  7.20000000E-01  7.20000000E-01  7.20000000E-01  7.20000000E-01
  7.20000000E-01  8.50000000E-01  8.50000000E-01  8.50000000E-01  8.50000000E-01
  8.50000000E-01  8.50000000E-01  8.50000000E-01  8.50000000E-01  7.20000000E-01
  8.50000000E-01  7.90000000E-01  8.50000000E-01  7.20000000E-01  8.50000000E-01
  7.20000000E-01  7.20000000E-01  8.50000000E-01  8.50000000E-01  8.50000000E-01
  8.50000000E-01  7.20000000E-01  8.50000000E-01  8.50000000E-01  7.20000000E-01
  8.50000000E-01  8.50000000E-01  7.20000000E-01  8.50000000E-01  8.50000000E-01
  8.50000000E-01
%FLAG IPOL
%FORMAT(1I8)
       0
